96
Lattice="15.746150502372407 -0.14103474552277281 0.019029514487011095 0.13068437644488126 14.661589249339587 0.568815229227286 -0.007980332395093277 0.2530133413956154 8.485086918101807" Properties=species:S:1:pos:R:3:forces:R:3 energy=-419.22862092784743 stress="7.909108928079966e-09 6.232393703474254e-08 -4.433438642725891e-08 6.232393703474254e-08 -4.6543453893144757e-08 4.1761443172758105e-08 -4.433438642725891e-08 4.1761443172758105e-08 1.8994694344519353e-09" free_energy=-419.22862092784743 pbc="T T T"
I        6.47735220       1.47785463       2.67105533      -0.00001391       0.00000662       0.00000258
I        1.12638229       5.82957493       3.08091114      -0.00000177       0.00000082       0.00000883
I        6.61359195       1.34226411       6.82051421       0.00000432       0.00000818      -0.00000131
I        0.98216503       6.21821061       7.41654313      -0.00001564      -0.00001474       0.00000418
I        4.92817319       4.82379696       5.36253339      -0.00001626      -0.00000183      -0.00000136
I        2.66760576       2.73668640       8.87453534      -0.00001185      -0.00000449      -0.00000931
H        2.34208045       1.17919071       5.26768405      -0.00001679       0.00001369      -0.00000525
H        6.01243636       5.48818931       1.98036363       0.00001300      -0.00000725       0.00001148
H        1.59140622       1.81938697       3.77149904       0.00002257       0.00000057       0.00002083
H        5.26158994       6.12821237       0.48419605       0.00000248       0.00002019      -0.00000159
H        3.19889933       2.42447045       4.29412769       0.00000767      -0.00001331      -0.00001110
H        4.40490839       4.88300366       1.45796419      -0.00001460      -0.00000089      -0.00000135
H        1.40393472       3.99266733       4.83950147      -0.00000226      -0.00000544      -0.00000883
H        6.97588791       4.49798719      -0.01308206       0.00002740       0.00000567       0.00000487
H        2.10243504       3.39744843       6.25505705      -0.00001369      -0.00000445      -0.00001441
H        5.50122206       3.90990176      -0.50300902      -0.00000430      -0.00001557      -0.00002242
H        0.62779754       2.80941869       5.76497837       0.00001813       0.00002052       0.00000056
H        6.19983107       3.31478986       0.91253201      -0.00001135      -0.00000154       0.00001101
C        2.22275603       2.06141746       4.63078002       0.00000373      -0.00001785      -0.00001629
C        5.38100515       5.24605238       1.12117383       0.00001752      -0.00002854      -0.00001410
Pb       4.65327242      14.79149048       9.64744768       0.00000877       0.00000157       0.00000506
Pb       0.71741776      14.90950731       9.68239674       0.00001689       0.00000867       0.00001431
N        1.55278305       3.13616162       5.41656307      -0.00000769       0.00002073       0.00003932
N        6.05093289       4.17125473       0.33542172      -0.00003245       0.00003246       0.00002581
I        5.08614739       8.94819096       7.19633357       0.00000011       0.00000191      -0.00000388
I        2.64022839      13.27387404       7.60956431       0.00000680       0.00000862      -0.00000165
I        4.94554707       8.56211473       2.86033222      -0.00002849       0.00001935      -0.00000589
I        2.78886929      13.40693389       3.46045462       0.00000815      -0.00000953       0.00000756
I        6.69661254      12.01284989       1.40645179      -0.00000144       0.00000118      -0.00000144
I        1.03779093       9.95618236       4.91434326       0.00002583       0.00000911      -0.00000264
H        0.50419770       9.90645582       8.81761008      -0.00002007       0.00000046       0.00001558
H        5.62454680      12.94965453       6.50668270       0.00000196      -0.00002519      -0.00000518
H        2.10187864       9.27247995       8.29916195      -0.00000322       0.00001723       0.00000117
H        7.22222284      12.31569194       5.98819710      -0.00000004      -0.00001387       0.00000236
H        1.33601203       8.64614212       9.79350644       0.00000323       0.00000327      -0.00001103
H        6.39034241      13.57594255       5.01228296      -0.00001316       0.00001175      -0.00001961
H        1.61303125      10.85984023      10.78125595      -0.00001674      -0.00000595       0.00001062
H        4.64829241      11.97664418       4.51100828       0.00000522      -0.00000255       0.00000298
H        2.32559535      11.44226064       9.36739597       0.00000338      -0.00002577       0.00000297
H        5.40080054      10.77983345       5.43856391      -0.00000830      -0.00000984       0.00000402
H        3.07809412      10.24539193      10.29488347       0.00001136       0.00000637       0.00000915
H        6.11335276      11.36216365       4.02466450       0.00000408       0.00002132       0.00000801
C        1.47279499       9.52597243       9.15679778       0.00001776      -0.00000969       0.00001998
C        6.25360168      12.69613687       5.64903319      -0.00000518       0.00000343       0.00002606
Pb       3.07315373       7.43055825       5.15841910       0.00000636      -0.00000018      -0.00001292
Pb       7.00899810       7.31259016       5.12351626       0.00001086       0.00000171      -0.00001352
N        2.15998400      10.58863024       9.94415328      -0.00000234      -0.00000767      -0.00003158
N        5.56640599      11.63342872       4.86175297       0.00002692       0.00000795      -0.00002867
I       14.35049758       1.40735844       2.68062017      -0.00001312       0.00000712       0.00000007
I        8.99942461       5.75910587       3.09046922      -0.00000926      -0.00000715      -0.00000529
I       14.48660462       1.27176450       6.83005727       0.00000592      -0.00000499       0.00000650
I        8.85523385       6.14774986       7.42612126       0.00001451      -0.00001361      -0.00000143
I       12.80120919       4.75326844       5.37204734      -0.00002328       0.00000421       0.00000563
I       10.54066396       2.66619727       8.88413191       0.00000181       0.00000008      -0.00000034
H       10.21510695       1.10875574       5.27747660      -0.00000445       0.00002176      -0.00001424
H       13.88553437       5.41776056       1.98984131      -0.00000318      -0.00001499      -0.00000032
H        9.46423451       1.74872679       3.78130006       0.00001767       0.00000094      -0.00001236
H       13.13459857       6.05768115       0.49367462       0.00001159       0.00000060       0.00000596
H       11.07181946       2.35385847       4.30359883       0.00000508      -0.00000070      -0.00000856
H       12.27800558       4.81248666       1.46754089      -0.00001356       0.00001366       0.00000552
H        8.50091450       2.73910182       5.77471008       0.00000921       0.00000363      -0.00002811
H       14.07293492       3.24430519       0.92211243       0.00000375       0.00001511      -0.00001569
H        9.27699554       3.92220096       4.84898775      -0.00000388      -0.00000418       0.00001746
H       14.84895158       4.42748046      -0.00356506       0.00002192      -0.00000762      -0.00000403
H        9.97562515       3.32715591       6.26454526       0.00001156      -0.00000258       0.00000371
H       13.37428972       3.83933690      -0.49343987      -0.00000407       0.00001440      -0.00000376
C       10.09571517       1.99088425       4.64044854       0.00001048      -0.00001797       0.00000643
C       13.25407405       5.17555637       1.13069111      -0.00000096       0.00001312      -0.00000827
Pb      12.52634387      14.72102102       9.65705181      -0.00000608      -0.00000570      -0.00001020
Pb       8.59050596      14.83899543       9.69193143      -0.00000708      -0.00001075       0.00001489
N        9.42587378       3.06576796       5.42615323      -0.00003944      -0.00000051       0.00001257
N       13.92400890       4.10074368       0.34496812      -0.00000849      -0.00002724       0.00001716
I       12.95929101       8.87766679       7.20580707       0.00001638       0.00001443       0.00000528
I       10.51337674      13.20337789       7.61913037      -0.00000320       0.00000125       0.00001816
I       12.81858957       8.49161697       2.86984751      -0.00002410       0.00000502      -0.00000952
I       10.66192544      13.33645904       3.47004906       0.00000224       0.00000926       0.00000479
I       14.56966747      11.94234618       1.41597395      -0.00000503      -0.00000911      -0.00000094
I        8.91087673       9.88571353       4.92394827       0.00000979      -0.00000168      -0.00000843
H        8.37733513       9.83587294       8.82717677       0.00002731      -0.00000923       0.00001339
H       13.49774204      12.87888781       6.51640344       0.00000313       0.00000628       0.00001399
H        9.97505948       9.20189897       8.30885238       0.00001498       0.00001958      -0.00001737
H       15.09540697      12.24515725       5.99760540       0.00001103       0.00000422       0.00000427
H        9.20914309       8.57566070       9.80320963      -0.00000529       0.00000846      -0.00001067
H       14.26330146      13.50551886       5.02202229       0.00000384       0.00000010      -0.00000980
H       10.95113916      10.17497836      10.30456897       0.00000060       0.00000782      -0.00001030
H       12.52135794      11.90618307       4.52061227      -0.00001730       0.00000514      -0.00001605
H        9.48603660      10.78948041      10.79076874      -0.00001159      -0.00002196       0.00002035
H       13.27399024      10.70927650       5.44793322      -0.00000204      -0.00002252       0.00001324
H       10.19870665      11.37175926       9.37690985      -0.00001570      -0.00003934       0.00003306
H       13.98641290      11.29186350       4.03405965      -0.00001465      -0.00001664       0.00002336
C        9.34593003       9.45544501       9.16643811      -0.00005930      -0.00001525       0.00000251
C       14.12671334      12.62558579       5.65862974      -0.00001492      -0.00001776      -0.00000349
Pb      10.94622862       7.36007522       5.16795930      -0.00000062      -0.00001389       0.00000301
Pb      14.88207456       7.24201778       5.13297238      -0.00000003       0.00001151      -0.00000195
N       10.03305321      10.51818318       9.95373924       0.00004524       0.00004552      -0.00004470
N       13.43951384      11.56296244       4.87123774       0.00004969       0.00002491      -0.00001945
