96
Lattice="19.11676552897619 -0.09313943850671252 0.2146469851702586 -0.14850656875159576 11.061003983228577 -0.024787197420917697 -0.08644809695314874 -0.06665876444954742 9.57106133623564" Properties=species:S:1:pos:R:3:forces:R:3 energy=-419.3231580057795 stress="0.0026912438171062835 -0.0004653059158743204 5.0754282350727904e-05 -0.0004653059158743204 0.0019127400274050739 -0.00043325455942777466 5.0754282350727904e-05 -0.00043325455942777466 0.0019166888625717974" free_energy=-419.3231580057795 pbc="T T T"
I       17.85195693       3.12516103       3.72434717      -0.00000669       0.00000248      -0.00003993
I       18.47184118       6.94895224       1.31199399      -0.00000959      -0.00001280      -0.00000030
I        8.86128914       8.71683299       3.61047972      -0.00001245       0.00000123       0.00000855
I        8.34578821       1.45043597       1.21115527      -0.00001185       0.00000061       0.00000352
I       16.24092164      -0.34802287       1.33338476      -0.00000367       0.00000384       0.00000652
I        0.96612994      10.51528673       3.48825648       0.00000747       0.00001004       0.00001498
I       10.62810252       5.26864873       1.25062962      -0.00002736       0.00000084      -0.00001183
I        6.57900180       4.89861162       3.57098569      -0.00000698       0.00000421       0.00001278
I        2.73724856       3.08979458       1.13706888      -0.00001121      -0.00001375      -0.00000193
I       14.46981523       7.07746729       3.68456747      -0.00000262      -0.00002173      -0.00001048
I        4.96164131       8.53271649       1.15616520      -0.00001880       0.00000778       0.00001123
I       12.24546784       1.63456337       3.66554096      -0.00000586      -0.00001113       0.00000377
H        5.32528663       1.56169661       2.68615840       0.00002715       0.00002365      -0.00000008
H       13.09630270       9.59989909       1.26422778      -0.00001136      -0.00000938       0.00000860
H        3.55344697       6.20431414       3.52463089      -0.00000184       0.00002724       0.00001166
H       14.88542712       3.00730450       2.18603407       0.00000021      -0.00000142       0.00001048
H        4.11072800       0.56741117       3.55738820      -0.00000621      -0.00001861       0.00000412
H       11.88175229       8.60562702       2.13549480       0.00002975      -0.00004399       0.00001021
H        2.32132955       7.15999419       2.63556360       0.00001846       0.00000501       0.00001475
H       13.65351162       3.96322137       1.29694889      -0.00001892      -0.00000660       0.00001364
H        5.29353137       1.55944379       4.47318472      -0.00002044      -0.00001025      -0.00003439
H       11.91344135       8.60789901       0.34846921       0.00000609       0.00000303       0.00000899
H        2.32627045       7.15673679       4.42331012       0.00003759       0.00002683      -0.00002908
H       14.88054249       3.01060874       0.39828800       0.00002864       0.00001406       0.00002852
H        5.94813659      -0.81104902       2.75763835      -0.00002069      -0.00000895       0.00002321
H       10.14102802      10.05449262       1.21017011       0.00000714      -0.00001145       0.00002694
H        1.78211069       4.76366939       4.35366774      -0.00003055      -0.00000764       0.00002130
H       15.42510883       5.40358366       0.46801895      -0.00000223       0.00000632      -0.00002099
H        5.91836371      -0.81549362       4.41514674       0.00001710      -0.00003496       0.00004464
H       11.28862946      10.98282135       0.40653923      -0.00001112       0.00001616      -0.00002618
H        1.77696617       4.76924448       2.69665113      -0.00001358       0.00000582      -0.00000735
H       16.59295484       4.51391841       1.28704913       0.00001803       0.00000534       0.00000492
H        7.06600961       0.11287965       3.61163301      -0.00003854      -0.00000998      -0.00001027
H       11.25899311      10.97840981       2.06405224       0.00000464      -0.00000463      -0.00000951
H        0.61409490       5.65311117       3.53464929      -0.00000470       0.00002657       0.00000173
H       15.43019906       5.39795886       2.12503497       0.00000539      -0.00000389      -0.00001937
C        5.13503418       0.95439124       3.57585654       0.00003033       0.00001928       0.00003265
C       12.07198795       9.21293786       1.24579692      -0.00002019      -0.00000926       0.00001961
C        2.51742909       6.55855480       3.52783252      -0.00001165      -0.00003745      -0.00001068
C       14.68946862       3.60880350       1.29377536       0.00002063      -0.00000316      -0.00000180
Pb       0.07507476       1.41737273       1.12048951      -0.00000544       0.00001283      -0.00000584
Pb      17.13196624       8.74989368       3.70118405      -0.00000188      -0.00001929      -0.00000422
Pb       7.63689168       6.87564551       1.19768936       0.00000883      -0.00000169       0.00002244
Pb       9.57020092       3.29162741       3.62393605       0.00002239       0.00002237      -0.00000870
N        6.08150040      -0.19262006       3.59086793       0.00002351       0.00000934      -0.00004205
N       11.12554554      10.35996746       1.23084342      -0.00000379      -0.00000485      -0.00008311
N        1.60881264       5.38187663       3.52779478       0.00000913      -0.00002666       0.00000959
N       15.59828547       4.78532773       1.29387850      -0.00002574       0.00001146       0.00001282
I       17.80872465       3.09182362       8.50983694       0.00000564       0.00000400       0.00001707
I       18.42860167       6.91560549       6.09751489       0.00001746       0.00001492       0.00001931
I        8.81807623       8.68353452       8.39601992       0.00000586      -0.00000218       0.00001853
I        8.30255420       1.41709418       5.99665684      -0.00001767      -0.00002179       0.00000797
I       16.19766694      -0.38137046       6.11892257      -0.00000697      -0.00001513       0.00000125
I        0.92293054      10.48197133       8.27382324      -0.00000684      -0.00001358       0.00000462
I       10.58483096       5.23535391       6.03618743       0.00000608      -0.00002703      -0.00000425
I        6.53581149       4.86525906       8.35650728      -0.00001468      -0.00000176       0.00001253
I        2.69399085       3.05643991       5.92264578       0.00002421       0.00000445       0.00000901
I       14.42659265       7.04415292       8.47015932      -0.00002944      -0.00000629      -0.00000772
I        4.91835590       8.49939563       5.94171319      -0.00001814       0.00001790      -0.00000737
I       12.20226773       1.60117018       8.45097324      -0.00001063       0.00000765       0.00000490
H        5.28204149       1.52844877       7.47186010       0.00001225       0.00000567      -0.00002310
H       11.83859574       8.57221522       6.92103669      -0.00001672      -0.00000608       0.00001136
H        3.51024853       6.17079923       8.31027587       0.00000593      -0.00000932      -0.00000819
H       14.84238463       2.97398802       6.97170460       0.00000291      -0.00000832       0.00001384
H        4.06758020       0.53429051       8.34337163       0.00001233      -0.00001422      -0.00000644
H       11.86996999       8.57427843       5.13400787       0.00000650       0.00001126      -0.00001701
H        2.27829402       7.12660055       7.42111973      -0.00000189      -0.00001379       0.00000795
H       13.61034826       3.92965874       6.08252341      -0.00000053      -0.00000916      -0.00002007
H        5.25070321       1.52620817       9.25888859      -0.00001544      -0.00001842      -0.00000618
H       13.05305119       9.56631370       6.04944972      -0.00001325       0.00000815       0.00000679
H        2.28313310       7.12337705       9.20886409       0.00000245      -0.00000478      -0.00000994
H       14.83754492       2.97715358       5.18396108      -0.00002608      -0.00001516       0.00000515
H        5.90465826      -0.84437714       7.54321440       0.00002611      -0.00000010       0.00003812
H       11.24532245      10.94927732       5.19193198       0.00000974       0.00000867       0.00001737
H        1.73873697       4.73034333       9.13921261       0.00000471       0.00003267      -0.00001263
H       15.38178543       5.37020772       5.25351266       0.00001052       0.00002822      -0.00002392
H        5.87529648      -0.84878764       9.20073212      -0.00001614      -0.00000829      -0.00000088
H       11.21592597      10.94500889       6.84944561       0.00000257      -0.00000529       0.00002344
H        1.73362293       4.73593685       7.48219703       0.00000008       0.00000025      -0.00001838
H       16.54971614       4.48075993       6.07265651       0.00000061       0.00003179      -0.00000293
H        7.02282897       0.07945611       8.39690138      -0.00000391       0.00001116      -0.00001650
H       10.09779621      10.02107026       5.99582119      -0.00000368       0.00001066       0.00000482
H        0.57083415       5.61993178       8.32018268      -0.00000803       0.00000055      -0.00001965
H       15.38682264       5.36471510       6.91053186       0.00003869      -0.00000890      -0.00000656
C        5.09193098       0.92116508       8.36160371      -0.00001577      -0.00001090       0.00000870
C       12.02870956       9.17941366       6.03123554       0.00004913       0.00003628       0.00000453
C        2.47426935       6.52515264       8.31341013      -0.00001417       0.00000612      -0.00001663
C       14.64635627       3.57538941       6.07939570      -0.00002533       0.00002800      -0.00000829
Pb       0.03183823       1.38400480       5.90602309       0.00000819       0.00002703      -0.00000988
Pb      17.08874325       8.71656417       8.48671768       0.00003713       0.00000165       0.00000125
Pb       7.59363915       6.84233479       5.98323755      -0.00000575       0.00000395      -0.00001685
Pb       9.52699649       3.25825444       8.40945875       0.00002706       0.00003467       0.00000569
N        6.03828413      -0.22594262       8.37640376      -0.00002121       0.00000621      -0.00006532
N       11.08233195      10.32649912       6.01630749      -0.00000586      -0.00000697      -0.00001316
N        1.56551889       5.34857702       8.31334209       0.00002979      -0.00002321       0.00004417
N       15.55500948       4.75203838       6.07942602      -0.00000437      -0.00002405       0.00003939
