40
Lattice="12.597274126119492 -0.11029506994998234 -0.16271666250508335 0.08703341310331754 12.565075513015335 0.3771521008480364 0.13730477142234876 -0.3567653806941732 12.638755366582282" Properties=species:S:1:pos:R:3:forces:R:3 energy=-123.08686322414766 stress="0.00430597222888946 0.000660639628645643 -3.276961043245575e-05 0.000660639628645643 0.004072124165161664 3.5774534682432396e-05 -3.276961043245575e-05 3.5774534682432396e-05 0.004528923028515104" free_energy=-123.08686322414766 pbc="T T T"
Cs      12.08420537      12.59481773       7.46156367      -0.00002614       0.00000892      -0.00000263
Cs       5.74193959       6.36735581       7.35428815       0.00000384       0.00001365      -0.00000124
Cs       5.21799744       7.18329940      13.71074651       0.00001609       0.00001206      -0.00001626
Cs      11.56010232      13.41064272      13.81784949      -0.00000500       0.00001710       0.00001162
Cs      11.31770920       6.93417303      13.62593175       0.00001188      -0.00000389      -0.00000307
Cs       5.06265774      13.27175208      13.89589732      -0.00001599       0.00001891       0.00000136
Cs       5.98439193      12.84393190       7.54610308      -0.00000891       0.00000388       0.00001647
Cs      12.23941590       6.50626409       7.27622518       0.00001164      -0.00000295       0.00001197
Pb       2.30888090       3.66165264      10.47888024       0.00001599       0.00001149      -0.00000669
Pb       8.65104995       9.88904626      10.58605647      -0.00001483      -0.00002863       0.00001436
Pb       2.35240797       9.94416518      10.66747778       0.00000940       0.00000419      -0.00001279
Pb       8.60749418       3.60649951      10.39751279       0.00000787       0.00001647      -0.00000310
Pb       2.24023202       3.84004611       4.15945535       0.00001484       0.00001678      -0.00000224
Pb       8.58242817      10.06747965       4.26671969      -0.00001119      -0.00002608      -0.00000904
Pb       2.28375305      10.12260011       4.34809948       0.00002062      -0.00002448      -0.00000662
Pb       8.53888460       3.78490731       4.07812187       0.00001525      -0.00000309      -0.00002019
I        2.93757137       6.81363505      10.06682675      -0.00002035      -0.00000907      -0.00000300
I        9.27969967      13.04101758      10.17400755       0.00000034      -0.00000182      -0.00000999
I       14.36454150      12.96444535      11.10539043       0.00000998      -0.00000333      -0.00001282
I        8.02235046       6.73704723      10.99811934       0.00001153       0.00000081       0.00001463
I       11.78911414       9.26654265      10.04029947      -0.00001838       0.00002374      -0.00000348
I        5.53398491      15.60422535      10.31014400       0.00000265       0.00001725       0.00000615
I        5.51297221      10.51144418      11.13189232       0.00002065       0.00000655      -0.00000479
I       11.76809648       4.17383778      10.86192888      -0.00000989      -0.00003300       0.00001253
I       14.28957251      13.17242027       3.78926139      -0.00000009      -0.00000568      -0.00000407
I        7.94753060       6.94504098       3.68204722      -0.00002525      -0.00000884       0.00000115
I        3.01253555       6.60570156      17.38287516      -0.00001253      -0.00000369       0.00000281
I        9.35475327      12.83309744      17.49014261      -0.00000957      -0.00000023       0.00000139
I        5.56965386      10.35612257      16.47794626       0.00001028      -0.00000241      -0.00001305
I       11.82477635       4.01841556      16.20780065      -0.00001919      -0.00000593       0.00003200
I       11.73247284       9.42201013       4.69433088      -0.00000398       0.00000758      -0.00000580
I        5.47734555      15.75967722       4.96417711       0.00001126       0.00000400       0.00002158
I        2.95044406      16.58776766      14.02265178      -0.00002220      -0.00001626      -0.00000104
I        9.20539023      10.25009585      13.75273170       0.00000243       0.00000482       0.00000666
I       14.35178160       3.19038090       7.14947995       0.00000045      -0.00001346       0.00000132
I        8.09666940       9.52795236       7.41942424      -0.00001231       0.00000420       0.00000165
I        2.77047158      10.55492047       7.51769642       0.00000834      -0.00000309      -0.00002330
I        9.11259312      16.78230067       7.62486746       0.00001446      -0.00000413      -0.00000960
I       14.53164005       9.22315502      13.65453324       0.00000163       0.00000738       0.00001500
I        8.18944723       2.99575803      13.54727576       0.00001437       0.00000027       0.00000216
