40
Lattice="12.615979012655949 -0.04656736468037497 0.26417592604542717 0.10827123860229829 12.45439534186911 -0.16867047396080873 -0.25995000246628963 0.04874447862661462 12.508226422115557" Properties=species:S:1:pos:R:3:forces:R:3 energy=-123.22318088371127 stress="0.0033323171766640766 0.00012329851188266853 4.033333076145828e-06 0.00012329851188266853 0.002499545897710711 0.0006733649217103416 4.033333076145828e-06 0.0006733649217103416 0.002935465972345708" free_energy=-123.22318088371127 pbc="T T T"
Cs       6.97800309      13.49471941       4.98794508       0.00000299      -0.00000828       0.00000623
Cs       0.64069915       8.13605783       4.07278292      -0.00000474       0.00000147      -0.00001163
Cs       0.51482787       8.38772374      10.55167366      -0.00000172       0.00002232      -0.00000880
Cs       6.85212905      13.74650311      11.46694477       0.00000851       0.00000823       0.00001112
Cs       6.79384491       7.29191585      11.32649284       0.00001066       0.00000459      -0.00000055
Cs       0.56483695      14.38750019      10.24247077      -0.00000425       0.00000103      -0.00000506
Cs       0.69886467      14.59058367       4.21321328       0.00001344       0.00001621       0.00000171
Cs       6.92797853       7.49494868       5.29720269       0.00000927       0.00000213       0.00000412
Pb      -2.61573625       4.73735188       7.72208671       0.00000572       0.00000236      -0.00000264
Pb       3.74645536      10.94122364       7.76982425      -0.00001920       0.00001778      -0.00000029
Pb      -2.56157026      10.96454278       7.63776386      -0.00000482       0.00000142      -0.00001114
Pb       3.69226594       4.71400335       7.85415782      -0.00000573       0.00001215      -0.00000238
Pb      -2.48576161       4.71299830       1.46798042       0.00000872      -0.00001221       0.00000784
Pb       3.87638052      10.91690207       1.51571021      -0.00000334      -0.00002666       0.00001636
Pb      -2.43160470      10.94017023       1.38365533       0.00001496       0.00000187       0.00000059
Pb       3.82221005       4.68968486       1.60005667       0.00000126       0.00000101       0.00000435
I       -3.09966299       7.86335941       8.33852335       0.00000831      -0.00000293       0.00001096
I        3.29129062      14.04990614       7.05223484      -0.00000649      -0.00000103       0.00002117
I       10.59240023      14.01917616       7.20115475      -0.00000004      -0.00001546       0.00000601
I        4.20152645       7.83253706       8.48736810       0.00001046       0.00001178      -0.00000846
I        6.89316943      11.43535144       8.29045011      -0.00000404      -0.00001304       0.00001611
I        0.63842986      17.65314479       8.10110385       0.00001474       0.00000109      -0.00000878
I        0.59969238      10.44729489       7.24924391      -0.00001793      -0.00003313      -0.00000352
I        6.85435508       4.22929157       7.43856309      -0.00001287       0.00000680      -0.00000203
I        9.70050369      14.01961871       2.26427335       0.00000064       0.00000348      -0.00001680
I        3.36714583       7.79836374       0.88248832      -0.00001331       0.00001266       0.00002094
I       -2.20765627       7.86291666      13.27539788      -0.00000560      -0.00000801       0.00001719
I        4.12568041      14.08414218      14.65716598       0.00000012      -0.00000821      -0.00001582
I        0.45435253      11.45036684      14.43949373      -0.00001476      -0.00000064      -0.00001234
I        6.70900972       5.23247246      14.62901047       0.00000336      -0.00000418      -0.00002148
I        7.03848452      10.43218431       1.10022213       0.00000155      -0.00002093      -0.00000296
I        0.78375376      16.64999105       0.91068869       0.00000340       0.00000643      -0.00000556
I       -3.05480076      16.54418528      10.67400514       0.00000490      -0.00000145      -0.00000146
I        3.21240389      11.61191542      10.88374666      -0.00000963       0.00000225       0.00000186
I       10.54759403       5.33840964       4.86567972      -0.00001212      -0.00002377       0.00000486
I        4.28044590      10.27052984       4.65590898       0.00000680       0.00001774      -0.00000528
I       -2.97881857      10.29253575       4.50423550      -0.00002244       0.00001465       0.00000860
I        3.39634823      17.81470173       4.54529691       0.00001406       0.00001023       0.00000814
I       10.47167335      11.58992378      11.03546966       0.00000917       0.00000454      -0.00001597
I        4.09636055       4.06775303      10.99436024       0.00001001      -0.00000429      -0.00000522
