768
Lattice="25.602687893934696 0.06456492963817112 0.03902532789253627 -0.039314378406618125 25.444273944319132 0.02289504811895965 -0.15598059894926472 -0.09929609100608251 25.393684631218054" Properties=species:S:1:pos:R:3:forces:R:3 energy=-3656.866950242539 stress="0.0032403222059826996 2.560288097674057e-05 -0.00020231599205220718 2.560288097674057e-05 -0.0005054729859741702 0.0003019243971626499 -0.00020231599205220718 0.0003019243971626499 0.0017116267972569312" free_energy=-3656.866950242539 pbc="T T T"
H        9.27369723      14.22667604       1.00782587      -0.00001438       0.00000736       0.00001135
H        8.17555370       7.87707143      25.58353358       0.00000504       0.00000839      -0.00000282
H       10.18493842      10.30398062       6.70491859      -0.00001572      -0.00000251      -0.00001060
H        8.40166321      14.22621116       6.34011175      -0.00000014      -0.00000165       0.00001029
H       11.10122297      15.59094870       1.47948212      -0.00000526      -0.00002522       0.00003481
H        9.85940186       8.28668289      27.11106497       0.00000586      -0.00000509       0.00001011
H        4.63110850      15.88567100       5.30013289       0.00002683       0.00000038      -0.00002572
H        9.95354549      14.56390716       8.02783146       0.00001227       0.00001431      -0.00000377
H        4.17793301       8.58775574      -0.57643384      -0.00001400       0.00001939      -0.00000979
H        2.77111995      16.59249102      24.10367435      -0.00001267       0.00001934      -0.00001828
H        4.01190569      16.81052575       6.65984414       0.00000363       0.00002273       0.00002115
H       10.53806096      16.07333651       7.33239886      -0.00000625      -0.00000819      -0.00000101
H        2.98725595       7.95155038       1.54101598      -0.00000321      -0.00000748       0.00000748
H        1.52433981      16.01921880      26.21378021       0.00000790      -0.00000280      -0.00000529
H        1.98551615      15.90715927       7.78075680       0.00001694      -0.00002064      -0.00001213
H        1.76445577       7.73603370       6.31826431       0.00000440      -0.00000873      -0.00000754
H        7.84088787      14.70713561      -0.74032471      -0.00001652       0.00000202      -0.00000962
H        2.03802405      14.53793535      27.02035616       0.00000211       0.00001988      -0.00002395
H        8.68222293      10.20024700       4.93540886      -0.00000095       0.00002680      -0.00002141
H        1.09863394       8.69343120       7.63173716      -0.00000546       0.00000476       0.00001154
C        9.46569497      15.10277464       0.38150313       0.00006138       0.00001855       0.00005138
C        3.04602861      14.96398820      25.32810297       0.00000350      -0.00001714       0.00000422
C        2.98945244      15.10447054       6.18564295       0.00000338       0.00001607      -0.00000545
C        2.72706556       9.49114332       6.73175044      -0.00003861      -0.00001662       0.00001330
N        3.52031722       9.37344871      -0.60600790       0.00001583       0.00000884      -0.00002107
N        3.28381070      15.73058496      24.28980693      -0.00000151      -0.00002336       0.00001948
N        3.94759996      15.99195748       6.05451233      -0.00001950      -0.00003240       0.00001726
N        9.90353426      15.27092076       7.29243620      -0.00001053      -0.00002797       0.00001199
N        2.42299917       8.78175104       1.36129277      -0.00000287       0.00000651       0.00000584
N        2.13388792      15.19542539      26.24366463      -0.00002224       0.00000213       0.00002160
N        8.66036972       9.43889370       5.61835139      -0.00002401      -0.00003401       0.00001357
N        1.79671989       8.57889092       6.89200290       0.00002132       0.00001727       0.00000328
Pb       6.07144830       5.93489879       9.53239809      -0.00001549       0.00000406      -0.00000796
Pb      25.27603805       5.83902021       9.83259986       0.00000771      -0.00001084       0.00000398
Pb       6.06148081      12.36212804       3.05657784       0.00000388       0.00000426      -0.00000136
Pb       6.11745007       6.07142305       3.16259092       0.00001257       0.00000620      -0.00000700
I        9.25709303       5.78754161      10.33233667       0.00000592      -0.00000197      -0.00000557
I        2.84165798      18.35618426       8.96483982      -0.00000756       0.00000474      -0.00000147
I        2.94258514       6.22089676       4.01917903      -0.00000409      -0.00000157       0.00000555
I        9.34924744       5.99204655       2.82726204      -0.00000640      -0.00001402      -0.00000245
I        6.14563241      15.48644457       9.22254350       0.00000030       0.00000480       0.00000519
I        5.89347564       9.06325645      22.01082590       0.00000262      -0.00000465      -0.00000354
I        6.11150849       9.21745032       2.90185501       0.00000139      -0.00000156      -0.00000427
I        6.01566552      15.59720991       3.02877569       0.00000090      -0.00000737      -0.00000325
I        5.26353172      18.84978994      25.38392132       0.00000133      -0.00000038       0.00000229
I        0.41562744       5.73496862       0.29197514       0.00000437      -0.00000715      -0.00000680
I       24.65033605       5.71870821       6.67406965      -0.00000416       0.00000648       0.00001439
I        6.74407881       6.19253925       6.34472186      -0.00000475       0.00000253      -0.00001265
H        1.94269710      10.42001606       0.21264107       0.00001655      -0.00001180      -0.00000140
H        3.66086327      14.06580021      25.43800460      -0.00000176       0.00000593       0.00001020
H        2.98114280      14.26415020       5.48532870       0.00000724       0.00000263       0.00001365
H        2.70333161      10.35804225       7.39856378      -0.00000053      -0.00000055       0.00000570
H        3.58234199      10.03935269      -1.37917003       0.00001169       0.00000045      -0.00000439
H        4.02758692      15.48652979      23.62927246       0.00001592      -0.00000788      -0.00000421
H       10.26658285       8.62345845       8.30377218       0.00000711       0.00000255       0.00000312
H        4.37063296      10.19313794       5.79021810       0.00000436      -0.00000329      -0.00000412
H       10.77445588      16.67040817       0.15154998      -0.00001155      -0.00001903       0.00000379
H       10.40776767       9.74507246      26.28813985       0.00000563       0.00000868      -0.00000654
H        8.96378403       7.71194625       7.55316091       0.00000306       0.00000017      -0.00000368
H        3.76504295       8.65830385       5.17529749      -0.00000595       0.00002612       0.00001793
H        8.73090522      16.14876379      -1.22559545      -0.00000009      -0.00004955       0.00001268
H        9.12544501      10.36293688      24.21025380       0.00000644       0.00001393      -0.00000395
H        7.98147335       8.68657704       5.48888497       0.00002942       0.00001713       0.00001413
H        9.40072729      16.81825543       5.23269056      -0.00000209       0.00000161       0.00001322
H        1.67420540       8.98776633       2.02874377      -0.00000394      -0.00001620       0.00002325
H        7.81535899       9.30071242      23.77415061      -0.00000110       0.00000419      -0.00002077
H        1.33509991      14.41310077       7.11466414       0.00002937       0.00001175      -0.00000350
H        8.14979424      15.76567792       4.61707937      -0.00001182      -0.00001573       0.00000288
C        2.60684255       9.55762476       0.31850441      -0.00002381       0.00001457       0.00000188
C        8.81808205       8.75085051      25.45137600       0.00001253       0.00001136       0.00000002
C        9.49397076       9.45973709       6.63285368       0.00000036       0.00000913       0.00000438
C        9.03547157      15.11675598       6.31980665       0.00000978       0.00002789      -0.00000264
N       10.51775344      15.83157551       0.67177848      -0.00001181       0.00003258      -0.00005181
N        9.76208083       8.95048862      26.34064892      -0.00001635      -0.00000742      -0.00000817
N        9.55890430       8.54131032       7.56872799      -0.00001058      -0.00001189       0.00000477
N        3.68297475       9.43685421       5.83305363       0.00002788      -0.00001372      -0.00003655
N        8.62685188      15.34472013      -0.59858596      -0.00001234       0.00005183      -0.00003091
N        8.58461422       9.52188833      24.41472931       0.00000209      -0.00002180       0.00003103
N        2.04180592      15.15240273       7.09357341      -0.00005107      -0.00001122       0.00001701
N        8.86965178      15.95203949       5.32105142       0.00001474       0.00000669      -0.00001396
Pb      25.24546202      12.27339064       9.85042793       0.00000361       0.00000454      -0.00000478
Pb       6.02985315      12.30262703       9.40658381      -0.00000202      -0.00000143      -0.00001013
Pb      25.33975687       5.96275984       3.50485909      -0.00000738       0.00000634      -0.00000918
Pb      25.25789483      12.31697839       3.48583477      -0.00000471      -0.00000705      -0.00000352
I        2.85748080      12.17898854       9.85966957      -0.00001307      -0.00000218      -0.00001039
I        9.26967365      12.27336615       9.30767864       0.00000156      -0.00000729       0.00001396
I        9.23017927      12.41661877       3.52275893      -0.00001234       0.00000095      -0.00001071
I        2.82538257      12.37733957       3.00864069       0.00000859       0.00000325      -0.00000610
I       25.20616212       9.03508600       9.86667676       0.00000115       0.00000289      -0.00000676
I       25.18709093      15.36052681      22.77771520      -0.00000808      -0.00000450      -0.00000675
I       -0.23647865      15.43363087       3.62954273       0.00000342       0.00000218       0.00000200
I       25.20672108       9.13537842       3.75795496       0.00000566       0.00000232      -0.00000936
I       12.06247848      12.01210104       0.29711814       0.00000692      -0.00001214       0.00000281
I        6.18594999      12.43553964      25.27477447      -0.00000552      -0.00000110      -0.00000650
I        5.79780896      12.39258306       6.22822508      -0.00000688       0.00000177      -0.00000673
I       25.50522046      12.27545875       6.67703513       0.00000323       0.00000101       0.00001133
H        9.19575005      14.17714156      13.70490585      -0.00001285      -0.00003081       0.00003350
H        8.25344390       7.92671509      12.88662940       0.00000879       0.00000547       0.00000134
H       10.10685766      10.25441817      19.40178115      -0.00001228      -0.00001240      -0.00000021
H        8.32369541      14.17653371      19.03701864      -0.00001322      -0.00000492      -0.00000064
H       11.02329355      15.54148425      14.17623068      -0.00002511       0.00001293      -0.00003332
H        9.93732020       8.33616832      14.41417851      -0.00000834       0.00000401       0.00000481
H        4.55312696      15.83609074      17.99695551       0.00000283      -0.00000375      -0.00000888
H        9.87560493      14.51434306      20.72468792       0.00000058       0.00000509      -0.00000205
H        4.09985388       8.53843564      12.11996445       0.00001586      -0.00001827       0.00000393
H        2.84918637      16.64205678      11.40673441       0.00000268       0.00000530      -0.00001642
H        3.93392763      16.76086004      19.35673158       0.00000777       0.00001282       0.00000540
H       10.46006433      16.02375802      20.02917945      -0.00000838      -0.00000908       0.00001239
H        2.90956798       7.90170497      14.23741832      -0.00001519       0.00002740       0.00000714
H        1.60220093      16.06899452      13.51680082       0.00000096       0.00000840      -0.00000172
H        1.90763944      15.85733174      20.47769604      -0.00000143      -0.00001734      -0.00001989
H        1.68647443       7.68635227      19.01521469       0.00000580       0.00000791       0.00000695
H        7.76278256      14.65734750      11.95681291       0.00001508       0.00001856      -0.00001083
H        2.11578175      14.58776493      14.32353409       0.00000087       0.00000107       0.00000448
H        8.60410625      10.15058632      17.63231044       0.00000184       0.00000421       0.00000113
H        1.02069307       8.64377103      20.32869280      -0.00001188      -0.00000724       0.00000535
C        9.38768233      15.05316015      13.07845216       0.00007983       0.00003607       0.00001187
C        3.12394782      15.01365500      12.63134123      -0.00001256      -0.00005079       0.00003772
C        2.91154430      15.05477449      18.88249507      -0.00001294      -0.00000920       0.00000419
C        2.64907946       9.44148338      19.42862277      -0.00000412      -0.00000154      -0.00000466
N        3.44217624       9.32407793      12.09063237      -0.00004537       0.00000971       0.00004800
N        3.36184220      15.78015749      11.59300232       0.00000464       0.00000167      -0.00001087
N        3.86963970      15.94231603      18.75136335       0.00000192       0.00000161       0.00000115
N        9.82555244      15.22132656      19.98926836       0.00000398       0.00002136      -0.00000692
N        2.34522441       8.73191016      14.05799311      -0.00001841      -0.00001702       0.00004394
N        2.21172548      15.24518568      13.54679832       0.00002250      -0.00000927      -0.00000507
N        8.58230758       9.38924080      18.31526259      -0.00002028       0.00002281      -0.00003828
N        1.71875729       8.52921863      19.58893937       0.00000243      -0.00000970      -0.00001451
Pb       5.99349870       5.88522272      22.22920638       0.00000506      -0.00000209      -0.00000554
Pb      25.19804190       5.78934853      22.52946770       0.00000575      -0.00002523       0.00000686
Pb       5.98348361      12.31246727      15.75342925      -0.00000082       0.00000788       0.00000950
Pb       6.03943301       6.02176507      15.85942260       0.00000226       0.00000411       0.00000727
I        9.17915148       5.73787957      23.02918707      -0.00000273      -0.00000155      -0.00001502
I        2.76366134      18.30654506      21.66159252       0.00000408       0.00000296       0.00000689
I        2.86462095       6.17120878      16.71610691      -0.00001020      -0.00000929       0.00000114
I        9.27124838       5.94227355      15.52409564       0.00001500       0.00000159      -0.00000272
I        6.06758954      15.43677906      21.91937132       0.00000699       0.00001502       0.00000753
I        5.97144957       9.11292661       9.31398057       0.00000980       0.00000439      -0.00000314
I        6.03355775       9.16779505      15.59875109       0.00000114       0.00000690      -0.00001140
I        5.93763574      15.54755606      15.72557127       0.00000120      -0.00001611       0.00000729
I        5.34152345      18.89939457      12.68709239       0.00000161       0.00000484      -0.00001431
I        0.33762083       5.68522999      12.98881108       0.00000420      -0.00001409       0.00000494
I       24.57233997       5.66906108      19.37092615       0.00000816       0.00000611       0.00000925
I        6.66612681       6.14285629      19.04153955       0.00000114       0.00000622      -0.00001730
H        1.86462528      10.37038159      12.90975479      -0.00001481       0.00000280       0.00000062
H        3.73875260      14.11546195      12.74137537      -0.00001290       0.00002299       0.00000388
H        2.90324402      14.21448835      18.18214061       0.00000258      -0.00000041       0.00000465
H        2.62536348      10.30839258      20.09542256       0.00000700      -0.00000231       0.00000692
H        3.50403429       9.99013450      11.31758375       0.00000811       0.00001322      -0.00001011
H        4.10566932      15.53602832      10.93255371       0.00000762       0.00000545      -0.00002394
H       10.18865873       8.57388863      21.00062503      -0.00000255      -0.00000526       0.00000978
H        4.29259344      10.14348233      18.48699949       0.00000744      -0.00000064       0.00001273
H       10.69639231      16.62078234      12.84818509       0.00002121       0.00000581      -0.00000028
H       10.48576216       9.79456124      13.59130758       0.00000458       0.00000276       0.00000346
H        8.88589713       7.66229853      20.25004989       0.00001028       0.00002199      -0.00000125
H        3.68698823       8.60863240      17.87213183      -0.00000019       0.00001180       0.00000684
H        8.65274040      16.09892789      11.47128614      -0.00000141       0.00001155      -0.00002104
H        9.20348663      10.41256943      11.51344025       0.00001491       0.00002361      -0.00000509
H        7.90345624       8.63688059      18.18581405      -0.00000597      -0.00000928       0.00000637
H        9.32264785      16.76856433      17.92946235       0.00001940       0.00002267      -0.00000334
H        1.59652812       8.93774637      14.72561001       0.00001195      -0.00000598      -0.00000566
H        7.89333995       9.35043259      11.07729591       0.00001754       0.00000880      -0.00000233
H        1.25726066      14.36328302      19.81154979       0.00000465       0.00000045       0.00000460
H        8.07174396      15.71591598      17.31392280       0.00000191       0.00000694       0.00001257
C        2.52884135       9.50801082      13.01533396       0.00005779      -0.00000543      -0.00006323
C        8.89602542       8.80045994      12.75450557      -0.00000328      -0.00002017       0.00002553
C        9.41593987       9.41013196      19.32973619       0.00002630      -0.00000866       0.00003280
C        8.95747516      15.06709719      19.01666243      -0.00000237      -0.00001371      -0.00000680
N       10.43976243      15.78200643      13.36853704      -0.00006012      -0.00005776       0.00001839
N        9.84003500       9.00000874      13.64378673       0.00000433       0.00002068      -0.00001648
N        9.48095906       8.49170426      20.26560494      -0.00000076      -0.00001236       0.00000726
N        3.60494465       9.38719328      18.52987889       0.00000131      -0.00001072      -0.00001921
N        8.54874759      15.29496853      12.09840715      -0.00002841      -0.00000192      -0.00001069
N        8.66260158       9.57155004      11.71788833      -0.00002848      -0.00001779      -0.00000119
N        1.96394027      15.10260990      19.79047610      -0.00000421       0.00001843       0.00000847
N        8.79160942      15.90233142      18.01787333      -0.00000796      -0.00002826       0.00001548
Pb      25.16749310      12.22370783      22.54729298      -0.00000331      -0.00000825       0.00000132
Pb       5.95182712      12.25295663      22.10345416       0.00000108      -0.00000732      -0.00000879
Pb      25.26182486       5.91305948      16.20172159       0.00000451       0.00000563      -0.00000682
Pb      25.17995869      12.26729263      16.18269140      -0.00000357       0.00000323       0.00000479
I        2.77949571      12.12913374      22.55671758      -0.00001194       0.00000163      -0.00000785
I        9.19165946      12.22376190      22.00455693      -0.00000116      -0.00000619       0.00000102
I        9.15217065      12.36697124      16.21962100      -0.00000518      -0.00000240      -0.00000618
I        2.74740943      12.32769991      15.70539085      -0.00000279       0.00000486      -0.00000535
I       25.12808249       8.98539430      22.56352569       0.00000193       0.00001820       0.00000142
I       25.26496514      15.41021672      10.08091385       0.00000116      -0.00001386      -0.00000940
I       -0.31435787      15.38394160      16.32660528       0.00000104      -0.00001975      -0.00000501
I       25.12894535       9.08568391      16.45470178      -0.00000050       0.00001777      -0.00000367
I       11.98447546      11.96233303      12.99395435      -0.00000011      -0.00001062       0.00000856
I        6.26379627      12.48513270      12.57792344       0.00000215       0.00000514       0.00000265
I        5.71977756      12.34291454      18.92508002      -0.00000087       0.00000667      -0.00000452
I       25.42729180      12.22570879      19.37389580       0.00000894      -0.00000326       0.00002102
H        9.29325305       1.50469140       0.99660435      -0.00000226       0.00000438       0.00000211
H        8.15588823      20.59923629      25.59505224      -0.00000261       0.00000821       0.00000068
H       10.16519309      23.02616125       6.71647963      -0.00001023      -0.00001934      -0.00001224
H        8.42141359       1.50404637       6.32857690      -0.00002252       0.00000502       0.00000335
H       11.12088186       2.86889045       1.46803979      -0.00002011       0.00000691      -0.00003803
H        9.83972381      21.00891664      27.12258842      -0.00000528      -0.00001003      -0.00000144
H        4.65083020       3.16360220       5.28868540       0.00000022       0.00000779       0.00000553
H        9.97320324       1.84165778       8.01640130       0.00000624       0.00001693      -0.00002573
H        4.15818669      21.31023269      -0.56539348      -0.00000409       0.00000262       0.00000360
H        2.79105445       3.87018834      24.09192549      -0.00001708       0.00000611       0.00000758
H        4.03158704       4.08841009       6.64841582       0.00001053       0.00001988       0.00000386
H       10.55772683       3.35114008       7.32109162      -0.00001105      -0.00001712      -0.00000113
H        2.96791152      20.67356537       1.55208811       0.00000518      -0.00001104       0.00001163
H        1.54393568       3.29746940      26.20203586       0.00000387      -0.00000237      -0.00000440
H        2.00523822       3.18493165       7.76931467      -0.00000796      -0.00000788      -0.00000810
H        1.74494476      20.45811371       6.32969654       0.00000410       0.00001105       0.00000441
H        7.86046816       1.98499000      -0.75161593      -0.00002924      -0.00002181      -0.00001372
H        2.05737818       1.81629404      27.00895296       0.00000445       0.00000275      -0.00001073
H        8.66251905      22.92248612       4.94692771       0.00000062      -0.00000222      -0.00000170
H        1.07905123      21.41547936       7.64316340      -0.00002594       0.00000891       0.00001934
C        9.48530545       2.38068639       0.37015198       0.00003277       0.00000321      -0.00001057
C        3.06565310       2.24191980      25.31676199      -0.00001045       0.00000003       0.00002186
C        3.00919653       2.38233006       6.17417174      -0.00001781       0.00000868       0.00002355
C        2.70742794      22.21329169       6.74317312       0.00002138       0.00001556      -0.00000498
N        3.50049651      22.09586503      -0.59475226      -0.00000730       0.00002003      -0.00000824
N        3.30364467       3.00827997      24.27834013       0.00002150      -0.00000680      -0.00003022
N        3.96730671       3.26985917       6.04305664       0.00000037      -0.00001123       0.00000732
N        9.92321473       2.54871834       7.28104791       0.00003213       0.00002417       0.00003502
N        2.40355528      21.50375393       1.37263167      -0.00001988       0.00001333       0.00001618
N        2.15340857       2.47362361      26.23215276       0.00000749      -0.00002327       0.00001493
N        8.64065993      22.16110457       5.62983932       0.00000143       0.00001406      -0.00001253
N        1.77714442      21.30097877       6.90343025       0.00001228      -0.00002125      -0.00000341
Pb       6.05178018      18.65703446       9.54384902       0.00000949      -0.00000002      -0.00000052
Pb      25.25638130      18.56114918       9.84407638      -0.00001234       0.00000600       0.00000808
Pb       6.04182216      25.08427229       3.06799326      -0.00000808       0.00000223       0.00000608
Pb       6.09776632      18.79356220       3.17402972      -0.00001218      -0.00001380      -0.00000383
I        9.23742705      18.50961099      10.34385624      -0.00000875       0.00000493      -0.00000026
I        2.86132505       5.63404542       8.95335319      -0.00000208      -0.00000061       0.00000200
I        2.92295202      18.94300810       4.03073493      -0.00001271       0.00000199      -0.00000009
I        9.32955523      18.71414866       2.83868487       0.00001786       0.00000091      -0.00000784
I        6.16535183       2.76430805       9.21104074       0.00000545       0.00000218       0.00000181
I        5.87382303      21.78540524      22.02225523      -0.00000140       0.00000026      -0.00000342
I        6.09188595      21.93959712       2.91335075      -0.00000403       0.00000797      -0.00001220
I        6.03542946       2.87507776       3.01735717      -0.00000291      -0.00000019       0.00000231
I        5.28339261       6.12747616      25.37246413      -0.00001136       0.00000187       0.00002142
I        0.39618205      18.45693610       0.30343242      -0.00000081      -0.00000104       0.00002001
I       24.63071238      18.44072257       6.68554065      -0.00000303       0.00000796      -0.00000567
I        6.72440673      18.91467656       6.35615750      -0.00000360      -0.00000548       0.00001136
H        1.92292047      23.14216602       0.22432303       0.00000349      -0.00000723       0.00000777
H        3.68039266       1.34369987      25.42693398      -0.00000025       0.00001193      -0.00000920
H        3.00092133       1.54202495       5.47384118      -0.00001248      -0.00002062      -0.00002373
H        2.68363729      23.08019447       7.40997944       0.00000058      -0.00001623       0.00000150
H        3.56234280      22.76189863      -1.36782344       0.00001478      -0.00001730       0.00001138
H        4.04748874       2.76403172      23.61795535       0.00000536      -0.00000651      -0.00000483
H       10.24684625      21.34555085       8.31523805      -0.00001655       0.00000023      -0.00002092
H        4.35096196      22.91537768       5.80164490       0.00002107      -0.00000030      -0.00000766
H       10.79417389       3.94818965       0.13995432       0.00001765       0.00002805      -0.00000594
H       10.38806898      22.46728895      26.29962591       0.00002046       0.00000803      -0.00000434
H        8.94407733      20.43405225       7.56455108      -0.00000337       0.00000509      -0.00000355
H        3.74545879      21.38050744       5.18672980       0.00000811       0.00001761      -0.00000463
H        8.75056484       3.42650089      -1.23707945      -0.00000600       0.00001455      -0.00001280
H        9.10576118      23.08507224      24.22170487       0.00000139       0.00000370       0.00000490
H        7.96178176      21.40878319       5.50031829      -0.00001146      -0.00001531       0.00000227
H        9.42045315       4.09620837       5.22141675       0.00002146       0.00001288      -0.00001358
H        1.65484826      21.70959595       2.04023390      -0.00000944      -0.00000650       0.00001086
H        7.79569189      22.02282001      23.78562437       0.00000977       0.00000765      -0.00000841
H        1.35487689       1.69086544       7.10318302       0.00001894       0.00002522      -0.00000629
H        8.16957500       3.04364263       4.60565984      -0.00000678      -0.00001414      -0.00000503
C        2.58715676      22.27981521       0.32994023       0.00001934      -0.00000091      -0.00003478
C        8.79840385      21.47302148      25.46287760       0.00003052      -0.00001508       0.00004283
C        9.47424473      22.18190674       6.64435529       0.00001677       0.00002602       0.00001652
C        9.05519833       2.39460978       6.30836879      -0.00000668      -0.00002718       0.00000816
N       10.53742223       3.10945051       0.66030601       0.00000704      -0.00003725       0.00006317
N        9.74239055      21.67269892      26.35215508      -0.00003953      -0.00001684      -0.00003818
N        9.53917936      21.26342893       7.58017907       0.00003238      -0.00001383       0.00004104
N        3.66334213      22.15905877       5.84447636      -0.00004046      -0.00002811       0.00000407
N        8.64646822       2.62255022      -0.60996290       0.00000774       0.00001953       0.00001157
N        8.56493495      22.24402655      24.42620745      -0.00001540       0.00001281      -0.00001978
N        2.06154999       2.43020044       7.08210627       0.00000792      -0.00000246       0.00000379
N        8.88940337       3.22996624       5.30967103      -0.00001564      -0.00000136      -0.00000274
Pb      25.22579827      24.99552490       9.86182429       0.00000251       0.00001285      -0.00000050
Pb       6.01018627      25.02476452       9.41801888       0.00000993      -0.00000475       0.00000891
Pb      25.32016607      18.68488164       3.51631622       0.00000248      -0.00000686      -0.00001189
Pb      25.23829046      25.03910656       3.49721876      -0.00001696       0.00001531       0.00000085
I        2.83783227      24.90111800       9.87115025      -0.00000268      -0.00000661      -0.00000872
I        9.25003269      24.99548119       9.31921689      -0.00001149      -0.00000493      -0.00000005
I        9.21052300      25.13879181       3.53416891       0.00000186       0.00000237      -0.00000094
I        2.80573954      25.09962394       3.01989294       0.00001295       0.00000028      -0.00000564