40
Lattice="18.02656746530751 -0.2485950027137313 0.013838457744793514 0.1519559485227924 10.559308729751328 -0.010391208293460907 -0.013542970408503793 0.009588341012580054 9.67155161448394" Properties=species:S:1:pos:R:3:forces:R:3 energy=-124.36770397829257 stress="0.0027342974600005894 2.027230822505756e-05 -2.5358229870759502e-05 2.027230822505756e-05 0.0028173876857887767 -4.6854421886831824e-07 -2.5358229870759502e-05 -4.6854421886831824e-07 0.0027170666871691278" free_energy=-124.36770397829257 pbc="T T T"
Cs       2.97334899       4.31939046       3.01939518       0.00000748      -0.00001222      -0.00000500
Cs       9.31982929      13.06842161       0.59711858       0.00002040      -0.00000764      -0.00000303
Cs       0.25231818       9.63757527       3.01158219      -0.00000271       0.00001017      -0.00000072
Cs      12.04092890       7.75015647       0.60490596      -0.00001365       0.00000283       0.00000745
Cs       2.96661157       4.32415203       7.85516997      -0.00000671      -0.00000035      -0.00000412
Cs       9.31309198      13.07319347       5.43288572       0.00000869       0.00000072       0.00000124
Cs       0.24553989       9.64243342       7.84736318      -0.00000232      -0.00001948       0.00000500
Cs      12.03411890       7.75499353       5.44069061       0.00000813      -0.00001186       0.00000547
Pb      -1.82398495       5.22628963       0.59700922      -0.00002008       0.00000088       0.00001200
Pb      14.11718531      12.16147771       3.01951330      -0.00001209       0.00003804      -0.00003706
Pb       5.07984189      10.41204117       0.59653191       0.00000453      -0.00001582       0.00001045
Pb       7.21339628       6.97573614       3.01997574       0.00003338      -0.00001208      -0.00002710
Pb      -1.83074837       5.23108480       5.43279946      -0.00002579      -0.00000571      -0.00001098
Pb      14.11044829      12.16623550       7.85528282      -0.00004562       0.00003885       0.00003434
Pb       5.07303504      10.41680165       5.43231471      -0.00000420       0.00001402      -0.00001732
Pb       7.20661927       6.98050298       7.85574477       0.00002637       0.00000260       0.00003339
I       -2.91928322       7.10810877       3.01179729       0.00000477       0.00000157      -0.00000497
I       -2.81407322      10.52822311       0.59092565       0.00000830       0.00000065      -0.00000958
I        6.22188880      12.26201456       3.01392534      -0.00000344       0.00000692      -0.00000697
I        6.07134272       5.12570682       0.60262125      -0.00000807       0.00000918      -0.00000560
I       13.08614790       3.65132447       0.60869797       0.00002144      -0.00002049       0.00001372
I       -0.79294612      13.73643349       3.00779537       0.00001341       0.00001045      -0.00000884
I        8.15786368       8.99885065       0.60138831      -0.00002423      -0.00001357       0.00000054
I        4.13535922       8.38889200       3.01508553       0.00001416       0.00000946       0.00000716
I        0.95489895       6.62839680       0.59736961       0.00000813       0.00000540       0.00000789
I       11.33829500      10.75937882       3.01908932       0.00000254      -0.00001084       0.00001396
I        2.34156222      11.89106551       0.59331848      -0.00000721      -0.00000294       0.00000279
I        9.95169585       5.49672450       3.02318405      -0.00003418       0.00000379       0.00001356
I       -2.92604032       7.11292629       7.84755992      -0.00000115       0.00000610      -0.00000912
I       -2.82084997      10.53303581       5.42664471       0.00001970      -0.00004259       0.00001398
I        6.21511964      12.26680921       7.84965254       0.00000060       0.00002108       0.00001017
I        6.06457371       5.13051726       5.43837050      -0.00002046      -0.00001507       0.00000208
I       13.07938704       3.65610908       5.44453628      -0.00000191       0.00000347      -0.00001259
I       -0.79969912      13.74123171       7.84358009       0.00000851      -0.00000962      -0.00000812
I        8.15106923       9.00364525       5.43719283       0.00000154       0.00000392      -0.00000997
I        4.12859470       8.39368323       7.85090590      -0.00000154       0.00001270      -0.00000497
I        0.94813074       6.63319251       5.43319421       0.00002002       0.00001349      -0.00000643
I       11.33153407      10.76417964       7.85491698       0.00001384      -0.00001528      -0.00001689
I        2.33476404      11.89585602       5.42906969       0.00001698      -0.00001239       0.00000989
I        9.94491688       5.50149971       7.85895617      -0.00002756       0.00001169       0.00000427
