320
Lattice="16.9595340908 -0.141067653533 0.257548964494 -0.256523645202 29.2319344236 -0.421579699905 0.522820773448 -0.471607140829 31.3828905187" Properties=species:S:1:pos:R:3:Z:I:1:forces:R:3 energy=-101584.926202 stress="617.58498 620.49463 -724.637457 620.49463 726.743594 -467.875492 -724.637457 -467.875492 -702.374977" pbc="T T T"
Cs       4.97425805       2.27715468       2.65588902       55      -0.05060500       0.24861300      -0.08026500 
Cs       4.23043930       1.83437471      11.28255147       55      -0.06657800       0.13160700      -0.45004000 
Cs       4.22133547       2.16243715      18.06553380       55       0.02617800      -0.08817300      -0.01737100 
Cs       4.67580388       1.97350221      24.92577753       55       0.03548600       0.01387300       0.06339700 
Cs       3.88791966      16.85148792       1.78128973       55       0.14399800       0.05852000      -0.01285900 
Cs       3.81666869      17.63074318       9.48903932       55       0.23498200      -0.01760100       0.04138000 
Cs       4.12613002      16.05920200      16.57464880       55       0.20181100       0.42724100      -0.10993900 
Cs       4.54163824      16.86898231      26.11462459       55       0.07993500      -0.01552600      -0.22360200 
Cs      13.11676628       2.64961112       1.82493751       55      -0.28947100      -0.37862800       0.02261300 
Cs      12.25665131       1.70453421      11.00873501       55       0.04326700       0.16572900      -0.13542500 
Cs      13.18965310       2.40154297      17.81654693       55       0.09837900       0.01350100       0.04256600 
Cs      13.38369817       1.88431978      26.50950722       55       0.17569600      -0.01700700       0.07301900 
Cs      12.54568572      16.63754798       2.44825993       55      -0.03429500      -0.02270200      -0.23248300 
Cs      12.12443939      16.74971093       9.46601712       55      -0.02211000       0.05132200      -0.15228000 
Cs      12.89202074      16.79528724      16.61668205       55      -0.02294200       0.01637500       0.13165400 
Cs      12.69985769      16.67875069      25.65883237       55       0.01971000       0.00490600      -0.12747400 
Cs       0.31364110       9.44118268       2.18730260       55       0.18980700      -0.27940700       0.05538900 
Cs      -0.16564527      10.51089888       9.45753352       55      -0.06715500      -0.03785200      -0.02675200 
Cs       0.17843269       8.96063549      17.05394390       55       0.24555900       0.74935500       0.20071200 
Cs      -0.47212271       9.56779702      25.16354597       55      -0.00973400      -0.23761700       0.04268100 
Cs      -0.39695265      24.24450519       2.08433554       55      -0.10943400      -0.26137200      -0.34245100 
Cs       0.00255555      24.27184090       9.66607843       55      -0.22822100       0.34761200      -0.11280800 
Cs       0.13081155      23.62351736      18.28406539       55       0.04317100       0.52497800      -0.31946700 
Cs       0.30309427      23.88941425      25.17634986       55       0.03396900       0.12065200       0.06588100 
Cs       7.94189453       9.04769944       2.56613676       55       0.52260700       0.49012800      -0.04453500 
Cs       8.40832080       9.45659348       9.59349008       55      -0.06364400       0.08153700       0.27911000 
Cs       8.70334431       8.94341439      17.32296132       55       0.05461400       0.03053200       0.13952300 
Cs       8.26855951       9.50832074      25.24808733       55       0.23744700       0.57496400      -0.10229600 
Cs       8.33712798      24.28952330       1.32906383       55      -0.02720800       0.10131400       0.15235000 
Cs       8.66066370      24.02093616       9.85480792       55       0.40641500      -0.18962900      -0.12254900 
Cs       8.73069165      24.37335429      17.04060215       55      -0.18554600       0.00154900      -0.25152100 
Cs       8.74610730      24.17766271      25.94949585       55      -0.20634700      -0.01582600      -0.16267500 
Cs      -0.14912581       4.22921918       5.20472133       55       0.24283700       0.49481000       0.08330600 
Cs       0.32779981       4.53450946      14.27653032       55      -0.00060600       0.23238600       0.09467800 
Cs       0.51509211       4.35130874      21.58418636       55       0.15779300       0.31618400      -0.01696000 
Cs       0.31242874       3.73866980      29.71288864       55       0.15610500       0.52603500      -0.16640900 
Cs      -0.25159765      18.98468021       5.14305487       55       0.09969500       0.14521100      -0.04108200 
Cs      -0.46249071      19.39226401      12.91416784       55       0.45138400      -0.26007100       0.13321900 
Cs      -0.01939966      18.84803752      21.24134401       55      -0.07724500      -0.13749700      -0.03798200 
Cs       0.19068904      18.19379853      29.20784523       55       0.26873300       0.19534300       0.06850300 
Cs       8.37515007       4.05634047       6.16496774       55      -0.01125300       0.14738300       0.15240700 
Cs       8.88198633       5.14197625      13.18449646       55       0.05237100      -0.46512300       0.15033700 
Cs       8.60610470       4.28159284      21.27492855       55       0.06573300       0.20569900      -0.06411600 
Cs       9.24428261       5.55677799      29.50528474       55      -0.29591000      -0.13555000       0.07604900 
Cs       7.90144481      19.46604339       5.16354769       55      -0.02924600      -0.21897700       0.10459900 
Cs       9.39680516      19.51504648      13.91278231       55      -0.57434800      -0.59276900      -0.27640900 
Cs       8.25622467      19.74194150      20.17644042       55       0.57276100      -0.71509400      -0.14590400 
Cs       8.89142547      19.19167842      30.15604462       55      -0.42384900      -0.20271200      -0.44326500 
Cs       3.88743220      11.95092397       5.74095751       55       0.64150500       0.03139000       0.03513800 
Cs       4.96775338      11.39649855      13.20089479       55      -0.06611200       0.24968400       0.04301700 
Cs       4.07925412      12.25325942      20.43852289       55      -0.02599400      -0.14695000       0.21409100 
Cs       4.31864195      11.65511354      28.99706944       55       0.30383500      -0.04193200      -0.09059800 
Cs       4.36932645      26.56413794       6.10135821       55       0.03464200      -0.14208900      -0.12643900 
Cs       4.87455205      26.25419399      14.55736411       55      -0.30010600       0.19078200      -0.13763500 
Cs       4.23621520      26.52843977      21.65231292       55      -0.03288200       0.06271800       0.03428800 
Cs       4.45871917      26.22200498      28.80397216       55      -0.10676900       0.00030700      -0.02745500 
Cs      12.62207007      12.03638501       6.21828337       55      -0.05430600      -0.16186000      -0.00605700 
Cs      12.96541054      11.37076866      14.70234891       55      -0.42474300      -0.29870200      -0.89398700 
Cs      12.28850405      11.57450290      20.58076026       55      -0.31746500       0.50526000       0.19960000 
Cs      14.01337117      11.57646922      30.12167414       55      -0.33089900      -0.11382600      -0.11642400 
Cs      12.53098528      26.91757655       5.47069284       55       0.03607400      -0.07998900      -0.05793300 
Cs      12.54830716      26.32279929      13.81030077       55       0.01824300       0.01075200      -0.06359800 
Cs      12.65311263      26.17935635      20.93034374       55      -0.23568800       0.17366100       0.15566500 
Cs      12.99332384      26.17049480      29.46743999       55       0.27906000       0.23618800       0.00967800 
Pb       0.20994333      -0.88416926       3.47062343       82      -0.21545000       1.51398700      -1.75508800 
Pb       0.07047471      -0.14874010      11.01903472       82      -0.45740000      -0.20022200      -0.05958200 
Pb       0.39944424      -0.39624423      19.95218720       82       0.27402100      -0.27993200      -0.69714600 
Pb       0.49375811       0.09399116      27.47425418       82       0.08001600      -0.44988100       0.02498500 
Pb       0.10052199      14.24678152       3.46610253       82       0.05029700      -0.01516200      -0.66170700 
Pb       0.09814670      15.33997249      11.04655359       82       0.20507200      -0.99497900       0.22268400 
Pb      -0.04755718      14.52497158      18.94248319       82      -0.83080400      -0.30693900      -0.44081900 
Pb       0.22914045      14.17936339      26.80705721       82      -0.46852400      -0.58860900      -0.73181700 
Pb       8.85749884      -0.01424593       4.31498646       82      -0.26422300       0.14564500      -0.34886800 
Pb       7.98833723      -0.14683968      12.19265608       82       0.02461100      -0.35313800       0.14075900 
Pb       9.19999231      -0.43378856      19.57931695       82       0.24927900       0.15871000       0.38262100 
Pb       9.21916520      -0.51051403      27.57929416       82      -0.17327900       0.43870100      -0.08758200 
Pb       8.70377557      14.18481076       3.26206302       82      -0.16502700       0.91501000       0.48258100 
Pb       8.07534594      14.43442077      11.10087225       82       0.07022600       0.17774700      -0.23077100 
Pb       7.95806317      14.18648732      18.86903525       82       0.51828200       0.31238000      -0.05894300 
Pb       8.49239311      14.14230943      26.61246168       82      -1.02608100       0.14487500       0.56155000 
Pb       4.51471052       7.09792980       4.47762362       82      -0.12847100      -1.03414100       0.35003800 
Pb       4.27010210       7.05158401      12.27126260       82       0.25897700      -0.44696000      -0.49665200 
Pb       4.52496275       7.39141048      20.07113974       82      -0.31313400      -0.20951100       0.23039200 
Pb       4.83895273       6.89033947      27.98054095       82      -0.20938700       0.15355000       0.01980800 
Pb       3.68715768      22.08565084       4.21803080       82       0.36965900      -0.07691700       0.07038000 
Pb       4.24526572      22.11282083      12.22155981       82      -0.27016100      -1.02194100      -0.73573500 
Pb       4.17900374      22.16313610      19.78276917       82       0.55341600      -0.38323800      -0.32594100 
Pb       4.63353514      21.61237392      27.81419113       82      -0.35472400       0.22648000       0.01833500 
Pb      12.15441787       7.57367310       4.38986772       82       0.59213800      -0.65816100       0.40651700 
Pb      13.33225292       6.88011825      12.12344993       82      -0.20575700      -0.34152600      -0.02924800 
Pb      12.70974456       7.10497329      19.80873941       82       0.26357000      -0.06551200       0.44318700 
Pb      12.78057106       7.16625114      28.26049479       82       0.20606800       0.38307500      -0.60550000 
Pb      12.73613732      21.44088588       3.52830006       82      -0.34031500       0.04580000       0.48883000 
Pb      13.00042161      21.90751276      11.53323428       82      -0.43907500      -0.69666900      -0.30539900 
Pb      12.78529063      21.62276667      19.01391150       82      -0.41153700      -0.14250500       0.33048900 
Pb      13.14509726      21.75758453      26.82959097       82       0.09630700      -0.11849500       0.60599300 
Pb       4.58450007       6.72216190       7.98917454       82      -0.17650000      -0.25694100       0.38998300 
Pb       4.54554957       6.61721786      16.11924423       82       0.50012900      -0.10151300       0.08456300 
Pb       4.70467757       7.26983068      23.99504539       82      -0.63414000       0.20358400       0.46972400 
Pb       4.79988302       6.22149307      32.04296162       82       0.34859500       0.38796500      -0.13500400 
Pb       4.32234492      22.03738427       8.31691330       82       0.07235900      -0.29461000       0.01624900 
Pb       4.31597108      21.54489280      15.55260898       82      -0.32189400      -0.98638600       0.63131500 
Pb       4.29142932      20.86278121      23.46383212       82       0.66127800       0.05598100       1.11915100 
Pb       4.34914859      21.64516088      31.61587058       82       0.11400100      -0.44175000      -0.26528700 
Pb      12.57682325       7.03632245       8.21825878       82       0.70725400       0.15612600      -0.48101000 
Pb      13.44015760       6.99543469      15.86668328       82      -0.40094400      -0.32621800       0.29791700 
Pb      13.21059074       6.19238291      24.28024406       82      -0.01412500       0.40089800       0.03889400 
Pb      13.60669640       6.85619575      31.76204351       82      -0.03355300       0.95740900       1.34396400 
Pb      12.67357250      21.57982440       7.91524979       82      -0.01317400      -0.26894300      -0.49289700 
Pb      12.65125290      21.86179689      15.11792012       82       0.53702200      -0.84195200       0.33833900 
Pb      12.50405950      21.97979486      23.48516516       82       0.54768600      -0.20115600      -0.96711900 
Pb      13.31449493      21.35663816      31.02507734       82      -0.19384500      -0.24377800       0.09213400 
Pb       8.60154503      14.12330323       7.14131398       82      -1.16749000       0.30027400       0.53930400 
Pb       9.39163980      14.07276216      14.76877274       82      -0.72247500       0.64280200       0.49823500 
Pb       8.18464323      15.06655725      22.64266766       82      -0.16337700      -0.07535100       0.04701500 
Pb       8.98664062      13.69053030      30.61077567       82       0.31707000      -0.01047200       0.20543100 
Pb       8.53757112      28.74056420       7.88990464       82      -1.01720900      -0.02669600      -0.73830800 
Pb       8.40367004      28.60887851      15.41342916       82      -0.13166600       0.73011200       0.42980500 
Pb       8.57663598      29.13704878      23.04995782       82      -0.16018600      -0.65644100      -0.11591600 
Pb       8.94158859      28.97571217      30.98367208       82      -0.39717500       0.12893800      -0.01960500 
Pb      16.88887719      14.80674831       7.55450312       82       0.10318100      -0.44465400       0.06490000 
Pb      17.17703455      14.53022416      15.17471971       82       0.51356100      -0.56604400       0.54781100 
Pb      16.40849862      14.09952513      23.15489121       82      -1.00428900      -0.90225200       0.60720100 
Pb      17.75472347      13.59825156      31.03819523       82      -0.12841300      -0.01818800       0.37965400 
Pb      17.21863945      28.84104550       6.70633051       82       0.30003500       0.09227600       1.35138000 
Pb      16.12958173      28.69937602      15.05452283       82       0.37193900      -0.35144500       0.93129500 
Pb      17.22551723      29.07464773      23.65712613       82       0.54504700      -0.55112700      -0.00417300 
Pb      17.28731355      28.74260418      30.97008612       82      -0.33806600      -0.51746000       0.33640300 
I       2.56241052       0.95225706       5.18630047       53      -0.00198800      -0.36322800      -0.67927400 
I       1.55646570       1.20662637      14.11141999       53       0.23508400      -0.19591100      -0.62077900 
I       2.89629635       0.89418406      21.57804317       53      -0.06813200       0.12565800       0.14407500 
I       2.86842860       0.55962954      29.46406458       53       0.22370700       0.22938700      -0.05103200 
I       2.06533418      15.96337244       5.11337682       53      -0.08104800       0.01583700       0.33497100 
I       2.60260924      15.91709642      12.71553597       53      -0.28449000       0.25311000       0.21996700 
I       1.57537983      15.18923796      21.34026794       53       1.08074000       0.45945900      -0.43289100 
I       2.55578084      15.19839896      28.33416660       53       0.21048200       0.01023200       0.92917700 
I      10.97305428       0.91376785       6.96079770       53       0.38510500       0.35295700      -0.31694200 
I      10.33766547       1.27423251      14.29004748       53      -0.14099500       0.27554700      -0.86893700 
I      10.65695746       1.47490145      21.95266848       53       0.72589600       0.08159800      -0.79308900 
I      11.14582349       1.42267316      29.76169112       53      -0.17630300      -0.36904300      -0.16713000 
I      10.72300721      15.41685496       5.89434644       53       0.91761800       0.39586400      -0.59647300 
I      10.37230052      16.03122958      12.64236034       53       0.22538500      -0.11623400      -0.07713500 
I      10.36325097      15.54758317      20.48012972       53      -0.36290100      -0.02881800       0.25000500 
I      10.89221881      15.00638806      28.22939021       53       0.20097200      -0.04933200       0.41706500 
I       6.95189254       8.37699332       6.34883230       53      -1.04117000      -0.35062800      -0.16261100 
I       7.02227519       7.86586778      13.94939047       53      -0.87556300       0.25598200      -0.01307000 
I       6.40996769       8.67698450      22.06026014       53       0.46892200       0.26206400      -0.56737400 
I       6.86488092       8.11880959      30.73701496       53      -0.01252400       0.19099300      -0.49907000 
I       6.07035829      23.02977027       6.08582821       53       0.35311800       0.15195400       0.01211900 
I       6.39198486      22.88587088      14.09957067       53       0.88545200       0.35356200       0.18544800 
I       6.98551681      22.21429256      21.88259886       53      -0.91141200       0.35152000       0.37703900 
I       7.15969123      22.71977400      29.59659243       53      -0.43067600      -0.10788600       0.16605600 
I      14.87818729       8.89378623       6.30408166       53      -0.36062200      -0.31341600       0.50442100 
I      15.27002595       8.52282416      14.08888623       53       0.42105900       0.11489600      -0.27749000 
I      15.51261765       7.54166531      22.36742273       53      -0.61942900      -0.25310700       0.16829800 
I      15.61476194       8.16259305      29.93509413       53      -0.10081800      -0.16766600      -0.36553700 
I      14.98751656      22.89866217       5.71436317       53      -0.48972100      -0.27302600      -0.23212800 
I      15.21544272      22.46894582      13.32569979       53       0.14767000       0.41182800      -0.11613200 
I      14.87282035      23.51478894      21.22065640       53      -0.51718200      -0.65700400       0.00326200 
I      14.85292063      23.08862147      29.13543036       53       0.34273300       0.08886800      -0.31362800 
I       2.21822305       5.43577093       2.47502386       53       0.17663700       0.22629000       0.34593200 
I       2.71134736       5.21364587      10.33064135       53       0.11569900       0.18441300       0.07766600 
I       2.27218314       5.74472444      17.81924106       53       0.45878400      -0.09084500       0.28744100 
I       2.58555774       5.87138142      25.90833286       53       0.33607700       0.08852000       0.29828700 
I       1.67375525      20.93133611       2.33999183       53      -0.13493500      -0.02449900      -0.20288700 
I       1.77920129      21.39239739      10.25095621       53       0.59361700      -0.44144200       0.14362600 
I       1.89960750      20.69540801      18.64263060       53       0.24439500      -0.17502800      -0.02253200 
I       2.30577834      20.64329020      26.12960510       53      -0.25767300      -0.14210700      -0.29504000 
I      10.76992962       6.03816346       2.32454808       53      -0.31009900       0.27551900      -0.28334800 
I      10.96829498       5.80657407      10.39735785       53      -0.33164600      -0.27337000       0.10874000 
I      11.26387476       5.55336381      17.63991291       53      -0.25942600       0.04755500       0.20384100 
I      11.18572857       4.39500886      26.43913814       53      -0.03303000       1.13636700      -0.11774800 
I      10.62410266      20.11100896       1.24742012       53       0.56804600       0.29607800       0.55741900 
I      10.71603639      20.06747747       9.89754668       53       0.30142500       0.65274000      -0.33280600 
I      10.58145209      20.12386034      17.18759786       53       0.53049900       0.45430000       0.03125900 
I      10.80886655      20.09647424      24.94369929       53       0.07718100       0.20080800       0.30855700 
I       6.78269257      12.77891388       1.66613222       53      -0.46225100      -0.16851500      -0.56745300 
I       6.02092007      13.16166421       9.08346739       53       0.06402300      -0.13861000       0.18105700 
I       7.22561112      12.20164943      16.62509296       53      -0.13290200       0.20478100       0.03461000 
I       5.50402153      13.46475945      25.26202508       53       0.57695800       0.32798000      -0.03642300 
I       6.24098382      28.30241174       1.91521697       53       0.34604500      -0.11192400      -0.06511200 
I       5.95220042      27.56357228       9.27887987       53       0.15744400       0.24906200       0.48905500 
I       6.67561842      27.44483779      17.72997529       53      -0.15372500      -0.82533300      -0.75881700 
I       6.97703612      27.51603642      24.95161402       53      -0.44661900      -0.46753000       0.87995100 
I      15.24695820      12.20159903       1.89778945       53       0.53551200       1.00937500      -0.43190100 
I      14.37638072      14.06539692       9.96778686       53       0.59123300      -0.36825600      -0.40426700 
I      14.95580629      12.72817899      16.85720858       53       1.27342600       0.84791900       0.33896800 
I      14.69229632      12.64136894      25.81506370       53      -0.21129000       0.19236900      -0.05833000 
I      14.11122229      27.63965039       1.52825585       53       0.66266600       0.13504900       0.29735000 
I      14.77182447      27.35722435       8.83130183       53       0.33855700       0.46973200       0.18489500 
I      14.55291977      27.77925565      18.39903489       53       0.10805000      -0.06007200      -0.19029400 
I      14.95154898      28.22773884      25.49215305       53       0.20106600      -0.32825000      -0.26850000 
I       6.43878807       0.26465352       6.15552375       53       0.10902500       0.82717700       0.10392300 
I       5.96291103       0.88846146      14.20301163       53       0.07986400      -0.31817800       0.33413500 
I       6.73267288      -0.08197806      20.98542025       53      -0.65536500       1.07534200       1.29556100 
I       7.10649092       1.25143030      29.75697349       53       0.01588300      -0.44712800      -0.16582200 
I       6.57935082      15.94092008       5.05988771       53      -0.07639300      -0.25819400      -0.00073400 
I       6.56904239      15.24340544      13.71068974       53      -0.13218900      -0.12735000      -0.15719900 
I       5.84802294      15.74901577      20.54897439       53      -0.01756700      -0.03206800      -0.36230200 
I       6.99179568      15.35615374      29.27021527       53      -0.43908200       0.18713600       0.04590700 
I      15.46194963       0.93001693       5.58921219       53      -0.90015000      -0.15932400      -0.19804300 
I      14.04971186       0.60303505      14.35012363       53      -0.05685200      -0.03748600      -0.25025600 
I      15.71404444       1.16784546      22.19176557       53      -0.77826400       0.24457600      -0.17717700 
I      15.00999606       0.79432784      29.83665185       53       0.21735900       0.03475100      -0.13284400 
I      14.62553621      14.93719354       5.14463743       53       0.09989500       0.14457300       0.29636300 
I      15.00052300      15.44881140      13.62315771       53      -0.70498500       0.46798100      -0.30456100 
I      14.41672868      15.52082409      20.80312953       53       0.34095600       0.15952100      -0.04361900 
I      15.35573896      14.78350322      29.43559113       53      -0.08051400       0.39617200       0.19870000 
I       2.00422399       7.71241586       6.19857456       53       0.19083100       0.38803000       0.11453600 
I       2.85540763       8.48412853      14.51575533       53      -0.55102700       0.18031700      -0.53132100 
I       2.32031500       8.68093750      22.07896882       53       0.45041100      -0.32634700      -0.08525200 
I       2.83338071       7.61211967      30.14530106       53      -0.55133900       0.20430800       0.15699000 
I       2.14881339      23.68524779       6.78119335       53       0.15715700      -0.29109200      -0.05062500 
I       1.96612340      23.31543896      14.00002458       53       0.35423700      -0.03043900       0.11058400 
I       2.80008206      23.18182377      22.30153676       53      -0.52882900       0.16036600      -0.47498200 
I       2.27128575      22.95543269      30.01092802       53      -0.18413200       0.15378300      -0.22587000 
I      10.35098977       8.60991040       6.69036925       53       0.55846200      -0.07036300       0.22521200 
I      10.61149647       8.21800681      14.33946341       53       0.96062200      -0.19749000      -0.01638000 
I      10.55518531       8.50554588      21.44655421       53       0.15881500      -0.34805000      -0.25143400 
I      11.34175251       9.17440488      30.24478804       53       0.16619200      -0.76017400      -0.09680800 
I      10.10065487      22.36037051       5.23650526       53       0.70638400      -0.06916600      -0.00742000 
I      10.25587348      22.80331717      13.34665391       53       0.27722000       0.47783700      -0.22278400 
I      10.17981475      23.10924512      19.83081963       53       0.78850100      -0.17479800       0.28710800 
I      10.76305378      22.44994252      28.42292940       53       0.29116000      -0.16258300       0.23579000 
I       6.78284375       5.87076022       2.43329685       53      -0.44706800      -0.47393600       0.20206000 
I       7.07880536       5.64925345       9.87434520       53      -0.50053600       0.31667600      -0.15313700 
I       6.68335095       6.03552554      18.38112766       53       0.25800800      -0.38811600       0.02195800 
I       7.21322491       6.44205204      26.22128008       53       0.02456000      -0.50776700      -0.28359900 
I       5.69719537      20.54228074       2.25442031       53       0.17177600      -0.01136200       0.22684400 
I       6.67013325      20.36932934      10.34944598       53      -0.57983200       0.40759200      -0.29461800 
I       5.96408753      19.73459080      17.58749661       53      -0.43470100       0.45103800      -0.11644500 
I       6.23239750      19.90463971      26.17042308       53       0.46885800       0.29795800      -0.43841800 
I      14.68369934       5.66296928       2.38430927       53       0.41525200       0.30285000      -0.16307000 
I      14.79766484       5.15091145      10.11481261       53       0.04113800       0.29979700      -0.06454100 
I      15.76151149       5.83718828      17.89120917       53      -1.16172400      -0.24126900      -0.11378900 
I      15.13521197       5.42836305      26.55351067       53      -0.10095400       0.26246300      -0.17477600 
I      15.01006099      20.56758326       1.34242593       53      -0.36884700       0.24202100      -0.07069900 
I      15.21610074      20.85465521       9.61731761       53      -0.66327800       0.05709200      -0.26155100 
I      14.71621592      20.07373502      16.59887851       53      -0.17340600       0.27001900       0.21800400 
I      15.09230168      20.52994008      24.15534311       53      -0.34876100       0.22160700       0.24788600 
I       2.48829680      12.80646376       1.37865614       53      -0.19299600       0.29343900      -0.12773700 
I       2.23913452      13.74286519       9.22127786       53      -0.58496400       0.36236300      -0.28213000 
I       2.26753044      13.06860243      16.99324752       53      -0.08387300      -0.07998100       0.28641800 
I       1.47384027      12.36381171      24.29609387       53       0.11400900       0.55872700      -0.08417800 
I       1.60126866      27.13033224       0.70822622       53      -0.08348800       0.29250100       0.07052200 
I       1.99049363      27.88428692       9.31148561       53       0.37294400      -0.49410300       0.02514100 
I       2.20048541      27.07621806      17.73820304       53      -0.21426500       0.27408900       0.06857600 
I       2.37499999      27.46903067      25.23386465       53      -0.17592000       0.34355700       0.09597000 
I      10.85957237      13.36429560       1.51428805       53       0.69589600      -0.41726800      -0.45403600 
I      10.27575867      12.84618858       9.29666499       53       0.19840400      -0.04407500       0.08245300 
I      11.31336919      13.45270662      16.98633485       53      -0.13526600      -0.13795200       0.40706200 
I       9.90194063      13.30440940      24.27753152       53       0.89498200      -0.50900400      -0.40935900 
I      10.26991202      28.20082469       1.50785219       53       0.69437500      -0.41179900       0.35966200 
I       9.92060473      27.74955338      10.19326117       53       1.13218400      -0.62137500       0.40312000 
I      11.07007197      28.48726964      16.96760097       53       0.13234400      -0.58964800      -0.28764100 
I      11.23719902      28.03888918      25.40187747       53      -0.40778200      -0.04365500      -0.05545700 
I       3.84076369       4.37132088       6.14844343       53       0.54306100      -0.11027800       0.17005500 
I       4.02475811       4.21029051      14.27988732       53       0.13739100       0.26248900      -0.16870300 
I       5.16100377       4.70619811      22.16698541       53      -0.31657500      -0.04077600      -0.11507400 