320
Lattice="17.8859352961 0.0521728186935 -0.335283407631 0.139699344397 30.1863863598 -1.50444129742 -0.525175093672 -1.63870827695 31.6709591289" Properties=species:S:1:pos:R:3:Z:I:1:forces:R:3 energy=-101586.465906 stress="-3971.328876 317.253184 -1058.689018 317.253184 -743.641845 -140.131948 -1058.689018 -140.131948 -1047.249166" pbc="T T T"
Cs       4.60617121       2.29343028       2.23265514       55      -0.08102000      -0.27343400      -0.25760200 
Cs       4.54897348       2.63597909       9.46133660       55       0.15420200      -0.18795100      -0.03894600 
Cs       5.87724197       2.36972646      18.46659463       55      -0.50035700      -0.09166100       0.05013500 
Cs       4.26448512       1.26374759      26.29336322       55       0.08053700      -0.22526800      -0.03522800 
Cs       4.13012450      17.98310419      -0.23637014       55      -0.05863500      -0.00860300       0.21852700 
Cs       4.95584097      16.86963676       9.42132159       55      -0.10763200      -0.12699400      -0.20579600 
Cs       3.34993409      16.69505293      17.35967034       55       0.16336100      -0.12999700      -0.05430400 
Cs       3.49579503      16.06119965      24.65316461       55       0.13596200       0.12092300       0.12042600 
Cs      14.19134540       2.60114242       0.77873095       55      -0.24083900       0.32086100       0.64513900 
Cs      13.73431645       2.49176888       8.96403164       55      -0.11786900      -0.08444000       0.06524200 
Cs      13.44533117       1.71352907      17.03455830       55       0.00865600      -0.32517900       0.14145500 
Cs      13.67962818       0.86471932      24.94629513       55      -0.22518800      -0.08374700       0.24475000 
Cs      13.15386034      17.78252012       0.84370315       55      -0.03119600       0.06541500      -0.25093300 
Cs      13.40116494      17.27082283       8.05472768       55      -0.02187900       0.13549700       0.11589800 
Cs      12.80853707      16.53774447      16.50492813       55       0.14487200       0.03333100       0.21384900 
Cs      12.51379965      16.36591318      23.60061577       55       0.20148800       0.08259300       0.05866600 
Cs      -0.27764834       9.74554501       1.86366477       55       0.07426200       0.11594800       0.04870200 
Cs       0.09482381       9.21463570       9.77879969       55       0.21453200       0.08118500      -0.33469900 
Cs      -0.18519054       8.54817330      17.37874489       55      -0.16460600       0.23019500      -0.05812900 
Cs      -0.05878570       8.85064932      25.02668178       55      -0.21287000       0.22687200       0.11972300 
Cs      -0.10934066      24.96738602       1.94141144       55       0.54598900       0.01580800      -0.55008200 
Cs       0.53799739      24.00559942       8.41776665       55      -0.05426900       0.24888900       0.08302200 
Cs      -0.70774160      24.41903894      17.33348282       55       0.22504900      -0.01564800      -0.07728600 
Cs       0.07853667      24.42218300      23.90396548       55      -0.12970400       0.05469600       0.12325300 
Cs       9.23591388       9.90497441       1.62620278       55      -0.29303300       0.11788100      -0.35905500 
Cs       8.41998224       9.65597226       8.97127811       55      -0.31205700      -0.34166400      -0.19672000 
Cs       8.29418508       9.40790755      17.77802420       55       0.20054200       0.02773900      -0.05731800 
Cs       8.31154514       9.22480308      24.83714176       55       0.65922200       0.00635300      -0.00204100 
Cs       9.47891881      24.54604849       1.23858816       55      -0.09763000       0.12580400       0.04104600 
Cs       9.71071332      25.12541673       8.00813865       55      -0.02476000      -0.11464100      -0.15616000 
Cs       8.29696751      25.26733764      16.79408674       55      -0.03199900      -0.56637400       0.04298800 
Cs       7.77969241      23.55934753      24.17702824       55       0.32062300       0.28460800       0.22275800 
Cs      -0.71181613       4.63704892       6.94870297       55       0.09530100      -0.04659700      -0.35292400 
Cs      -0.27489978       4.93852972      13.43471251       55      -0.09452900      -0.34658500       0.02328400 
Cs      -0.99724192       4.16486653      21.93178093       55       0.22314700       0.19111000      -0.30767000 
Cs      -0.75457570       4.04735590      29.21128334       55       0.19061900      -0.11064800       0.18851500 
Cs       0.59767171      19.66386473       4.88040252       55      -0.01587300      -0.12063400       0.01333800 
Cs       0.19959383      18.70289702      13.08522805       55       0.01575500       0.12915200      -0.06085200 
Cs      -0.83367922      19.53351986      19.92470691       55       0.27007000      -0.30993100       0.54674300 
Cs      -1.33585966      18.30957508      28.05387383       55       0.04090300       0.08087600       0.07784800 
Cs       7.80718897       4.93900990       4.23625336       55       0.58539100       0.37478400       0.23047400 
Cs       8.68366961       4.26640383      14.13125565       55      -0.16104100      -0.06158700      -0.11435200 
Cs       9.39455128       4.27595754      22.19488452       55      -0.15578300      -0.25284300      -0.26452200 
Cs       9.41766648       3.05861468      29.24737325       55      -0.15160500      -0.01775800       0.21394300 
Cs       8.95340201      20.09690680       5.27951448       55      -0.00899700       0.11986400      -0.10260100 
Cs       9.88564683      18.55742859      12.60457882       55      -0.04034600       0.16517900       0.03779200 
Cs       8.14480750      18.79949110      20.52088131       55      -0.05976600       0.04696600      -0.01068600 
Cs       7.91628157      18.54572106      28.97682793       55       0.47205200      -0.08987900      -0.02913600 
Cs       3.88241244      12.03176767       5.07570765       55       0.00126100       0.01112700      -0.14960600 
Cs       4.68604281      11.20246084      13.40231657       55      -0.20303100       0.29594800      -0.06141200 
Cs       4.60422460      11.14393914      21.31979659       55      -0.76682200       0.37199200      -0.64831600 
Cs       3.77158543      10.77752697      29.20147261       55      -0.04579800       0.06957500       0.13191000 
Cs       4.68161363      27.54122316       4.18287412       55       0.23403900      -0.21172200       0.24793600 
Cs       5.16467869      28.16663251      12.44585972       55      -0.39355300      -0.16228300      -0.12487700 
Cs       3.80978731      26.93023204      20.62038932       55       0.16786100      -0.05943200      -0.04408100 
Cs       4.37825097      25.97550462      28.76321834       55      -0.17793200       0.54602900       0.13946200 
Cs      12.76101857      12.64130730       4.77869985       55       0.32874100      -0.01944300      -0.04229000 
Cs      12.87740248      11.64613950      12.76075756       55       0.22826500      -0.05395400       0.13957800 
Cs      13.35171677      11.62636163      20.55161855       55      -0.14668600       0.11775400      -0.02482100 
Cs      12.53844802      11.97983096      28.77854413       55      -0.09286700      -0.06194800      -0.09117400 
Cs      14.27469678      27.49413702       4.09448786       55      -0.35451800      -0.55180700      -0.07072000 
Cs      14.18787956      26.97084477      12.81992183       55      -0.03925700      -0.07493700      -0.27626300 
Cs      13.59038119      27.25224984      20.35282867       55       0.08011200      -0.18798300       0.04445700 
Cs      12.80071877      25.16561304      29.12896702       55       0.07461600       0.28826100      -0.30270000 
Pb       0.24715118      -0.08432070       4.85924290       82       0.81718200      -0.24335300      -0.55674400 
Pb      -0.13110898      -0.70227338      12.50952887       82      -0.02370400       0.41456400      -0.42438000 
Pb       0.25349309      -0.66342395      19.84656573       82      -0.82001100       0.36999000       0.09473200 
Pb      -0.15776970      -0.98228673      27.78501410       82      -0.18592900      -1.39184400       0.75838800 
Pb      -0.27614106      15.43253866       3.02161025       82       0.20292500      -1.12677600       0.56114200 
Pb       0.14667584      13.74002875      10.73255879       82      -0.05180700       0.05370100       0.15162100 
Pb      -0.63547611      14.22023765      18.84225168       82       0.34174100      -0.46233900      -0.21879900 
Pb      -0.91946138      13.59393968      26.69584238       82      -0.26637700       0.32126400       0.09090600 
Pb       9.28738536      -0.22749584       3.91726505       82      -0.37631800      -0.59454400      -0.15878300 
Pb       9.45444278      -0.71142362      11.79352465       82      -0.30333800       0.10969500      -0.27130600 
Pb       8.97381647      -0.84820007      19.84676398       82      -0.35646600       0.05335400       0.09699900 
Pb       9.24610516      -1.64174474      27.82056108       82       0.12284000      -0.51491600      -0.05642600 
Pb       8.76650296      15.55835972       2.93895223       82      -0.55843600      -0.51972400      -0.08776800 
Pb       8.99693067      13.88463545      10.49986070       82      -0.02494900       0.71052000       0.55859000 
Pb       8.60327499      14.27476253      18.61849861       82      -0.53549900       0.08560400       0.13693800 
Pb       8.03559236      13.84376570      26.59302693       82       0.59046800      -0.06715700       0.01923200 
Pb       4.41771009       6.99781442       3.32647421       82      -0.00860100       0.73044400      -0.56220300 
Pb       4.37179749       6.70628581      11.38261452       82       0.33527100       0.35614300      -0.29858500 
Pb       3.77482213       6.99907164      19.31483853       82      -0.35019400      -0.67089800      -0.10244700 
Pb       4.45222996       6.22791492      26.92096424       82      -0.04051900      -0.44659200       0.75195100 
Pb       4.66427848      22.07242668       3.26424359       82      -0.23567400       0.33253200      -0.35538800 
Pb       4.65791167      21.52069347      10.93028073       82       0.02424400       0.13495200       0.08436800 
Pb       4.07511445      21.83587822      18.70849974       82      -0.09214300       0.07849100       0.02307400 
Pb       3.23207379      21.47967528      26.86064935       82       0.44945800       0.01131500       0.75378800 
Pb      13.52579752       7.41023980       3.16396750       82       0.17065800       0.35073700       0.05923000 
Pb      13.03670138       7.16672879      11.07094640       82       0.24463500      -0.14313200       0.59008600 
Pb      13.12193262       6.89957658      19.10896953       82      -0.11060900      -0.64463500       0.36046100 
Pb      13.22683714       6.10490020      27.15910465       82      -0.14449000       0.49912500      -0.14522800 
Pb      13.95550425      22.23656419       2.11942923       82      -0.90586200      -0.85876400      -0.12315100 
Pb      13.63749324      22.33357270      10.29451970       82       0.25787700       0.30189500       0.27190800 
Pb      13.04272350      21.96338687      18.25311255       82      -0.37131000      -0.06354700      -0.29325300 
Pb      12.32160371      20.92201359      25.97801011       82       0.03662400       0.05428300      -0.77925100 
Pb       4.17164079       7.20428114       7.05106215       82       0.45098900      -0.43560100      -0.28700200 
Pb       4.40223686       6.64080853      15.58943866       82      -0.02772400      -0.01870500      -0.33531200 
Pb       3.69096068       6.48443751      23.24553556       82       0.06080200      -0.51697600      -0.93591800 
Pb       4.01169834       6.22405160      30.83179374       82      -0.60928400      -0.12305900       0.54603500 
Pb       4.87881057      22.08037449       6.97237804       82      -0.23616700       0.39872800      -0.71478700 
Pb       4.82712789      21.55064171      15.00352728       82      -0.12729400      -0.03646800      -0.53125400 
Pb       3.58437356      21.17238055      23.41097911       82       0.62064200      -0.40354800      -0.66685700 
Pb       4.18226444      20.90892530      30.72120781       82      -0.28335600       0.27194200       0.31516300 
Pb      12.54265803       7.76043058       7.04721776       82       0.67616300       0.35716200      -0.91089300 
Pb      12.56307547       6.13405944      15.01740556       82       0.78315300       0.53339300       0.12754900 
Pb      13.61092715       6.61465686      23.37854332       82      -0.45552000       0.29257900      -0.26404000 
Pb      12.71449131       6.12222639      30.73689124       82      -0.16182000      -0.46882600       0.57061800 
Pb      13.64298637      21.97975968       6.43362951       82      -0.57810300       0.63180200      -0.48116900 
Pb      13.70266767      21.65202161      14.26065413       82      -0.07050200       0.45477800       0.11411100 
Pb      12.63542166      21.45855052      22.24661800       82      -0.12172000      -0.48446100      -0.35896800 
Pb      12.16134447      20.72250543      29.17038370       82       0.11015700      -0.39741700       1.44509600 
Pb       8.97171047      14.76371223       6.71373650       82      -0.32111100       0.34046500       0.18316000 
Pb       8.77332504      13.97912852      14.89774211       82      -0.03235000       0.15004300      -0.28449200 
Pb       8.49770700      14.44786699      22.54121397       82       0.33765400       0.00156600       0.05745700 
Pb       8.07417381      13.85286015      30.83237055       82       0.02760300      -0.40274400      -0.63156100 
Pb       9.26933293      30.39787401       6.28555896       82      -0.06482700      -0.82402600       0.19591100 
Pb       9.32452628      28.56798893      14.47420195       82      -0.44997500       0.56816000      -0.26906800 
Pb       8.67702883      29.38833580      22.28078920       82       0.20531700      -1.16751100       0.46803900 
Pb       8.85259394      28.41847985      30.29834109       82      -0.10146400      -0.82418000      -0.62031300 
Pb      17.77403635      14.80118887       6.95435251       82       0.43661600      -0.08221600      -1.11488700 
Pb      17.72604565      14.20126273      14.15832284       82      -0.21488200      -0.68943900       1.14839000 
Pb      17.46274082      13.88357050      22.42619089       82      -0.25311600       0.33178400      -0.30624900 
Pb      16.70760824      13.83279836      30.31128094       82       0.13844100      -0.54714800      -0.29909400 
Pb      17.92818979      29.23416642       6.95133398       82       0.20533300       0.01104800      -0.06596700 
Pb      18.28360273      29.61935526      14.40696137       82      -0.48353200       0.53241800       0.14635000 
Pb      18.19449621      29.76893208      21.59502711       82      -0.43608100      -0.65734600       0.60606700 
Pb      17.89330132      28.59447034      30.35366395       82       0.30878700       0.13020400      -0.28787600 
I       2.59139146       0.10723964       7.39943086       53      -0.20803600       0.26654300      -0.42311400 
I       1.85217940       1.41096338      14.45794471       53       0.01201200      -0.50542600      -0.07871000 
I       2.43624977       0.86215506      21.77487295       53      -0.09662900      -0.67904100       0.30322100 
I       2.01311408      -0.50613841      30.06033916       53       0.31603700       0.27154100      -0.32697800 
I       2.12182712      16.11371318       5.27751308       53      -0.33557600      -0.08364100      -0.28860100 
I       2.33338152      15.13881439      13.20287914       53       0.22820900      -0.01612200      -0.34067300 
I       1.96033755      15.25188189      20.62266069       53      -0.54581500      -0.33469500       0.21562600 
I       1.17829717      15.04854827      28.92965911       53      -0.07365000      -0.03957700      -0.35283200 
I      11.70854943       0.18893133       5.81472445       53       0.01015400       0.34434700       0.15861200 
I      11.48643116      -0.42510621      14.40710482       53       0.03295800       0.01881000      -0.21296800 
I      10.97549299       0.05447408      22.12157001       53       0.51775000       0.34297700      -0.27532700 
I      11.36158938      -0.52276724      29.93268605       53      -0.28721100      -0.04120600       0.12685200 
I      11.16428485      16.36587931       4.57110042       53      -0.09594600       0.18508500       0.26786700 
I      11.62693246      15.05749329      13.28576230       53      -0.35647000      -0.05066100      -0.13956000 
I      10.78455229      15.59965187      20.27279468       53      -0.04004900       0.25348000       0.11913300 
I      10.28119631      15.39132720      28.19808005       53      -0.69231600      -0.59770000       0.38287300 
I       6.48886668       8.86482049       5.37370469       53      -0.10191300      -0.19829300      -0.24080100 
I       6.62558336       8.13030858      13.63382318       53      -0.33458200      -0.39737800      -0.03483100 
I       5.94717234       7.87359671      21.25247730       53       0.39106300      -0.17471800       0.24551700 
I       6.48554032       7.45120917      29.61582666       53      -0.01411500       0.26370800      -0.78582200 
I       6.99048924      23.82764837       5.13050350       53      -0.09646000      -0.32986400       0.02155600 
I       7.52433540      21.91925152      13.17974302       53      -0.75954500       0.00006800       0.15291800 
I       6.04227708      22.21870204      21.30481250       53      -0.18301200      -0.14574500      -0.35048000 
I       5.63494037      22.75602101      28.64248197       53       0.33978200      -0.61254500       0.42998400 
I      14.98887295       9.61057172       5.16804789       53      -0.07687500      -0.36011200       0.04187400 
I      14.95997472       8.11890589      13.69330822       53      -0.30050200      -0.12414000      -0.63828400 
I      15.42913857       8.15114642      21.09980125       53      -0.37006200      -0.26927100       0.00510800 
I      15.23332638       7.33115620      29.41463789       53       0.04876600       0.16468300      -0.11784700 
I      15.51866450      23.87250498       3.99964214       53       0.25849000      -0.04556300       0.85773700 
I      15.98794791      23.52130404      12.30616536       53      -0.19820000      -0.41580800      -0.28488600 
I      14.94473859      23.22927931      20.51825728       53       0.00886600      -0.03789600       0.09194100 
I      15.00629576      21.86437298      28.14082753       53      -0.47659500       0.12971000      -0.42138800 
I       2.47146002       6.15812403       1.14657467       53      -0.10536400      -0.33156200       0.11751900 
I       2.37026741       5.65808446       9.05227942       53      -0.26249900      -0.15908200       0.45797800 
I       2.55546194       4.66534045      17.23778334       53       0.19716600       0.67384900      -0.51184600 
I       1.80765751       5.39740167      25.39428542       53      -0.09341400      -0.12442100       0.05892200 
I       2.22453996      21.12109237       1.21067120       53       0.43140900       0.04914700      -0.07650800 
I       2.56620114      20.75761805       8.34781736       53      -0.45397700      -0.47881100       0.63011100 
I       1.43005884      20.82523421      16.48977768       53       1.05126200       0.05260500       0.30212800 
I       0.84451407      20.41582338      25.12243007       53      -0.00264500       0.06137100      -0.23757800 
I      11.52771335       5.82247501       1.34826554       53      -0.15916900      -0.02826400      -0.54048900 
I      10.59462872       5.84965477       7.80184427       53      -0.43212800      -0.46720400       0.64691800 
I      11.05511155       4.72304227      17.14267162       53      -0.36218600       0.11102300       0.40162500 
I      10.98762590       5.80112810      25.01139485       53      -0.06271900      -0.20747200       0.02656000 
I      11.15750959      20.94991759       0.14777567       53       0.10536800       0.20612600      -0.29964400 
I      11.22976114      21.02138711       8.47706939       53       0.24369600      -0.00866500      -0.28045600 
I      10.97197037      20.70597323      15.81335212       53       0.49247500       0.00764700       0.15458000 
I      10.13239953      19.51230046      23.62842314       53       0.55864100       0.54075100       0.03213400 
I       7.07734930      13.09098518       0.27887667       53      -0.46209000       0.26135200       0.23473700 
I       6.69418278      13.21768689       8.54905594       53       0.24555700      -0.10519600       0.12104300 
I       5.76909577      13.67232991      16.11054720       53       0.51107400      -0.22900100       0.10452200 
I       6.62646501      12.38963031      23.66332058       53      -0.07133600       0.09518800       0.99074700 
I       6.86614159      28.78106455       0.53279017       53       0.27391500       0.21811800      -0.04399300 
I       6.75768656      29.35767327       8.26425079       53       0.52640000       0.05241700       0.12049500 
I       6.45969350      28.52734831      16.46683184       53       0.17618800       0.04602600      -0.18103800 
I       6.85536253      27.87564982      24.41307261       53      -0.25519300      -0.09282000      -0.02206300 
I      15.00934618      14.62445421       0.69093843       53      -0.05781300      -0.37990300       0.18423500 
I      15.83991422      12.74326999       8.32720466       53      -0.08883600      -0.00510100       0.44842900 
I      15.71326032      12.31314385      16.34771929       53      -0.26602000       0.18061400       0.02215200 
I      14.99897457      12.52161098      23.97882711       53       0.40290800       0.21322700       0.08941100 
I      16.26045975      29.18602827       0.41634549       53      -0.68315700      -0.24491900       0.67125300 
I      16.17987685      27.45905627       8.88761391       53      -0.28681000       0.35372000       0.16046700 
I      15.60431814      28.27661174      16.20459695       53       0.35177800       0.35041800       0.23280700 
I      15.59134443      27.57053980      23.45051195       53       0.44133600       0.45704700       0.27289200 
I       7.34319746       1.67351207       5.70287830       53      -0.14566200      -0.16377700       0.16131800 
I       7.38363586       0.67955667      14.20995869       53       0.19657700      -0.31384800      -0.13297600 
I       6.79110163       0.81857460      22.13785515       53      -0.55510100       0.72270700      -0.46525100 
I       6.58305391      -0.53559451      29.80165976       53       0.10318900       0.09607500      -0.11639300 
I       6.28626129      15.51198886       5.27720226       53       0.18428600       0.29203100      -0.26910200 
I       7.32996074      15.64053358      12.77470359       53      -0.15793100      -0.13423900      -0.51475500 
I       5.99096200      15.17520615      20.21165791       53       0.28790200       0.03768200       0.41937500 
I       5.53416119      14.31033142      28.29577196       53      -0.01943700       0.05288200       0.28340700 
I      15.75187663       0.28347620       6.38463860       53      -0.58766700       0.87215200       0.15201700 
I      15.52200980       0.51329721      13.86674740       53      -0.39014700       0.31269000       0.58431800 
I      15.55758666       0.86988071      21.61930190       53       0.05999500      -0.28871200      -0.01793100 
I      15.56966677      -0.20899014      29.85914341       53       0.39565700       0.15844800      -0.37126100 
I      15.37489163      16.17034705       4.91248067       53       0.20385200      -0.03839400       0.13175100 
I      15.75317670      15.51449036      12.22020887       53       0.03747500       0.00235000      -0.35676500 
I      14.93739050      15.73951061      20.27219197       53       0.28464000      -0.30761200       0.12065000 
I      14.30872851      15.30049224      28.17729002       53       0.67759000      -0.47780300       0.08855300 
I       1.65811157       8.53161719       6.07776627       53      -0.19121300      -0.09889500      -0.56141500 
I       1.78102667       7.99265745      13.33949619       53       0.55433000      -0.14453000      -0.09054100 
I       1.39523712       8.09394471      21.34364201       53       0.63228100      -0.15022100       0.06760000 
I       1.44484866       7.40099990      29.11047128       53       0.51428800       0.06061700      -0.15906000 
I       1.88793358      23.05769708       4.94107406       53       0.42368200       0.16564700      -0.07670200 
I       2.67330231      22.89664484      13.02595719       53       0.29598000      -0.10231200       0.01083400 
I       2.14289609      23.11563400      20.93046648       53      -0.17668200      -0.11688500      -0.11292700 
I       1.43941331      22.44329492      29.32544768       53       0.38091000      -0.26709600      -0.12304300 
I      10.71440873       8.62064302       4.58493886       53       0.26384500      -0.11109500       0.59206900 
I      10.36953774       7.49670834      13.40770211       53       0.34422100       0.13633200      -0.33312500 
I      10.36904761       7.74156424      21.30057759       53       0.43540100       0.10512700      -0.21228300 
I      10.41018036       7.06916240      28.87185368       53       0.41135300      -0.09952600       0.04753200 
I      11.31430499      23.39161866       4.39466164       53       0.18470700      -0.17498400       0.07111100 
I      11.60333111      23.07166203      12.45891613       53      -0.36227900       0.25347100      -0.14538800 
I      10.35336518      23.22062220      19.63289637       53       0.41457400      -0.26620100       0.14638100 
I       9.41157661      21.66324099      27.56550193       53       0.63105900       0.10107400       0.06186300 
I       6.96846092       6.68646111       0.99313353       53      -0.37785900      -0.21694900       0.48815900 
I       7.08295302       5.74915950       9.36657455       53      -0.81292000       0.15379200       0.35626400 
I       6.94221761       5.92918168      17.90625611       53      -0.54489400       0.02724300      -0.35033500 
I       6.19953772       4.60032541      24.69495586       53      -0.39809500       0.26647500       0.20328700 
I       7.19438075      21.45379658       1.07362079       53      -0.51332200       0.42480800      -0.08860700 
I       6.61031934      20.33165808       8.57006414       53       0.56658500      -0.19265500       0.29065500 
I       6.18349964      19.40370098      17.34109988       53      -0.42123800       0.52256900      -0.05759400 
I       6.24902773      20.43609438      25.25184847       53      -0.73046600      -0.07277500      -0.28691200 
I      16.00152234       6.29282337       1.61229063       53      -0.10499500       0.00918000      -0.25861300 
I      15.85046713       6.25250950       9.80292007       53      -0.47161900       0.00323000      -0.07625300 
I      15.11099406       4.85060172      17.42778261       53       0.17059300       0.77244100      -0.03697200 
I      15.60122091       4.85840608      25.26059226       53      -0.21323000       0.29510200      -0.20484600 
I      15.37207135      21.03155847      -0.39901731       53       0.02866000      -0.23866800      -0.03274000 
I      15.86990829      21.09485404       8.33514051       53       0.39602200      -0.42428700      -0.10078200 
I      15.78343376      20.84431473      16.67721070       53      -0.69420900       0.15234200      -0.36063700 
I      14.55034073      19.44559783      23.95710363       53      -0.15870600       0.57467500      -0.06038700 
I       1.47175546      13.49906307       0.58572908       53      -0.27291400       0.34237200       0.06888400 
I       2.29723483      12.77495862       8.34354359       53      -0.40269600       0.25354100       0.47562900 
I       1.77777403      12.78996462      17.15212671       53      -0.11808300       0.27334100      -0.12866500 
I       1.62651360      12.76082232      24.84209594       53       0.15827400      -0.49919800       0.05026000 
I       2.46197904      28.38353559       1.52676649       53      -0.28798800       0.33026700      -0.44465300 
I       2.06611077      28.08727893       9.29553640       53       1.20765400      -0.44371400       0.00323000 
I       2.00658986      27.54092828      16.89666808       53       0.35639700       0.06058800      -0.39718200 
I       2.08458858      27.89089192      24.21146941       53       0.10880600       0.26889400      -0.14649100 
I      10.73135934      13.95914443       1.00649776       53       0.34507200       0.37678700      -0.14196300 
I      11.51815167      13.84218869       8.42557101       53       0.12969500      -0.09236700       0.04804800 
I      10.73562414      12.70509600      17.17886116       53       0.60572000      -0.42794200      -0.52160800 
I      11.05336818      13.18028696      24.41466855       53      -0.77222700      -0.05850600      -0.09064800 
I      11.36621083      28.14302817       0.47312082       53      -0.04168400       0.22869800       0.33397200 
I      11.68752131      28.43452490       8.21644837       53      -0.34722400       0.16135600       0.11451800 
I      11.29851298      27.41361787      17.41830262       53      -0.20531300       0.15517500      -0.59381100 
I      11.69013837      27.35835579      24.43252970       53      -0.54227200       0.33146800       0.14617400 
I       4.18651729       4.44481612       5.25384697       53      -0.03547500      -0.24395800      -0.25188000 
I       3.88650589       4.22858349      13.00435525       53       0.25952800       0.02072700       0.08890200 