320
Lattice="17.0325849269 -0.150049318242 0.21921392214 -0.273535231028 29.4526798343 -0.191569414334 0.467040058812 -0.24001913624 30.7084008741" Properties=species:S:1:pos:R:3:Z:I:1:forces:R:3 energy=-101587.68049 stress="504.307507 659.20239 595.635743 659.20239 -1923.03396 -163.081899 595.635743 -163.081899 1193.426687" pbc="T T T"
Cs       5.28427260       2.19211039       2.53492074       55      -0.38288600       0.17721600      -0.01223200 
Cs       3.94878351       1.90336477      11.09958653       55       0.21778200      -0.00018300      -0.24225100 
Cs       4.33888944       2.26457884      18.01710880       55       0.14312100       0.09262900      -0.36464200 
Cs       4.31212327       2.09094228      24.52362959       55       0.14595900       0.14550600       0.10462000 
Cs       3.88323603      17.28547735       1.70609482       55      -0.02832600      -0.00229800      -0.04633800 
Cs       3.88331483      17.78067027       9.43551920       55       0.07766000      -0.00874800       0.02847200 
Cs       3.93243340      16.73937844      16.36298953       55       0.10940000       0.14179000      -0.00664100 
Cs       4.81678281      17.17444477      25.67322290       55      -0.15260600      -0.12530800      -0.04593400 
Cs      13.06304906       2.90881975       1.35174023       55      -0.40753800      -0.51402000       0.72480500 
Cs      12.49491007       1.90121698      10.59595620       55      -0.16951400       0.01556100      -0.05258400 
Cs      13.26314621       2.30522733      17.12524741       55      -0.06325600       0.23407700       0.38632600 
Cs      13.83969857       2.19865851      25.91613939       55      -0.35077900       0.22207100      -0.22758500 
Cs      12.79717860      16.56313569       2.47672188       55       0.13125000       0.28001900      -0.13508700 
Cs      12.27706747      16.90895487       9.16976982       55       0.05136800       0.05835000      -0.00485900 
Cs      13.04963186      17.01665957      16.44183313       55      -0.09628200      -0.10314600       0.03931500 
Cs      12.59329711      16.76501546      25.38989240       55       0.42989600       0.50909400      -0.81466600 
Cs       0.62557963       9.50714487       2.59056916       55       0.04812800      -0.13248300       0.02786600 
Cs      -0.18673472      10.47937204       9.42488403       55       0.02265800      -0.06081300      -0.06848200 
Cs       0.21879974       9.33895321      17.01581006       55       0.10639000       0.03286500       0.13765100 
Cs      -0.73276925       9.99099150      24.85266141       55       0.13340300      -0.39210900      -0.02591500 
Cs      -0.90363531      24.54607712       2.09286231       55      -0.04635300      -0.26787000      -0.23214200 
Cs       0.15297262      24.68000985       9.56327763       55      -0.26156500       0.03928900       0.04811300 
Cs       0.00777144      23.97394431      17.65704598       55       0.35370000       0.07774600       0.04901600 
Cs       0.47872365      24.29746875      24.79461342       55      -0.08405900       0.06702900       0.19887000 
Cs       7.99792887       9.19447854       2.57081526       55       0.06067100       0.15878300      -0.22395300 
Cs       8.30943818       9.41893557       9.44485992       55       0.08362700       0.26330100       0.21021500 
Cs       8.85868046       9.33487001      17.44555641       55      -0.05974900       0.11205500      -0.05509200 
Cs       7.98174021       9.78291534      25.09283238       55       0.33760200       0.21468300      -0.15112800 
Cs       8.91910976      24.37495640       1.92833199       55      -0.46353500       0.12510600      -0.02010200 
Cs       8.67758380      24.06791468       9.69290900       55       0.10686300       0.17184700      -0.04045500 
Cs       8.49952288      24.68489739      16.42191297       55       0.52128200      -0.07125300       0.55890000 
Cs       8.36293689      24.75849499      25.14316851       55       0.34020600      -0.66761900       0.07954500 
Cs      -0.53201095       4.82956864       5.40400781       55       0.32700600      -0.00451400       0.05487700 
Cs       0.24103393       4.67870442      14.31253814       55       0.19140200       0.35257900      -0.12880800 
Cs       0.53368305       4.34387308      21.24621545       55      -0.09021100       0.37614400      -0.04919500 
Cs       0.08034849       4.02654408      29.24041860       55       0.10111000       0.40575300      -0.12924800 
Cs      -0.03393796      19.24596180       5.27881904       55      -0.25629300       0.30363100      -0.02808700 
Cs      -0.47573212      19.53493037      12.83991818       55       0.13476700      -0.05719600       0.05343900 
Cs      -0.03419455      19.23273295      21.28798059       55       0.18994800      -0.18669600      -0.22537700 
Cs       0.29993239      18.80062259      28.91665391       55       0.05549800       0.06004000      -0.08115200 
Cs       8.24195241       4.16773797       6.19754366       55       0.11535400      -0.00829500       0.05347500 
Cs       8.81783017       5.28303775      13.22337413       55       0.10639900      -0.40884300       0.12373900 
Cs       8.82650109       4.66733314      20.80413396       55      -0.12325000       0.04269100       0.14487000 
Cs       9.16827166       5.67146292      28.81314677       55       0.14193500      -0.10622100      -0.01023700 
Cs       7.80378307      19.39334344       5.03257948       55       0.27952500      -0.02578700       0.29616300 
Cs       9.17390300      19.55122955      13.47455217       55      -0.20846900      -0.11962500      -0.08380500 
Cs       8.56889506      19.78463426      20.23235094       55      -0.29104600      -0.10376200      -0.05890600 
Cs       9.09848242      19.30940377      29.77921214       55      -0.13768600       0.13077600      -0.48213400 
Cs       3.94530092      12.41993538       6.10068266       55       0.08564600      -0.09949400      -0.10538200 
Cs       4.65524882      11.85567395      13.08764438       55       0.00101300       0.04961300       0.03198000 
Cs       3.93077186      12.49847146      20.20091056       55      -0.03895800      -0.08820600       0.14277200 
Cs       4.22340176      11.92171730      28.49419659       55       0.36459800      -0.12259000      -0.25691900 
Cs       4.47962494      26.55144798       6.10027520       55       0.05766100       0.07437300      -0.13219300 
Cs       4.87224096      26.28795307      14.36622809       55      -0.33966100       0.45855100      -0.21919600 
Cs       4.20775701      26.99988828      21.33835900       55       0.00071600      -0.00693200      -0.03866000 
Cs       4.55156678      26.58718971      28.40086431       55      -0.06872800       0.04173700      -0.03334200 
Cs      12.67770862      12.43497952       6.44669499       55       0.01946400      -0.29632900       0.01519300 
Cs      13.02245246      11.44131481      14.33362781       55      -0.11493300      -0.07525400      -0.33414100 
Cs      12.68715025      11.88418719      20.17736751       55      -0.43499000       0.27876900       0.16826500 
Cs      13.86919873      11.69874882      29.39066588       55      -0.23429300       0.07082900      -0.06163400 
Cs      12.32904399      27.42193334       5.10401681       55       0.05166000      -0.01069100       0.14878100 
Cs      12.67453259      26.37255197      13.51381781       55      -0.02849400       0.03623600      -0.01822800 
Cs      12.52540293      26.59173130      21.01226298       55       0.18852900       0.19396200      -0.03608600 
Cs      13.31025056      26.76247916      29.42978353       55      -0.23977300       0.01105500      -0.23607900 
Pb       0.19830588      -0.54740104       3.23411912       82      -0.25065300       0.08504300       0.37040300 
Pb      -0.14159558      -0.03855643      10.70322750       82       0.44020100      -0.11838600       0.17997200 
Pb       0.30493237      -0.23895821      19.19970023       82      -0.27028100       0.09092700      -0.49923600 
Pb       0.20285036       0.10349849      26.76680069       82       0.30754000       0.07350300       0.10152000 
Pb       0.05206108      14.46774024       3.33841138       82       0.47114900       0.35683000       0.75906600 
Pb       0.25145095      15.35279020      10.95378570       82      -0.39768100      -0.27348100       0.43495000 
Pb      -0.13400480      14.61977590      18.52209891       82       0.41789600       0.68945400       0.69760800 
Pb       0.02640004      14.30514340      26.19819179       82       0.47662800       0.42076100       0.53960500 
Pb       8.63483942      -0.24818843       4.12752865       82      -0.02672500       0.01818400      -0.18410100 
Pb       7.97000856      -0.02793376      11.88205477       82       0.42661700      -0.04594900      -0.35025100 
Pb       9.30631737      -0.21383051      19.15748727       82      -0.27521000       0.10970200       0.63572000 
Pb       9.09639036       0.00910625      26.66756222       82      -0.36413000       0.32733300       1.02056800 
Pb       8.55561336      14.56422261       3.25100738       82       0.82478200      -1.01195200      -0.54104500 
Pb       7.89773038      14.64156420      10.98823779       82       0.57220400      -0.12399500       0.11013600 
Pb       7.99489794      14.50000706      18.42641799       82       0.27019800      -0.09440200       0.01496400 
Pb       8.40346622      14.44871860      26.20316582       82      -0.03607100       0.07884500      -0.11480100 
Pb       4.72793445       7.01414111       4.36074405       82      -1.53400500       0.01453400      -0.70058200 
Pb       4.28002942       7.27654916      12.02509951       82       0.47887300      -0.15792300       0.02695800 
Pb       4.55274975       7.43763341      19.82424585       82      -0.37107500       0.72422800      -0.64911400 
Pb       4.60526922       7.16464785      27.48327268       82       0.28440400      -0.08557100      -0.11973300 
Pb       3.73683459      22.09297805       4.13432181       82      -0.15753700       0.74645800       0.56890800 
Pb       4.23774919      21.99222220      11.91247267       82      -0.19276700       0.20327400       0.24222200 
Pb       4.17803390      22.47373365      19.68884956       82       0.40931400      -0.45513100       0.05586700 
Pb       4.77757963      21.99426140      27.60184703       82      -0.73070800       0.32727100      -1.00312700 
Pb      12.37004419       7.48410351       4.35994067       82       0.66959300      -0.31117800       0.20505500 
Pb      13.31447502       6.92824489      11.86524243       82      -0.24576700       0.23656300       0.15849300 
Pb      12.65821899       6.98977739      19.56586047       82       0.77709900       0.16386900       0.23538300 
Pb      12.81054007       7.55046686      27.52612950       82       0.25271700      -1.47191200      -0.09183200 
Pb      12.58549588      21.73267499       3.66938918       82       1.03280400       0.01868500       0.64745900 
Pb      12.97276596      22.10327207      11.35468920       82       0.14393800       0.04451100       0.02486900 
Pb      12.67863405      21.94304117      19.09226364       82       0.67944200       1.10695900      -0.87827400 
Pb      13.22334242      22.11502485      26.45037501       82      -0.64813800      -0.20473600      -0.56613500 
Pb       4.70987476       6.93774033       8.20741480       82      -0.80837900      -0.29809900      -0.10242500 
Pb       4.52378101       6.80908627      15.90695461       82       0.28975500       0.22669800      -0.03487900 
Pb       4.48978442       7.68288700      23.66915705       82      -0.14141600      -0.52450000      -0.37612900 
Pb       4.95032441       6.41672011      31.32060175       82      -0.20783300       0.72229900      -0.49087400 
Pb       4.34087483      22.17448836       8.28334854       82      -0.40724200       0.27526900      -0.36448400 
Pb       4.36162046      22.01076430      15.39231722       82      -0.23657600      -0.14314700       0.06358600 
Pb       4.55675319      21.08982270      23.38801086       82      -0.37306900       0.43751800       0.69852300 
Pb       4.32663214      22.16370329      30.99028125       82      -0.25454600       0.29587700       0.22306500 
Pb      12.79713055       7.22971676       8.03928945       82       0.39422900      -0.08459500       0.15180500 
Pb      13.36755955       6.94878103      15.79869158       82       0.33813000      -0.17914800      -0.08151700 
Pb      13.46020186       6.31742110      23.53321299       82      -0.82290000       0.35812800       0.66048500 
Pb      13.54906174       7.26064013      31.59235244       82      -0.17763800      -1.02930200      -1.44182400 
Pb      12.47757015      21.58870579       7.71692875       82       0.16225700       0.70776900      -1.20018700 
Pb      12.63946451      22.00287081      15.15470246       82       0.57164700       0.37458600      -0.01742000 
Pb      12.66549265      22.21241824      22.82569349       82      -0.84358900      -0.03697200       1.01686800 
Pb      13.27573985      21.61526727      30.43131386       82      -0.34132100       0.60218700      -0.30889200 
Pb       8.60420627      14.23369743       7.04782730       82       0.55198900      -0.00806400       0.84455600 
Pb       9.17084228      14.26128909      14.67369648       82       0.28713700       0.32347700      -0.74093800 
Pb       8.34734596      15.15916140      22.24251517       82      -0.42672900       0.02000700       0.44141400 
Pb       9.33150274      14.15877175      30.09592420       82      -0.23957800      -0.30671700      -0.15898600 
Pb       8.27350330      29.09664929       7.75454150       82       0.42469200      -0.15415100       0.27942800 
Pb       8.33301006      28.98200247      15.35310732       82       0.51188200       0.45062300      -0.44466400 
Pb       8.56317339      29.34009239      22.99530932       82       0.12201500       0.08323900      -0.71905400 
Pb       8.70779701      29.34790516      30.57853694       82      -0.06336800      -0.37127500      -0.17518000 
Pb      17.11442486      14.94565763       7.64338016       82      -0.48383800      -0.21301500      -0.27151500 
Pb      17.18798306      14.71496960      15.12166685       82       0.89727100       0.52490400      -1.00239000 
Pb      16.43656311      14.24514655      22.88930843       82       0.00889400       0.52026100      -0.86242600 
Pb      17.69644712      13.79478045      30.57309395       82       0.92421400       1.37347000      -1.16937900 
Pb      17.35048764      28.88149935       6.84018838       82      -0.37535800       0.69052800      -0.20546800 
Pb      16.25446319      28.88849336      15.00926873       82       0.04949300       0.39546200       0.98062400 
Pb      17.46870642      29.54752566      23.04878208       82      -0.95386900       0.00606600      -0.07258200 
Pb      17.08325163      29.18172676      30.51696696       82       0.03807700       0.11388300      -0.14999400 
I       2.38085356       0.85505586       4.73763458       53       0.38382500      -0.11722800       0.07632300 
I       1.41137575       1.27915357      13.53842466       53       0.04119800      -0.11340500      -0.55621100 
I       2.57160230       1.36118762      20.88020416       53       0.21551300      -0.03394400       0.37093800 
I       2.61723635       0.91509980      28.64192322       53      -0.09264200       0.06803000       0.25545200 
I       1.97630410      16.27744118       5.27365570       53       0.15229300      -0.37670500       0.01189200 
I       2.64122722      16.11817607      12.47305739       53      -0.14175400       0.24054000       0.27023600 
I       1.89194449      15.75563104      21.00852765       53      -0.70482000      -0.51564000      -0.27562600 
I       2.62522978      15.29911371      28.24270048       53       0.00786400       0.28293800      -0.26383900 
I      11.08492774       1.15555523       6.84988851       53      -0.34394700      -0.16488200      -0.14867400 
I      10.47944796       1.52067953      13.80507927       53      -0.53498300      -0.02686000      -0.35497300 
I      10.74374049       1.67362908      21.45319802       53      -0.23331100      -0.76765800      -0.18744300 
I      10.80951091       1.25417290      29.04490148       53       0.64141600       0.26279200      -0.41188500 
I      11.09064653      15.61965431       5.42391547       53      -0.63459900      -0.30455700       0.26051000 
I      10.28597965      15.92605986      12.29501569       53       0.46667800       0.29342000       0.13406200 
I      10.31864047      15.55135939      20.12152401       53       0.25413900       0.29197900      -0.09547000 
I      10.95594310      15.45531041      27.73532521       53      -0.35035200      -0.41632200       0.94877500 
I       6.69859280       8.13200094       6.04720605       53       0.63781900       0.29245400       0.77613600 
I       7.04728819       8.22108089      13.46061508       53      -0.52805100       0.15792500       0.18091200 
I       6.47881767       9.06058714      21.27105966       53       0.07661500      -0.03353600       0.37336200 
I       6.92728487       8.48553967      29.74956495       53      -0.19260700      -0.13174200      -0.13608700 
I       6.04355241      22.97311453       6.06060499       53       0.66101700       0.29927200      -0.01113400 
I       6.67929152      23.34749691      14.00167461       53      -0.69593900      -0.72504900      -0.34863700 
I       6.76202132      22.42560682      21.85586300       53       0.12751200       0.12981800      -0.22800200 
I       7.14608461      22.78849588      29.26231164       53       0.00309900       0.09387900       0.46168700 
I      14.87446247       8.52164080       6.22053895       53      -0.13715300      -0.03362200      -0.02004000 
I      15.51103187       8.72088364      13.97138452       53      -0.42297500      -0.41639500       0.03037400 
I      15.45393813       7.70873447      22.05350100       53       0.14670900       0.14623900      -0.33035300 
I      15.28033808       8.26319199      29.04596913       53       0.45212200       0.12681900       0.12554600 
I      15.00349420      22.77556589       5.72418997       53      -0.36148400      -0.14314900      -0.27089300 
I      15.37290447      22.79063118      13.12609702       53      -0.39945300       0.09509200      -0.01223900 
I      14.48817163      23.56270546      21.21341144       53       0.87149700       0.51985100      -1.31810800 
I      14.76425057      23.50281720      28.37031668       53       0.92558300       0.29259000       0.81598900 
I       2.34662346       5.63474773       2.48448852       53       0.08038500       0.10905300       0.02163200 
I       2.75380505       5.27388537      10.43541202       53      -0.03944000       0.33041500      -0.41063500 
I       2.34017625       5.97086197      17.65790125       53       0.10606200      -0.14348000       0.18212300 
I       2.40556420       6.03549363      25.52457757       53       0.60237400       0.37615800       0.05041000 
I       1.77210261      20.99919365       2.31319097       53      -0.32456800      -0.15481700      -0.46393900 
I       1.77299632      21.53016001       9.94563037       53       0.27477500      -0.46211000       0.43918300 
I       2.11181380      21.10446707      18.24648893       53      -0.52338600      -0.28219500      -0.08995600 
I       2.34922772      21.14722395      25.76697610       53      -0.07863800      -0.42082600      -0.11385300 
I      10.70062613       6.12204812       2.30648718       53      -0.31526300       0.14516800       0.20797100 
I      10.85319321       5.82264043      10.12299650       53       0.25088800       0.06647500       0.22246000 
I      11.01074778       5.54617133      17.66543726       53      -0.11005800      -0.08798000      -0.28500100 
I      11.19476678       4.85863732      25.86841329       53       0.19798600       0.34923100      -0.16403900 
I      10.83308086      20.39728103       1.77849889       53      -0.44661200      -0.33150700      -0.33379300 
I      10.78054217      20.61051285       9.86522615       53      -0.81414600      -0.12214400      -0.02831100 
I      10.92387136      20.47034433      17.22789063       53      -0.65469500      -0.15889300      -0.66954300 
I      10.74494556      20.66805152      24.80382441       53       0.23702800       0.15246300       0.01866400 
I       6.60507504      12.97883359       1.62640845       53       0.31178600       0.30671400      -0.11478800 
I       6.06460844      13.13961705       9.22568252       53      -0.17512800      -0.20463300      -0.59234600 
I       7.15881375      12.77032210      15.95594056       53      -0.84625800      -0.67524100       1.10122200 
I       5.82958543      13.78284412      24.56495557       53       0.37857600       0.08246800       0.13921700 
I       6.14446010      28.41616407       1.87975830       53       0.05233700      -0.36097900       0.45921100 
I       5.82301522      28.03911016       9.38904237       53       0.11923400       0.06774800       0.30515800 
I       6.73069049      27.54281499      17.33803430       53      -0.27938200      -0.10273300       0.44467500 
I       6.77132841      27.64941553      25.03704654       53      -0.42567000       0.59270000      -0.11587900 
I      15.60339645      12.73495323       1.60913292       53      -1.41623300      -1.00029300       0.86221800 
I      14.64946825      14.18320563       9.69642331       53       0.27664300      -0.33840200      -0.41978700 
I      15.32703978      13.25095714      16.48657154       53      -0.94607600      -0.56410000       0.24310200 
I      14.61008826      13.00175968      25.33416518       53      -0.32299300       0.05252700      -0.18061000 
I      14.13138479      28.09029676       1.89722988       53       0.51023900       0.11632100      -0.11081600 
I      14.92238750      27.79405357       8.90997564       53      -0.21894300       0.11165000      -0.06080400 
I      14.45705126      28.41497437      17.99226074       53       0.21254100      -0.17140100       0.07492600 
I      14.95781594      28.34820261      25.06669277       53      -0.02696600      -0.09232500      -0.50591600 
I       6.47727145       0.85982424       6.15673085       53      -0.24301100       0.05414900      -0.40013600 
I       6.19033535       0.83816280      14.17073595       53      -0.50783700       0.00567700      -0.02690400 
I       6.65268487       0.67674701      20.83299795       53       0.15176200      -0.08159700       0.41680300 
I       7.09089649       1.35244751      28.97804419       53      -0.34799400      -0.35000700      -0.02244700 
I       6.91506793      15.75768369       5.12172478       53      -1.42535200       0.80739000       0.38527400 
I       6.23212645      15.29793074      13.34933937       53       0.01303800       0.19970700      -0.02983400 
I       5.87284010      15.95051103      19.74649585       53      -0.05400900       0.20027500      -0.06541900 
I       7.14874940      15.70511521      28.87914110       53      -0.58203900       0.27191400      -0.44857400 
I      15.45546994       1.01085280       5.47589295       53      -0.16381600      -0.23770700       0.02129500 
I      13.95872746       0.46762049      14.34176538       53       0.30920000      -0.36852100      -0.65499900 
I      15.33350045       1.39845634      21.63554875       53       0.28581100      -0.30552900       0.00260300 
I      14.61551684       1.21372334      29.22520917       53       0.85685100      -0.60719200      -0.34429800 
I      14.85406087      15.10689948       5.32289246       53       0.19348900       0.16989900      -0.18178900 
I      15.03741390      15.82222021      13.22916308       53       0.00047700       0.12197200       0.24760800 
I      14.72393651      15.80789201      20.49315895       53      -0.04637100       0.00669400      -0.07491300 
I      15.46164135      15.18037888      28.86913634       53      -0.30886800       0.28548000      -0.27213200 
I       2.08640741       7.85220108       6.21148076       53       0.45026300       0.12036600       0.07862800 
I       2.73701000       8.65422815      14.12950415       53      -0.29269600      -0.03409100      -0.03547900 
I       2.31404144       8.89280101      21.80567678       53       0.22640900      -0.17202000      -0.10493000 
I       2.72574828       8.00431362      29.67060028       53      -0.14843800      -0.04941700      -0.00122900 
I       2.09927974      23.78827050       6.64421479       53       0.55733100      -0.51941500       0.23127800 
I       2.01940693      23.98862712      13.96513047       53       0.46603600      -0.45271000      -0.02334000 
I       2.63230740      23.39969541      22.11266372       53      -0.07917400      -0.08220700      -0.44075500 
I       2.10300930      23.28670148      28.98968262       53       0.39671200       0.04592000       0.57894000 
I      10.64604151       8.66765016       6.46866011       53      -0.19096900       0.06128600      -0.07342900 
I      10.99126007       8.05905776      14.35483759       53       0.06473400       0.04627600      -0.33243100 
I      10.99376246       8.73119399      21.21232073       53      -0.19790800      -0.15580300       0.07702500 
I      11.52458083       8.96281993      29.63596945       53      -0.70291900       0.29476700       0.64472600 
I      10.44498914      22.45645715       5.44295248       53      -0.52220000       0.16643100      -0.06443700 
I      10.18616844      23.26125857      13.38453334       53       0.66450500      -0.19408700      -0.16198100 
I      10.38342301      23.59227097      19.65906591       53       0.01366400       0.00628400       0.14503700 
I      11.04918313      23.00621836      28.21684435       53      -0.28019800      -0.02691000       0.18643000 
I       6.57276498       5.51784357       2.39086890       53       0.51221100       0.07660900       0.16725000 
I       6.86130399       6.03470370      10.14791279       53      -0.25713100       0.08771900      -0.33619100 
I       6.96229048       6.37580543      18.07473684       53      -0.25333700      -0.25147000      -0.12888600 
I       6.98164173       6.44156720      25.37558149       53      -0.28759400      -0.04015700      -0.04020400 
I       5.82527640      20.84978723       2.57150140       53       0.32247600      -0.13622000      -0.72103400 
I       6.57405173      20.95116676      10.42919832       53      -0.02849500      -0.20543200      -0.35540000 
I       5.76946846      20.55703240      17.58582200       53       0.43835600      -0.19041300       0.10098500 
I       6.39046806      20.33691035      25.86905522       53       0.38310800      -0.01361900      -0.23719500 
I      14.97081608       5.56968266       2.26992189       53       0.23410100       0.49710600       0.18189200 
I      15.00727181       5.85100279       9.80382434       53       0.25759600      -0.13237800      -0.06110400 
I      15.63931307       5.80745215      17.75611724       53      -0.57848900       0.26513300       0.00246800 
I      15.14081053       5.85660434      25.86841809       53       0.25037600       0.01149900      -0.03641000 
I      15.00960603      20.74771291       1.17112790       53       0.22301000      -0.05361200       0.31861200 
I      14.71970916      20.82914154       9.24134745       53       0.69804000      -0.06838900       0.65051300 
I      14.53837802      20.33191902      16.54035374       53       0.61309600       0.00320900       0.09334300 
I      15.05138847      20.94535764      23.75372904       53       0.13282700      -0.35377000       0.49237100 
I       2.52356484      12.96930355       0.81785249       53       0.11303600       0.01182700       0.83410600 
I       2.15077192      13.85133796       9.20681848       53       0.33621700      -0.04519900      -0.48262400 
I       2.29867153      13.34997939      16.81470773       53      -0.01618700       0.07735100      -0.01918100 
I       1.55100517      12.74243158      23.58366251       53       0.16453200      -0.18430400       0.49979800 
I       1.23498502      27.38571785       0.85988478       53       0.30316200       0.04709300      -0.32661500 
I       1.75817705      27.99216918       8.97832726       53       0.49555900      -0.12434100       0.73581500 
I       1.90676568      27.30165037      17.43937347       53      -0.16394300       0.36496900      -0.02992500 
I       2.27690437      28.05506435      24.56248105       53       0.12608600       0.17282200       0.18567300 
I      10.99707112      13.66948597       1.31304061       53       0.52053600      -0.38400600       0.14669600 
I      10.41474807      13.06344306       9.21673291       53      -0.11648700       0.05057200      -0.08908400 
I      11.32948847      13.65020007      16.68776901       53       0.07726500      -0.22292600       0.21136500 
I      10.33589294      13.55402712      23.66800195       53       0.01055600       0.02567800       0.39553500 
I      10.35570547      28.34914341       1.83453843       53       0.15643300      -0.29502300       0.14539600 
I       9.98990368      28.13860233      10.23297392       53       0.38692800       0.07881900      -0.53050900 
I      11.01625324      28.51765411      16.82060622       53      -0.08115700      -0.29218400       0.00790600 
I      11.02023458      28.22727579      25.12934866       53       0.10691400      -0.06115300      -0.49909300 
I       4.23306057       4.58130046       5.91599098       53       0.36102100      -0.16863700       0.53911900 
I       3.82681979       4.36843092      14.23011586       53       0.35879700       0.08887700      -0.13554500 
I       4.89970192       5.24977919      21.51716084       53       0.04543800      -1.21473700       0.73148900 