320
Lattice="17.9302057436 0.043602936468 0.0197656445804 0.120845920903 30.7899458496 -0.844291563457 0.150145054306 -0.958166114283 32.5407531717" Properties=species:S:1:pos:R:3:Z:I:1:forces:R:3 energy=-101589.639139 stress="2060.035202 -214.24801 -637.136253 -214.24801 2305.880399 269.397429 -637.136253 269.397429 1137.871158" pbc="T T T"
Cs       4.89404765       2.61641894       1.81730919       55      -0.10025200      -0.14777300      -0.04337800 
Cs       4.65100233       2.52585028       9.99370226       55      -0.18504900       0.06496000       0.19085500 
Cs       4.32243814       2.75765471      18.31110468       55      -0.10856000      -0.45674900      -0.12115000 
Cs       5.24536288       2.37584394      25.89742711       55      -0.28251300      -0.36871500      -0.14684800 
Cs       4.11884863      17.88520955       2.29886614       55      -0.00239400      -0.17633900      -0.28025200 
Cs       4.57500777      17.17618297       9.57326388       55       0.23404900       0.35898700       0.10386900 
Cs       5.03634723      17.33880203      17.94826093       55      -0.12414600       0.10412100       0.15565900 
Cs       4.84860880      17.06289693      26.05791142       55      -0.06713900      -0.22653500      -0.00842200 
Cs      12.93119588       2.52274555       2.17047258       55       0.06410700      -0.01790400       0.17493500 
Cs      13.70186427       2.75226529       9.92502891       55      -0.14604900      -0.44650100       0.00660700 
Cs      13.31682025       1.70532359      19.00966860       55       0.34100600       0.15164500      -0.04249200 
Cs      13.48062450       1.92237340      26.98338400       55       0.17214000      -0.28352600      -0.16135400 
Cs      12.51399687      18.20861075       1.47455850       55       0.14145200      -0.04995000      -0.16249700 
Cs      14.93273794      17.59100142       9.78355753       55      -0.61815800      -0.13486900      -0.03782900 
Cs      12.78998357      17.48057940      18.16580439       55       0.17331100      -0.10186100       0.04099800 
Cs      13.63497890      17.81059294      25.99348310       55      -0.18355600      -0.39040000      -0.12213500 
Cs       0.30278491      10.37663396       1.02304320       55      -0.11115100       0.10922200       0.03104100 
Cs       0.46578850      10.01446848       9.18683171       55      -0.00873800      -0.10049900       0.09065600 
Cs       0.09284723      10.11565789      17.75585213       55      -0.24701300      -0.29755500       0.11740700 
Cs       0.37619390       9.76875701      25.86530067       55      -0.09624800      -0.03615000      -0.07765400 
Cs      -0.18314355      26.09326804       0.87204751       55       0.08013300      -0.09338900       0.20308800 
Cs       0.36243475      25.32167456      10.26403843       55       0.27391200       0.16676100      -0.01173100 
Cs       0.20955214      25.35986155      17.71536821       55       0.01951300      -0.03015700      -0.06749000 
Cs      -0.37700374      24.93976077      25.35327266       55       0.31962300      -0.04812300       0.02706200 
Cs       8.24094989      10.63519070       0.44469181       55      -0.34100700      -0.95060700       0.45087600 
Cs       9.71426609       9.72642187       9.54753152       55      -0.27543400      -0.13014100       0.07359300 
Cs       8.66740905       9.26859002      18.50851327       55       0.22951600       0.06404000      -0.13376700 
Cs       8.84500713       8.63450847      26.99155483       55       0.46837700       0.45856800      -0.31676100 
Cs       8.80584506      25.79679459       1.73806711       55      -0.05060400       0.03269700      -0.04762600 
Cs       9.68890601      24.92582721       9.31744469       55       0.31761700       0.07684100       0.04359900 
Cs       9.46293774      24.42553477      16.49539885       55       0.12143000       0.23669300       0.35535800 
Cs       8.85140426      25.38827945      25.70939595       55       0.61591600      -0.01839800      -0.27061200 
Cs       0.79819892       5.51049219       5.63651131       55      -0.71210700      -0.75108200       0.05397400 
Cs      -0.02011141       4.84698095      14.43631723       55      -0.01191500      -0.26602100      -0.01937600 
Cs       0.55448758       4.56018073      21.99529680       55      -0.11546500       0.12082500       0.22621300 
Cs       0.40141220       4.07659713      30.36637214       55      -0.13236600      -0.18847100       0.04009400 
Cs      -0.16532296      19.47827114       5.77957586       55       0.22591200       0.56446500       0.00473500 
Cs       0.38967970      19.98232925      12.83512051       55       0.08615800      -0.09846000       0.21269300 
Cs       0.66478108      19.77847251      22.51351592       55      -0.08250600      -0.00236900      -0.01928100 
Cs      -0.55698442      21.14058235      29.25928185       55       0.56288600      -0.70108700       0.14282400 
Cs       9.58067281       5.20324601       6.18882435       55      -0.23922800       0.04912000       0.06862300 
Cs       9.29461919       5.15533684      13.32452191       55      -0.07735600      -0.09075800       0.23359400 
Cs       9.20748267       4.11019332      21.82988001       55      -0.00101300       0.03658000       0.29754700 
Cs       9.48202920       4.21751570      30.54192929       55      -0.06152700      -0.09736300      -0.07412600 
Cs       8.52241679      19.67096654       4.92757448       55       0.12775400       0.24100900       0.46116200 
Cs       9.14989008      21.08534890      12.45732937       55       0.22240500      -0.37776600       0.00873100 
Cs       8.90875717      19.62878848      22.19081339       55      -0.22570400       0.03703000       0.04683000 
Cs       9.17879245      20.61420158      29.97024838       55      -0.01143500      -0.23867500      -0.07320900 
Cs       4.69266532      13.25239194       6.24962775       55       0.13605700      -0.42922500      -0.32610500 
Cs       4.28818306      12.21592311      14.72071547       55       0.14466300      -0.06152000      -0.28791500 
Cs       3.64679763      12.07232921      21.84124941       55       0.36185300       0.30296600      -0.02835900 
Cs       3.83631894      12.15851717      29.98829133       55       0.03553000       0.04191900       0.04950300 
Cs       4.94664758      27.52141057       6.87070492       55       0.17853500      -0.07305600      -0.42811100 
Cs       5.82772880      28.26237491      14.20734725       55      -0.31652700      -0.10369100      -0.16832400 
Cs       5.32931103      27.42839710      20.76587248       55      -0.28661200       0.69323100      -0.20166700 
Cs       4.90952031      26.95482331      29.77838628       55       0.03955900       0.40594000       0.20654100 
Cs      13.86504125      13.33524262       5.12089001       55       0.05798900      -0.24688500       0.04167300 
Cs      13.01763679      11.94625808      14.78960199       55       0.12599300      -0.08056200      -0.15046400 
Cs      13.38317321      12.35587375      21.63182782       55      -0.00562100      -0.00144000      -0.01019700 
Cs      13.05602472      11.48514708      30.18372428       55      -0.17844200       0.42353300      -0.01504100 
Cs      13.30461857      27.50276382       5.48436817       55       0.24604700       0.42384400      -0.11231200 
Cs      14.62695539      26.95301391      13.37904955       55      -0.14331100       0.42234300       0.11055600 
Cs      13.15351986      27.31171666      21.40977719       55       0.35243000       0.47551900      -0.12771900 
Cs      13.50422721      28.20789419      30.62964922       55       0.03044000      -0.28676100      -0.00082200 
Pb      -0.03451823      -0.05632785       4.34892424       82      -0.08131600       0.56485700       0.75776300 
Pb       0.72010836      -0.15420548      12.71567702       82      -0.45834600      -0.02153200       0.17830900 
Pb       0.09946671      -0.56485029      21.35920390       82      -0.43423600      -0.26045000      -0.91563200 
Pb      -0.24474762      -0.67949490      29.47610523       82       0.46813200      -0.32047300      -0.52940300 
Pb      -0.38400163      14.90813670       3.63724987       82       0.35134700       0.29951200      -0.18516800 
Pb       0.30652405      14.14438257      11.85642277       82       0.06896600       0.85124300      -0.39241000 
Pb      -0.17064302      14.99575056      19.76984474       82       0.22295700      -0.04524900       0.44697900 
Pb       0.02204728      14.91637893      28.06669717       82      -0.32983400      -0.07996800      -0.04103100 
Pb       8.56201336       0.09613351       4.61480118       82       0.09875500       0.22336800      -0.47729900 
Pb       9.47617366      -0.44971712      12.86731019       82       0.20866600      -0.02674400      -0.38116500 
Pb       9.37523617      -0.52306899      20.36923060       82       0.05276500      -0.57595700       0.87807000 
Pb       9.15215947      -0.62772317      28.71044378       82      -0.13895900       0.10411200       0.53458100 
Pb       8.61881957      15.09341808       3.59889458       82       0.02204000      -0.02531700      -0.12246700 
Pb       9.91706717      15.07999857      11.54650024       82      -0.36100300      -0.32964900      -0.31944500 
Pb       8.98446309      14.57354460      19.77946697       82       0.09082200       0.32988900       0.29363600 
Pb       9.10789968      14.69138166      28.04382169       82       0.08377700       0.36892800      -0.30246200 
Pb       4.72231429       7.39638498       3.28998588       82       0.94568900       1.12168500       0.58067400 
Pb       4.40013806       7.14508927      11.69170260       82       0.16728500       0.21943400       0.04711600 
Pb       4.57601038       6.75093811      19.80085229       82      -0.15840400       1.00526300       0.69440000 
Pb       4.23185623       6.67547494      28.30657350       82       0.73936700      -0.08735800      -0.93882000 
Pb       4.32133149      23.19049052       3.43187850       82      -0.21753200      -0.16632200      -0.06243100 
Pb       5.18438813      22.32123054      11.36827897       82       0.01656600       0.34763200       0.15418700 
Pb       4.26357264      22.44367982      19.88294209       82       0.39186100       0.90240500      -0.16765000 
Pb       4.86701077      22.46304054      28.20449775       82      -0.19049400      -0.13092700      -0.06921200 
Pb      13.24118063       8.04078029       3.71886538       82       0.22314700      -0.26148200       0.13857000 
Pb      13.76193025       6.93046491      11.77820267       82       0.29666700      -0.48764300       0.04624500 
Pb      14.07977373       6.78756355      19.83059307       82      -0.78333000       0.08260100       0.95792700 
Pb      13.74245427       7.13275500      28.15884165       82      -0.05036300      -0.36966400      -0.20379900 
Pb      13.58775921      22.78365115       3.40430513       82      -0.70000500      -0.41471900      -1.09123800 
Pb      14.53590634      22.41799846      11.38059081       82      -0.36903900       0.11321100      -0.11634300 
Pb      13.02968242      22.54975888      19.15366538       82       0.52303100       0.28567200       0.31304300 
Pb      13.45524300      22.79502361      27.50414483       82       0.07558800       0.14068300      -0.68214000 
Pb       4.49137580       7.13625649       7.15602724       82       0.84400600       1.08232300       0.96580100 
Pb       4.34400298       7.47116784      15.84886368       82      -0.20962900       0.09040100      -0.19139400 
Pb       4.75443665       7.09261072      24.16454850       82      -0.18315600      -0.24194600      -0.91138500 
Pb       4.77294674       6.24321328      31.79002076       82       0.29014800       0.24965000       0.22641400 
Pb       4.93887351      22.38377092       7.38360499       82       0.35387400      -0.48017500       0.15439200 
Pb       4.72777410      22.70808701      15.53640249       82       0.07279200      -0.14976100       1.03859500 
Pb       4.32379161      23.09529638      24.33869302       82       0.52862300      -0.39678400      -0.69017900 
Pb       3.62323981      22.21477205      31.83997596       82       0.47490700       0.84541900      -0.32067200 
Pb      13.82243991       8.16741647       7.33397108       82       0.38080300      -0.60015000       0.87040200 
Pb      13.67038346       7.08815659      16.02684424       82       0.23037500      -0.10892800      -0.52097200 
Pb      13.22362726       7.51649654      24.09607404       82      -0.17153600      -0.42535000      -0.55677000 
Pb      13.82977642       6.87243272      32.41046250       82      -0.52675900       0.06374500      -0.96601700 
Pb      13.85959369      22.81036675       7.11364620       82       0.26247700      -0.87138900       0.29701700 
Pb      13.51244496      22.57907433      15.33147685       82       0.43784700      -0.04425100      -0.07838900 
Pb      13.32684944      22.41354127      23.47540791       82      -0.01987000       0.37356300      -0.25528000 
Pb      13.41455101      22.16148264      31.54863286       82       0.37631500       0.07761400       1.10641600 
Pb       9.50972803      14.91982331       7.57530287       82      -0.47890400      -0.15905700       0.04431500 
Pb       8.99503795      15.01396894      15.46493447       82      -1.82728800      -0.21347300       0.95659100 
Pb       9.25389047      14.03006434      24.04020006       82       0.03761600       0.93260100      -0.14539300 
Pb       8.43415629      14.07639973      31.97822531       82       0.10741000       0.71578900       1.15163700 
Pb       8.99927890      30.60239917       7.95073385       82       0.51629400      -0.41212900      -0.06905700 
Pb       9.59281126      30.61662749      15.65482195       82       0.65281000      -1.04236200       1.20735900 
Pb       9.35766240      30.07926286      24.06015440       82      -0.39333300       0.28795400      -1.29957900 
Pb       9.08118511      29.54484997      31.89394364       82       0.20158300       0.31166900       0.20719300 
Pb      18.48374987      14.62526125       7.72748273       82      -0.44705200      -0.49838800      -0.82390100 
Pb      18.01442214      14.66437028      15.97359358       82      -0.48370700       0.84054700      -0.44204900 
Pb      17.63497766      14.86019897      23.74815627       82       0.31117700      -0.05735400       0.09631700 
Pb      17.50310504      14.97214174      31.89654248       82       0.26546400       0.06848000       0.02664800 
Pb      18.49074878      30.80647213       7.63760153       82       0.04262400       0.27731900       0.08094500 
Pb      18.67845457      30.66467334      16.53695984       82      -0.31172800       0.03106400      -0.88099500 
Pb      17.86945640      29.52009167      24.70907523       82       0.04498000       0.45332000      -0.35782900 
Pb      17.77664997      30.47821290      32.47971518       82       0.14751800      -0.47158000       0.23373100 
I       2.44918255       1.46863156       6.20665311       53      -0.03887400      -0.19818700       0.08795500 
I       2.81312785       0.63699861      14.89373805       53       0.68153000       0.14102200       0.25553700 
I       2.22688509       0.75495195      22.83385930       53       0.61692000       0.49301500       0.66177200 
I       2.28222461       0.40108072      31.65767182       53       0.01729500       0.04366700      -0.54440100 
I       2.48405776      16.34656851       5.65299475       53      -0.49307800      -0.44831900      -0.33741500 
I       2.39424999      16.19329526      13.56405859       53      -0.06923600      -0.28734700       0.17063600 
I       2.41754671      16.48781551      21.54165083       53      -0.38378100      -0.53011000      -0.19466000 
I       2.16088707      16.12288800      30.19985176       53      -0.04781600      -0.13281000      -0.17493600 
I      10.83682496       1.51174288       6.15648474       53       0.24199900      -0.00236100       0.29699200 
I      11.95022161       0.46753261      14.96642695       53       0.63838000       0.43331400      -0.78746700 
I      11.73427437       0.37360730      22.71875162       53      -0.42249500       0.06868300       0.22379400 
I      11.29417846       0.74082358      30.96235747       53      -0.05972800      -0.10534600       0.01627300 
I      11.56324376      16.21700914       4.65231807       53      -0.59741800      -0.02173600       0.22385800 
I      11.48853332      15.64412571      14.35528921       53       2.03031600       0.66053000      -0.55214700 
I      11.56539790      15.82953866      22.27536943       53      -0.23405700      -0.16289300      -0.20347100 
I      10.28206710      16.78949989      30.30694975       53       0.15223900      -0.36788200       0.16963700 
I       7.18177898       8.65118774       5.61491995       53      -0.23796000      -0.27225400      -0.06204900 
I       6.82062019       8.24352935      13.95614742       53      -0.02079900       0.10629900      -0.23671400 
I       6.67341566       8.65835698      21.63494683       53      -0.54218800      -0.44463000       0.15076000 
I       7.11260687       7.62009100      30.01492227       53      -0.21618800       0.02695200       0.15042900 
I       7.20574580      23.44653818       4.81781135       53      -0.19593600       0.02956900       0.22705000 
I       7.04711067      24.05243235      13.77977328       53       0.28589200       0.09558000      -0.09191500 
I       6.52492598      24.51158810      22.17087537       53      -0.03678800      -0.96437300       0.47692200 
I       7.16450406      23.77685567      30.47150468       53      -0.43478800      -0.17456100      -0.25043900 
I      16.41569778       8.48445929       5.67814880       53      -0.63951200       0.11055000       0.00811000 
I      16.29352184       8.16219840      13.38200129       53      -0.81417400      -0.07761300       0.39454900 
I      15.43837085       8.89925326      21.97312203       53      -0.16639400      -0.26414200       0.18819500 
I      15.46990164       8.77681621      30.17053120       53       0.63558300      -0.09834900       0.59747200 
I      16.08539865      23.47782826       4.64161469       53       1.26143200       0.45218100       0.65733300 
I      16.76221924      23.69010163      13.58557550       53      -0.54488800      -0.45520900      -0.22829800 
I      15.55094700      23.73828721      20.63912002       53      -0.19633500      -0.25927700       0.52634400 
I      15.77152278      24.25205424      28.84628707       53       0.20150500       0.57828000       0.46365400 
I       2.52086374       6.59781072       1.54106343       53      -1.39565900      -1.05871600      -0.38613900 
I       2.18359834       6.46482941       9.15045411       53      -0.14439600      -0.27850100       0.26057800 
I       1.77814917       6.65131942      17.75548393       53       1.03968100      -0.13889700       0.07163500 
I       2.39784634       5.42496414      25.98549790       53       0.05178100       0.06434800      -0.15573800 
I       1.40603202      22.30830469       1.17594723       53      -0.61102300      -0.21451700       0.51260100 
I       2.80485196      21.04936501       9.80062642       53       0.06522600       0.10864000      -0.39208800 
I       2.09517464      21.78349770      17.80340432       53      -0.34043400      -0.61568700      -0.35267900 
I       2.09494414      21.54977271      26.05764419       53       0.04307900       0.08054900       0.37376900 
I      11.24301054       6.41617873       1.78972664       53       0.16574200       0.07240600       0.10826700 
I      10.96471569       5.75845470      10.01376675       53       0.48412100       0.35471100      -0.20565200 
I      11.59251128       5.56541965      17.72829508       53      -0.11292700       0.04747100       0.22775700 
I      11.91393683       5.23951856      26.48905623       53      -0.66971200       0.12194800      -0.48843300 
I      11.02580468      21.88545106       1.06827092       53      -0.12913100       0.22825700      -0.37857600 
I      11.90316308      21.32044370       9.11040469       53       0.17032800       0.21181400       0.39411700 
I      11.19587755      20.67062123      16.40956889       53      -0.07939500       0.41102700       0.09974700 
I      10.90487716      21.83753373      25.62189123       53      -0.11838400      -0.18830700      -0.27063600 
I       5.85033399      13.54044365       1.26488498       53       0.46161100       0.56971800       0.03076600 
I       7.37447030      13.57862962       9.65077409       53       0.31292100       0.33556900      -0.24510400 
I       6.79728268      13.31667134      17.83033819       53       0.11871900       0.43187400       0.05243300 
I       6.81831714      13.16985337      25.97193254       53       0.07586900       0.02494700       0.18535800 
I       6.64056505      29.45045446       1.36428641       53       0.00766600      -0.03498400      -0.19699800 
I       7.49192998      28.51990252       9.86547903       53       0.01504100       0.44014900       0.15483400 
I       7.50019057      28.87890921      17.50949911       53      -0.49192500      -0.30345800       0.14393500 
I       6.94294504      29.02474395      26.01482865       53      -0.09585600      -0.05977000      -0.17995800 
I      15.17131281      14.50232647       0.88033870       53      -0.57745200      -0.33305900       0.85517700 
I      15.99622733      13.35625057       9.63364910       53       0.17944700       0.00190500      -0.07094900 
I      15.20970175      13.92673915      17.40660740       53       0.43085600      -0.09942900       0.11428600 
I      15.27747857      13.73659873      25.25981857       53       0.38431900      -0.03404900       0.07512900 
I      15.36007018      29.69411379       1.93456693       53       0.10679900       0.15222200       0.02338300 
I      16.54296940      29.35615686       9.88279271       53      -0.27484300      -0.04797100      -0.23784000 
I      16.43185381      28.84355462      17.50876169       53      -0.44358100      -0.07295900       0.24748800 
I      15.53332530      28.55093353      26.79734888       53       0.24051100       0.23293500      -0.05821700 
I       6.47635690       0.91385125       7.11241410       53      -0.20866900       0.11591100      -0.30701600 
I       7.47382584       1.30668770      15.00233333       53      -1.13735400       0.74848100      -0.81586700 
I       6.68524608       0.55839399      22.41762617       53       0.42294800      -0.07176700       0.19817000 
I       6.85713854       0.50425190      30.52185358       53      -0.15405500      -0.15367300       0.64198900 
I       6.53024401      16.54278070       6.23593490       53       0.57077100      -0.00688500      -0.19086600 
I       7.50260786      16.68531080      12.70486248       53      -0.02020700       0.11112100       0.46996600 
I       7.22470977      16.17446899      22.19940750       53      -0.12492400      -0.36418100      -0.00744800 
I       6.38480808      15.18014253      30.08023182       53      -0.64462300       0.43903000      -0.38540500 
I      16.19286790       2.24158770       6.30932451       53       0.02335900      -0.43898100       0.26898800 
I      16.44281014       1.10522785      14.76785764       53       0.17512700      -0.20008300      -0.04342500 
I      15.73166613       0.18883692      23.37260392       53      -0.25952400       0.09606300       0.20633800 
I      15.39297280       0.73801769      31.17284389       53       0.00879300       0.23994400       0.11209600 
I      15.93463856      16.50476914       5.99401969       53      -0.38191700      -0.61263700       0.20611000 
I      15.98815237      15.95565773      13.14088470       53       0.06625100      -0.07254300       0.26147200 
I      15.70262606      16.39723359      21.67383861       53      -0.23737400       0.17036000       0.39456700 
I      14.82021891      15.76388437      29.12970616       53       0.43301100      -0.02553400       0.36041200 
I       2.41697758       8.77528730       5.30103593       53       0.55485200       0.17671200      -0.08405700 
I       1.89557519       8.18311557      13.54346271       53       0.81452100       0.34440200       0.17652400 
I       2.53221478       8.61971305      21.85056259       53      -0.30492200      -0.56691800       0.24391800 
I       1.78822629       7.62049082      29.75337401       53      -0.58316600       0.37560900       0.54835400 
I       2.73931190      24.09317534       6.11313067       53      -0.59993700       0.62714000       0.19878700 
I       3.11651963      23.91851574      13.29120519       53      -0.68669800       0.37685800      -0.93043900 
I       2.05500895      23.37455713      22.17439217       53      -0.48651600       0.38861000      -0.05157500 
I       2.24590821      24.32051646      29.51209014       53       0.01446200      -0.27528400      -0.11900100 
I      11.76864266      10.22761493       5.97356456       53       0.06366400      -0.41433900      -0.25143200 
I      11.54916639       8.43745889      13.98045491       53      -0.00682700      -0.00606000       0.06751100 
I      10.44309809       7.67214525      22.19306748       53       0.50147800       0.05203400       0.13308000 
I      11.28719689       7.63354518      30.34479506       53      -0.22724500       0.32627600      -0.07881600 
I      11.51262050      24.32833133       5.85447703       53      -0.44199000       0.00927100      -0.32060100 
I      11.81855604      24.22138837      12.90455984       53       0.01730300      -0.19824400      -0.15357000 
I      11.35046041      24.26882021      21.67492180       53      -0.10645400      -0.93043600      -0.01545900 
I      11.78879589      24.15263954      29.83311179       53      -0.45841900       0.00983000       0.08618700 
I       7.00337106       6.20745071       1.20930475       53      -0.24248300       0.00098300      -0.11676700 
I       6.95088027       6.01873414       9.69413020       53      -0.47909800      -0.01062800      -0.20574800 
I       6.59212244       5.70681658      17.71021235       53       0.42523800      -0.01201100      -0.21765900 
I       6.74889616       5.80892497      26.24690847       53       0.28368000      -0.41693700      -0.27061300 
I       5.56778288      21.78784678       0.95250232       53       1.05470000      -0.69109300       0.34062700 
I       7.51975732      20.66928714       8.69532411       53      -0.24126300       0.11487700       0.23312600 
I       6.67541884      21.57074291      17.94791211       53       0.36325200      -0.26717600      -0.02042900 
I       6.19473089      20.51433403      25.62188001       53       0.15941700       0.59765400       0.30937900 
I      16.03641445       7.20385583       1.54649569       53       0.61728000      -0.50378300       0.60781300 
I      15.79966019       5.60805670       9.48930961       53      -0.12043400       0.62774700       0.04706200 
I      16.46573151       5.92408058      18.32304627       53      -0.62247900      -0.02986100      -0.29381200 
I      15.80322696       6.54722621      25.63596452       53       0.53831100      -0.02422300       0.34464100 
I      15.34418137      21.22177969       1.07112985       53      -0.31787000       0.15863100      -0.12632600 
I      16.57180343      20.96617672       9.34748431       53      -0.08922300       0.26903500       0.06101900 
I      15.58356608      21.29574659      17.32344156       53      -0.23682600      -0.12156900       0.09705700 
I      15.81457291      20.92211379      25.80408827       53      -0.28406400       0.33419600      -0.36704000 
I       1.76249699      14.25993086       1.29511329       53      -0.18268400       0.03944000      -0.23843300 
I       3.01809429      13.85809640       9.44273658       53      -0.02244300      -0.63860300       0.44107400 
I       2.03848675      13.31063527      17.98563706       53       0.49555500      -0.00302600      -0.05376000 
I       2.36307313      13.74361396      26.09909401       53      -0.09039700      -0.29481500      -0.16219100 
I       1.96054816      29.27565819       1.53261109       53       0.22553500       0.06121700      -0.33317900 
I       2.94186921      29.10063652       9.34140233       53      -0.34744300       0.44781900       0.20322000 
I       2.79892706      29.15322523      18.28479910       53       0.20960900      -0.00363500       0.17365500 
I       2.25207076      28.39814578      26.52005460       53      -0.05196600      -0.06938200       0.26926000 
I      10.29168830      13.13233853       1.70781636       53       0.49576900       0.66623200       0.05020000 
I      11.54431142      13.03773188       9.10971316       53       0.24923300       0.24755000      -0.06902400 
I      11.28871662      13.06074913      18.00365451       53      -0.36932600       0.29841700      -0.02853800 
I      11.69682888      13.80161351      26.20907234       53      -0.33817800      -0.13622600       0.36132900 
I      11.37522178      29.55811955       1.66160642       53      -0.64760000       0.02589700      -0.16538100 
I      11.62427665      29.32546652       9.90600477       53       0.35099400      -0.16937900      -0.30571300 
I      11.96281597      29.05956102      17.82873789       53      -0.20526500      -0.01935900       0.13752900 
I      11.30316219      28.69760361      25.99484474       53       0.78597500      -0.39317000      -0.26824900 
I       4.40757147       4.90279577       5.18334676       53       0.34611800      -1.02596600      -0.41219700 
I       4.02233774       4.81265244      14.20401711       53       0.17349400      -0.53996800      -0.02744200 
I       5.01304440       4.36252224      21.97920502       53      -0.15570700       0.07946000      -0.13131100 