320
Lattice="17.3569193021 0.182931690885 0.0334062270404 0.316299119838 29.8345901035 -0.713731395878 0.0887234489614 -0.813115455714 30.9208958581" Properties=species:S:1:pos:R:3:Z:I:1:forces:R:3 energy=-101584.178414 stress="253.049646 -1089.307246 -1127.863483 -1089.307246 153.889378 -414.577136 -1127.863483 -414.577136 1712.758615" pbc="T T T"
Cs       4.42841407       2.88731064       2.26240568       55       0.07640800      -0.14844100      -0.15111300 
Cs       4.95014370       2.10060283       9.56831411       55      -0.17878900      -0.03305700       0.05166000 
Cs       3.93717968       1.85772901      16.73230195       55       0.07249700       0.07459000       0.10336000 
Cs       5.15381656       1.76551939      24.92135726       55      -0.12710600       0.10948900       0.01134200 
Cs       4.68843406      16.61848642       1.84572271       55      -0.01118000       0.31043000      -0.16008100 
Cs       4.12705943      17.61627957       9.05026497       55       0.04942600      -0.05991800       0.01983700 
Cs       4.94184607      15.90988809      16.10710356       55      -0.25267400       0.09893000      -0.01534100 
Cs       3.94343594      17.24684451      25.15759589       55       0.01475100      -0.04336100      -0.12774000 
Cs      13.22817314       1.73627072       2.71787960       55       0.45794700       0.80937000      -0.05929600 
Cs      12.51432807       2.09292509      10.18255068       55      -0.10553100      -0.05290100       0.07335800 
Cs      13.24498022       3.05517542      18.26929639       55       0.11234200      -0.52501500      -0.50363200 
Cs      12.76975619       2.02642064      26.00187119       55       0.17726700       0.04340600       0.00869100 
Cs      12.88300429      17.53971691       1.46246248       55       0.27261800      -0.17885200      -0.04187300 
Cs      12.65712215      17.13479539       8.86923668       55       0.04543400       0.01071900      -0.04783900 
Cs      13.18115161      17.32773379      16.27824951       55       0.06826200       0.00233900      -0.01671100 
Cs      13.35845471      17.61505338      24.10522007       55      -0.11429600       0.09719200       0.05782100 
Cs       0.10563643       9.33603872       1.45924156       55      -0.11585600       0.18936100       0.19835000 
Cs      -0.00206955      10.78041352       9.01335411       55       0.20459200      -0.18554400       0.00860400 
Cs       0.46609761      10.06816385      16.41791303       55      -0.14452400      -0.06433600      -0.04005400 
Cs       0.19250603       8.77641203      24.62500161       55       0.05054600       0.16529100       0.16924700 
Cs       0.56740839      24.70850746       1.64057007       55       0.07972700      -0.25355600       0.01760100 
Cs      -0.16940189      25.10933457       9.05790385       55       0.24421100      -0.15731000       0.07570000 
Cs       1.22031737      25.01425479      17.49435490       55       0.26065100      -0.55502200      -0.13095400 
Cs      -0.22411865      24.46670436      24.84239373       55       0.08829700      -0.05504900      -0.21548800 
Cs       9.17005888      10.10043231       1.78019279       55      -0.21608800       0.23897700       0.02011000 
Cs       8.66435125       9.79321006       9.42620016       55       0.11699100      -0.01489900      -0.07791300 
Cs       8.88299190       8.64740912      16.50045115       55      -0.53885400       0.68105800      -0.02185800 
Cs       9.05256285      10.05613228      23.77286493       55       0.03839300      -0.06939200       0.18939000 
Cs       8.37086673      25.79557593       0.53877379       55       0.07778800      -0.61865400       0.20194800 
Cs       9.40814941      24.66564154       9.43217951       55      -0.02808500      -0.03418400      -0.06163600 
Cs       9.37990832      24.77003916      16.64108726       55       0.01952500      -0.03541300      -0.00186800 
Cs       8.80676737      24.20048252      25.35964323       55      -0.17241700      -0.15175400       0.02154400 
Cs       0.77061973       3.60833793       5.17722190       55      -0.09066200       0.39333900       0.20166700 
Cs       0.17117801       5.09571176      13.14391720       55      -0.21355800      -0.18610800      -0.01283900 
Cs       0.47326428       5.10286385      20.93593763       55      -0.10548500      -0.22026800      -0.01729400 
Cs       0.86619698       4.53053518      28.58745506       55      -0.34707300      -0.30814500       0.06383200 
Cs       0.24054874      19.34936144       4.56656964       55      -0.20760200       0.22660200       0.03770600 
Cs       0.47477223      19.62461545      12.73266558       55      -0.25888100       0.31752300      -0.12558300 
Cs      -0.16424356      18.49683514      20.06262840       55       0.21031600       0.47176000       0.15981900 
Cs       0.35612484      18.67530030      28.35082875       55      -0.20277200      -0.00137000       0.08032000 
Cs       8.94355879       4.64615112       6.05463040       55      -0.06514500       0.18736100      -0.04812900 
Cs       8.94787278       4.76855867      13.06398983       55      -0.06424100       0.04013100      -0.09948800 
Cs       8.62698956       4.42166617      20.77485087       55      -0.10103500      -0.02551300       0.07038000 
Cs       8.76075244       5.29830320      29.39800350       55       0.07741500      -0.07085700      -0.14447000 
Cs       8.55008100      20.11984999       5.51307390       55      -0.02608600       0.00566500       0.02742900 
Cs       8.39985306      19.73175012      12.92852856       55       0.27574700      -0.16033100       0.14451100 
Cs       9.29979439      19.61109440      19.17678332       55      -0.04802500       0.35474300       0.07411700 
Cs       7.68610320      19.51099522      28.19407735       55       0.51401900      -0.01644200       0.00006800 
Cs       5.13349707      12.07272305       5.04418677       55      -0.25885800       0.27775500      -0.14836200 
Cs       5.47081330      11.59999316      12.80557300       55      -0.04301000       0.28289300       0.05619200 
Cs       4.41084912      12.32561135      20.43450416       55      -0.30145500       0.03317200      -0.04122000 
Cs       4.40085213      11.82266410      28.18955932       55       0.24570500       0.05722000       0.07415900 
Cs       4.91841060      27.39278651       5.76398398       55      -0.02411600      -0.19408900       0.02931400 
Cs       4.21930791      27.30004153      13.64368629       55       0.12175500      -0.14451800      -0.08265700 
Cs       4.68087486      26.53106772      21.28480059       55      -0.08281600      -0.03008800      -0.02056000 
Cs       4.19224248      26.59178715      28.25201698       55       0.23550600      -0.05118300      -0.08703200 
Cs      12.82169120      12.35749602       5.16268647       55       0.17332100       0.06698100       0.35075800 
Cs      13.05203405      11.94747447      12.83346918       55       0.32933300       0.02898600      -0.01941000 
Cs      11.91074045      12.64526548      20.55581865       55       0.26878800      -0.11210900      -0.09864600 
Cs      13.64728614      11.87959712      29.15248881       55      -0.19643900      -0.16976200      -0.24267200 
Cs      13.68602559      26.91715926       5.87414233       55      -0.21569100       0.15097000      -0.07822300 
Cs      12.90355987      27.31879087      13.00428477       55       0.08687900      -0.05421300       0.19239700 
Cs      13.07047344      26.90234206      19.85138662       55       0.22873400       0.15381600       0.12055200 
Cs      13.42599102      26.77202260      27.53017547       55      -0.00996900       0.03026800       0.03385300 
Pb       0.48791047      -0.28357594       3.28511796       82      -0.02971400      -1.41516000       0.11186500 
Pb       0.42048978      -0.31313553      11.39054694       82      -1.35885300      -0.54374400      -0.41791300 
Pb       0.38458746      -0.86712682      20.06097567       82      -0.07052400       0.25453500      -0.66450200 
Pb       0.72714849      -0.20549173      27.35991176       82      -0.45610500      -0.36544200      -0.07351800 
Pb       0.32340943      14.55054361       3.29747599       82       0.14593900       0.07984800      -0.44219900 
Pb       0.04251322      14.94110168      10.96482596       82      -0.11316400       0.64071000      -0.35602600 
Pb      -0.27846911      14.68177639      18.78619999       82      -0.40855000      -0.74971800      -0.66276600 
Pb      -0.28372849      13.89622967      26.37491970       82       0.03936600       0.56632800      -0.28668500 
Pb       9.57784084       0.21977162       3.93362064       82      -0.77809800      -0.00840000       0.58248200 
Pb       8.78373998      -0.77519120      12.06792033       82      -0.29359400       1.05360100      -0.93721400 
Pb       8.61980249      -0.46925440      19.41035389       82       0.38908900      -0.30291100       0.35914200 
Pb       8.83196924      -0.32943445      27.13775578       82       0.15567300      -0.14136800       0.34602300 
Pb       9.50074088      14.76469441       2.98715330       82      -2.01718900       0.42513000       0.68982700 
Pb       8.94858595      14.64679128      10.62657990       82      -0.35477300       0.42659500      -0.40866600 
Pb       8.65823004      14.63799035      18.41880340       82      -0.60492300       0.35239200       0.46230300 
Pb       8.00117031      14.29848409      26.49401015       82       0.37804600      -0.01372900      -0.92953100 
Pb       4.10318187       6.94153551       4.51073163       82      -0.43780200      -0.09723100      -0.95591100 
Pb       4.41069367       6.85448616      11.19957510       82       0.87608400      -0.29267100       0.41653600 
Pb       4.68207384       7.00803219      19.40071056       82      -0.73549900      -0.21728600      -0.13829400 
Pb       4.96902130       7.14659098      27.48322487       82      -0.76194800       0.16889600      -0.05003400 
Pb       4.72250099      22.93091861       4.38636431       82      -0.29768300      -0.85748400      -0.20726100 
Pb       5.21912300      22.30652181      11.76453404       82      -0.32396900      -0.25715200      -0.07839600 
Pb       4.83318887      21.69513403      19.10384481       82      -0.23781000       0.01518200      -0.02821700 
Pb       3.91438840      21.84225376      26.86975588       82       0.01243100       0.09659100      -0.53738800 
Pb      12.87226303       7.49947450       4.09474336       82       0.21043100      -0.15081700       0.35617300 
Pb      13.33586066       6.81499371      11.31096644       82      -0.42774300       0.36635500       1.26529400 
Pb      13.18431132       7.62749219      19.24579941       82       0.15684900      -0.07336500      -0.24737900 
Pb      13.16998867       7.18423444      27.38169644       82      -0.45336800      -0.11452800      -0.71554100 
Pb      13.13173212      22.12495816       3.10997769       82       0.17516400       0.08968700       0.42605200 
Pb      13.40682485      21.83536012      10.63705590       82      -0.03120500       0.05399300      -0.06673700 
Pb      13.61005367      22.27652111      17.95668457       82      -0.24853100      -0.73881300       0.67060100 
Pb      13.56802335      21.86713208      26.57676883       82      -0.80296700      -0.65465500      -0.93780500 
Pb       4.06696864       6.94189501       7.81890126       82      -0.06224100      -0.05560600       0.04287700 
Pb       4.46927844       6.81391716      15.57777100       82       0.25846100      -0.02006100      -0.17084500 
Pb       4.87944282       6.94727487      23.31518835       82      -0.52057000       0.26084800       0.49377400 
Pb       4.47929584       6.80763272      31.25101141       82       0.42069500      -0.77789500      -0.14159800 
Pb       4.82308694      22.55572282       7.94998927       82      -0.21634400      -0.42368700       0.28459500 
Pb       4.07247481      21.32188731      15.63106434       82       1.38739200      -0.10966100      -0.49530000 
Pb       4.07972406      21.64201267      23.12704004       82       0.14468600       0.42655000       0.14201000 
Pb       4.45586329      21.20666488      31.03466378       82       0.68171000       0.61923100       0.04028600 
Pb      13.28166372       7.22103065       8.31826518       82      -0.28277200       0.58412100      -1.44269900 
Pb      13.25465852       7.76569828      15.24347652       82       0.26254000      -0.44260500      -0.14634700 
Pb      13.07690848       6.49828748      23.46529193       82      -0.20717600       0.74429300       0.70583200 
Pb      13.41472995       7.35222943      31.31114009       82       0.12242800      -1.36058400      -1.04482800 
Pb      13.61635560      22.47386386       6.92563884       82      -0.02722400      -0.13383200      -0.26362700 
Pb      13.85641464      22.06263167      14.38709386       82      -0.66538200      -0.61313000       0.23537400 
Pb      13.02486853      22.27704773      22.04169716       82       0.12946600      -0.40756600       0.68339000 
Pb      13.48335933      21.78786638      30.30760079       82       0.25046200      -0.55590300      -0.01446700 
Pb       8.10445834      14.92927026       6.60687181       82       1.43783300      -0.84843500       1.92829600 
Pb       9.43210081      14.87195539      14.64731596       82      -0.56353100      -0.38996700      -0.18704700 
Pb       8.01628288      14.85968384      22.41484769       82       0.01285900       0.46837300       0.04665400 
Pb       8.59052078      13.75246397      29.92934342       82       0.38513700      -0.62291900       0.11766300 
Pb       9.32502735      29.39039766       6.86709487       82      -0.15781800       0.30808200       1.18775400 
Pb       8.92540505      29.76997448      15.06757644       82       0.16221200       0.00092200      -0.10243400 
Pb       9.06532313      29.24545338      22.79619869       82      -0.03474700       0.48207400      -1.09357700 
Pb       9.61058345      29.55201590      30.57579502       82      -0.32482900      -0.27783100      -0.82192600 
Pb      17.10771246      15.39627439       6.78951979       82      -0.06083300      -0.36201000       0.82841000 
Pb      17.95003675      14.73139118      14.75484219       82      -0.49157800      -0.18411600       0.04720400 
Pb      16.41198809      14.27027603      22.61557751       82       0.13623700       0.02413600      -0.18875700 
Pb      17.79263339      13.77121526      30.09463536       82       0.66132500       1.19557300       0.41084100 
Pb      17.83883488      29.81613710       6.40177164       82       0.78665900       0.38905300       0.66101000 
Pb      17.17947143      29.54686923      14.89088740       82       0.06885700      -0.12723000      -0.00220200 
Pb      18.07868405      29.51962405      23.03022105       82      -0.40107300      -0.41865000       0.48890400 
Pb      17.99822228      28.59797576      29.93240694       82      -0.00311300       0.45588400       0.40430900 
I       2.74054749       0.46028538       5.04974249       53       0.31680400       0.41652800       0.16933000 
I       1.65382782       0.57050494      13.72803454       53       1.34053800       0.67890300       0.95019800 
I       2.56956089       0.22071895      21.94388129       53       0.77384400       0.25086700      -0.32521700 
I       2.79393896       0.41943849      29.47511609       53      -0.00054400      -0.00825900       0.00495500 
I       2.08852754      16.35459161       5.34005370       53       0.42480200      -0.01983200      -0.48860800 
I       2.11456987      16.64883982      13.08034996       53       0.29077900      -0.52359300      -0.28454300 
I       1.75755794      15.21369151      20.66442046       53       0.12997500       0.26393400       0.44168800 
I       2.53131405      15.34238837      28.65059382       53       0.02372600       0.13601100      -0.43207400 
I      11.24944154       1.33563113       6.31334551       53       0.29615100      -0.04308100      -0.12387400 
I      10.35687674       1.39676836      13.78799804       53       0.42067900       0.00131200      -0.42410700 
I      11.30541071       0.71029964      20.27320753       53       0.09609000       0.21295000       0.89225800 
I      11.10163098       0.54314510      28.94419979       53       0.49379100       0.17027700      -0.05274700 
I      10.84299846      16.10787503       5.21967682       53       0.19801200       0.35738800       0.20950200 
I      11.05869899      16.14692734      12.52249162       53       0.27578200       0.16883200      -0.15118700 
I      10.00279716      16.71159576      21.02097962       53       0.13272100      -0.53438500      -0.22248200 
I      11.11926588      14.54521428      28.45005541       53      -0.16442800       0.06691100      -0.18888600 
I       5.75004513       8.80097943       6.16227517       53       0.87585000       0.11290100       0.05961800 
I       6.82939312       8.29940313      13.51999522       53      -0.26411700      -0.30474300      -0.00533900 
I       6.61569023       8.34839025      21.04325788       53       0.60134500       0.24696200       0.61424800 
I       6.59475085       8.68526245      29.71343496       53       0.00692600      -0.23688800       0.31052100 
I       6.95065708      24.07295452       5.94955168       53       0.28176500       0.06701800       0.13423300 
I       6.94035111      22.90151643      14.37558892       53      -0.12299200      -0.10689400      -0.52584800 
I       6.27310880      23.10535932      21.30395218       53       0.42587600      -0.07782600       0.19017300 
I       5.94679228      23.02863828      28.51068448       53       1.68997400       0.23072800       0.66398900 
I      15.11904313       9.15440122       6.83557845       53      -0.10299000      -0.40684100      -0.42462700 
I      15.89156820       8.78494188      12.74504499       53      -0.50544100      -0.34050500       0.14456200 
I      15.02588521       8.14738158      21.93916505       53       0.01069700      -0.00423500      -0.43609200 
I      15.39607035       8.12241484      29.07560066       53       0.85361100       0.61926000       0.21086500 
I      15.35174215      24.01868082       4.84140003       53       0.24483800      -0.28094700      -0.17478500 
I      15.50224215      23.43685360      12.46390781       53       0.38463300      -0.00313600      -0.33143200 
I      15.18370247      23.49519158      20.21962173       53       0.47957000       0.33302400      -0.06180800 
I      15.64391887      22.98843655      28.29031531       53       0.42201800       0.40693200       0.34822100 
I       2.13645268       5.94026300       2.09635977       53       0.06934900      -0.25593900       0.09781700 
I       2.29272896       5.24153729       9.85386827       53       0.06124300       0.19045900      -0.02677900 
I       2.39522901       5.55873419      17.76258023       53      -0.07047500       0.05614300      -0.49673500 
I       2.80744642       5.80250773      25.67967531       53      -0.08399700       0.15882100      -0.54038900 
I       2.61822543      21.06039628       2.10732644       53      -0.63926400      -0.04229400       0.33572800 
I       2.77618455      20.99533954       9.60804656       53       0.07333200       0.50668100       0.18890400 
I       2.15475897      20.63384359      17.53465769       53      -0.49142200      -0.31045500       0.30856600 
I       1.64560209      20.65650176      24.99510805       53       0.20871800       0.03781200       0.06355400 
I      10.85559551       7.04445918       1.80179092       53      -0.11593200      -0.54628200       0.41662300 
I      10.79918521       5.70503193       9.73146557       53       0.05822400       0.04243600       0.17334700 
I      11.19130662       6.33834043      16.99601507       53       0.70421300      -0.64925100      -0.35082900 
I      10.53216567       6.33527205      25.76319282       53       0.51760600      -0.24768400      -0.22584200 
I      11.37977071      20.73415166       1.04875168       53      -0.04558200       0.12234700       0.25372700 
I      11.19991225      21.07703527       8.31125592       53      -0.06656800       0.00728200       0.88149600 
I      11.10537755      21.23750020      15.98074928       53       0.10107300      -0.13052900       0.24192900 
I      11.32598476      20.86458772      24.28261839       53      -0.17481300      -0.44129800      -0.10081400 
I       6.97091632      13.06937648       1.25407629       53      -0.03152100       0.09290900       0.18493900 
I       6.40676188      13.44511930       9.09178908       53       0.10477800      -0.20114000      -0.08618400 
I       7.06327460      13.00299057      16.38591565       53       0.17677500       0.02100400      -0.13268300 
I       5.56879628      13.66767364      24.60902915       53       0.34800800       0.09428200       0.12764000 
I       7.46041442      29.04925908       1.39835987       53      -0.30435800       0.22520800       0.54275200 
I       7.07175198      28.14479486       8.79663629       53       0.23712800      -0.06262500      -0.12290200 
I       7.21525534      27.89573085      16.61041420       53      -0.74056600      -0.37183400       0.42641400 
I       7.13847213      27.95678549      24.55223701       53      -0.47365000      -0.24048300       0.01205400 
I      15.84901515      13.34431861       0.91573598       53      -0.60070100      -0.63924200       1.02465800 
I      15.24908082      13.84351250       8.67998461       53      -0.23301700       0.20919100       0.37691000 
I      15.42363132      13.27559401      15.83493735       53       0.21413800       0.02406700       0.41278900 
I      14.51389412      13.19472805      24.82734140       53       0.40295700       0.17904400       0.05471100 
I      16.02725780      27.77744685       0.70387431       53      -0.17991100       0.32598300       0.19547800 
I      15.88785176      28.77572969       8.16334334       53      -0.49208000      -0.34514500       0.81159100 
I      16.37957000      27.69695496      17.22953122       53      -0.85338100       0.07209100       0.21201200 
I      15.68496591      28.51293669      24.92979675       53      -0.01054400       0.13079300       0.05387600 
I       7.19172466       1.49702493       6.29602445       53      -0.15365000      -0.52020800      -0.50635900 
I       6.32353683       0.37114025      13.71811041       53      -0.53043600       0.33903800      -0.21752800 
I       6.58835080       0.85185393      21.25041885       53      -0.02285700      -0.03741500       0.32928600 
I       6.87616300       0.32111058      29.27161327       53      -0.20116200       0.49411700       0.24709500 
I       6.60513067      16.39860015       4.98049418       53      -1.21098900       1.04243300      -1.26392000 
I       6.96060938      15.76397414      12.85418896       53       0.04558500      -0.07355900       0.27352800 
I       6.10104176      15.95345260      19.76568394       53       0.02096500      -0.17559700       0.13299500 
I       6.34785744      15.33611851      28.73270734       53      -0.24005000       0.21390800      -0.02379600 
I      15.34767884       0.33319850       5.35728440       53      -0.81961600       0.79499400      -0.57670600 
I      15.30677948       1.05217664      13.51953953       53      -0.67300500       0.56455200      -0.07145700 
I      15.86555892       1.27125744      21.77202704       53       0.07351900      -0.16196900       0.07831100 
I      15.74824361       1.46084473      29.09228337       53       0.38336700      -0.43118300      -0.06009500 
I      14.77274039      15.91512998       4.63584223       53       0.40760600      -0.13544700       0.05878800 
I      15.30808631      15.95431637      13.16596714       53       0.18298200       0.01174200       0.06252900 
I      14.43909786      16.24058564      20.14925509       53       0.44720400      -0.58434400      -0.03645600 
I      15.48090732      15.33172679      28.84636935       53       0.06733900      -0.18738500      -0.15437100 
I       1.89262959       8.54533173       5.99751374       53      -0.09607000      -0.33318300       0.25338100 
I       2.64244791       7.84629413      13.22182458       53      -0.55859200       0.44304000       0.57500600 
I       2.28156214       8.12862737      21.69561206       53       0.40958100       0.01766900      -0.11611900 
I       2.27011451       7.62621840      29.54935561       53      -0.20675500       0.55107600      -0.27190300 
I       2.53497317      24.00587973       6.27320110       53       0.15310600       0.10545600      -0.07078600 
I       2.38745216      22.82942905      13.83451239       53      -0.20238200       0.42240000      -0.48765000 
I       2.49838878      23.12583037      20.22074298       53      -0.10816500      -0.02673100       0.77914500 
I       2.56311711      23.36821061      29.08824241       53      -0.90246600      -0.17711500       0.46719100 
I      11.02655199       8.57578714       6.26646681       53      -0.14967800       0.04346400      -0.07068300 
I      11.10532896       8.49690329      13.05554742       53       0.10295900       0.05236900       0.44674700 
I      10.33638820       8.30704298      19.80853140       53      -0.10345400       0.61356600       0.73966100 
I      11.27899238       8.40323235      29.32146707       53      -0.48899300       0.50036600       0.23503800 
I      11.03781694      23.32433810       5.18980923       53       0.11243800       0.03153800      -0.46562000 
I      11.37548781      23.37750804      12.54285093       53       0.17987400      -0.14337000      -0.08821100 
I      11.02849328      23.36874597      20.13127527       53      -0.18386200      -0.08616900      -0.37988200 
I      10.91487402      21.81388538      28.73069415       53      -0.23126800       0.40338600      -0.39179200 
I       6.36083925       6.06226830       2.72518618       53       0.33226900       0.03338300      -0.19931900 
I       6.80498797       5.66138289       8.84845277       53      -0.42078500       0.30897700       0.33467400 
I       6.41038894       5.24798010      17.58276938       53       0.16911600       0.22910200      -0.11918700 
I       6.96126425       6.27555436      25.65356984       53       0.45005900      -0.47441700      -0.49622600 
I       6.51640625      20.49221351       2.02772844       53      -0.08880500       0.23658100      -0.24586300 
I       6.95224859      20.49508950       9.43953856       53      -0.24654500       0.95934000       0.15768800 
I       6.20876717      19.08210676      16.95442489       53      -0.37070100       0.83842800       0.15848000 
I       6.60441264      20.85262611      24.95426310       53      -0.49383100      -0.17681300      -0.10617000 
I      15.34974742       6.58704494       2.20771904       53      -0.16666700      -0.13668400       0.17554300 
I      14.95059537       4.87530275       9.86602226       53       0.53902800      -0.24576400      -0.25932200 
I      15.31771700       5.85293285      17.35647916       53      -0.08862300       0.42879600      -0.07342900 
I      15.31955628       5.91523310      25.38682235       53       0.13496900      -0.34869200      -0.16115800 
I      15.77815007      21.17456548       0.96819761       53      -0.28466200       0.12545200       0.19929700 
I      15.92592467      21.27378048       8.48255927       53      -0.14600100       0.11297400       0.33655100 
I      15.94272009      20.56961468      16.38867700       53      -0.46288200       0.23506400      -0.21088500 
I      15.41199423      21.30017938      24.15886319       53      -0.17265500       0.06769500      -0.07487100 
I       2.98667624      13.53824904       1.87200599       53      -0.56180400      -0.05293000       0.03758300 
I       2.13810152      14.28508740       8.95028434       53       0.17307200      -0.35841600      -0.44206200 
I       2.45394398      13.04296981      16.94321823       53      -0.11651700      -0.00460200      -0.02660700 
I       1.52500563      13.18149459      23.89413667       53       0.07381100      -0.33285100       0.35885100 
I       3.15108983      28.22322400       0.93905388       53      -0.46491600       0.09229100      -0.27753200 
I       2.99514099      27.94257846       9.96052393       53       0.25848300      -0.06145100      -0.38219700 
I       3.06105178      28.29825636      17.12269678       53      -0.15328200      -0.00277300       0.13389700 
I       2.81242402      27.42151245      24.87385964       53      -0.34715800       0.61931500      -0.15405600 
I      11.24712617      13.28104771       1.64249777       53       1.28906400      -0.63016500      -0.99959500 
I      10.74950144      13.71714851       8.36098536       53       0.18065400      -0.02387400       0.22342800 
I      11.12064461      13.55531262      17.15817644       53       0.55301100      -0.15705600      -0.37928300 
I      10.51778764      13.62967359      23.62465019       53      -0.26942900      -0.10529100       0.38660300 
I      11.80575403      28.79234439       1.45653171       53      -0.01306200      -0.64618800      -0.37293700 
I      11.58132543      28.20320572       9.70403772       53      -0.03138500      -0.02577300      -0.25668800 
I      11.43066220      28.74623617      16.43916527       53       0.09060400      -0.45132300      -0.25589900 
I      11.29593159      28.21822599      24.21840987       53       0.55058600      -0.10748700       0.42080500 
I       4.43544859       3.85911879       6.05312925       53      -0.32816700       0.81322600      -0.06995500 
I       4.88377139       4.45663962      13.64014571       53      -0.06894500       0.04469900      -0.00292700 