320
Lattice="17.0695106378 0.0898033244033 0.0141981578795 0.150770177577 29.7929358373 -0.618092430278 0.0537337928441 -0.709269426698 31.1825908181" Properties=species:S:1:pos:R:3:Z:I:1:forces:R:3 energy=-101585.364954 stress="-559.370898 586.240925 636.471204 586.240925 -2925.882729 -811.352742 636.471204 -811.352742 -762.761044" pbc="T T T"
Cs       4.42580678       2.86908523       2.49391219       55       0.19571200      -0.33071500      -0.18895300 
Cs       4.62525912       2.05511685      10.23654002       55      -0.00528800      -0.09550000      -0.01918000 
Cs       3.85629204       2.02264595      17.18101218       55       0.04329600      -0.06815900       0.03345300 
Cs       4.98595444       1.91894919      24.79755917       55      -0.32273000      -0.04780700       0.23112900 
Cs       4.39678167      16.73289908       1.87033087       55      -0.10933300       0.03830600      -0.14413100 
Cs       4.03738941      17.88530930       9.22441171       55      -0.22123000      -0.30782000      -0.02196800 
Cs       4.65200413      16.02082620      16.19869061       55      -0.17533400      -0.04907400       0.17715500 
Cs       3.92628547      17.21975553      25.51008478       55       0.05150800      -0.13390100       0.08799500 
Cs      12.98299117       1.87151204       2.48814470       55       0.13716300       0.33125200      -0.31048600 
Cs      12.05887267       1.92471958      10.59539055       55       0.29708400       0.05394600      -0.14888000 
Cs      13.00079280       3.00150818      18.25547618       55       0.03505500      -0.21548600      -0.33437700 
Cs      12.55273775       1.91362766      26.20882433       55       0.19990900       0.03353300      -0.02925100 
Cs      12.48731710      17.42343820       1.77781600       55       0.29894300      -0.05707700      -0.01427100 
Cs      12.21439265      17.15284223       9.15099474       55       0.14346000      -0.01375700      -0.13554800 
Cs      12.76931455      17.23825947      16.32805279       55       0.19382100       0.02319500       0.02823900 
Cs      12.96772793      17.42258014      24.58138576       55      -0.14328500       0.10504600       0.05499900 
Cs       0.10855975       9.27914673       1.50249827       55       0.07477500       0.36103700       0.42744000 
Cs      -0.23620871      10.88305779       9.13405601       55       0.32969700      -0.25801200       0.13650700 
Cs       0.24572380       9.68234075      16.71151817       55       0.03705300       0.01075500      -0.12260800 
Cs      -0.21080932       8.97781630      24.79217670       55       0.09256700       0.14411400       0.12598100 
Cs       0.45940526      24.48551699       1.75063180       55      -0.26758700       0.19347700       0.08427700 
Cs      -0.27564954      24.94003024       9.30950972       55       0.14151300      -0.04985100       0.10517400 
Cs       0.77567486      24.66885094      18.04965561       55      -0.21231000      -0.05066600      -0.26746900 
Cs      -0.18717636      24.34899818      25.03687702       55       0.00666300       0.06421200       0.01566200 
Cs       8.70484832       9.79448269       2.13184707       55      -0.09904300       0.01497800      -0.20514600 
Cs       8.49426247       9.92796879       9.61555804       55      -0.00657200      -0.25022000      -0.28048100 
Cs       8.62181178       8.62412768      16.56636553       55       0.02333900       0.36321300       0.35249800 
Cs       8.77739175      10.17761143      24.21857189       55      -0.36628000      -0.57185300       0.10760100 
Cs       7.92783171      25.40702358       0.67664375       55       0.49122200       0.02755800      -0.11362200 
Cs       9.17404148      24.61528547       9.58527244       55      -0.19666200       0.06440100      -0.05127500 
Cs       9.00851303      24.82844357      16.91767054       55       0.11752600      -0.13954300      -0.05828200 
Cs       8.84837286      24.27673336      25.71164406       55      -0.34206100      -0.05521200       0.05932800 
Cs       0.68462846       3.73295757       4.94061359       55      -0.42673500       0.16391900       0.42286100 
Cs       0.24072054       4.91580236      13.60567379       55      -0.15430200      -0.00313700      -0.07020800 
Cs       0.34870084       5.00653727      21.22321621       55       0.01732300      -0.20006200      -0.00149500 
Cs       0.53828112       4.33067709      29.06204849       55      -0.05859400      -0.18698700      -0.02847200 
Cs      -0.09411878      19.34082314       4.74049570       55       0.11598200      -0.03202300       0.08548300 
Cs       0.17970532      19.51828222      12.83592604       55      -0.22965100       0.31572200      -0.04559200 
Cs      -0.28340595      18.59376226      20.36766910       55       0.22455800       0.29683400       0.23619300 
Cs       0.15101202      18.38306419      28.67670350       55      -0.11103700       0.29779500       0.06066600 
Cs       8.68559273       4.43257647       6.01511145       55      -0.05625200      -0.01060400       0.01065700 
Cs       8.87927081       4.73147493      12.88572648       55      -0.10460000       0.37178100       0.25221200 
Cs       8.30252881       4.32364331      20.95022115       55       0.09330300       0.07602200       0.08677500 
Cs       8.67163158       5.54875077      29.48888224       55       0.07088200      -0.20982300      -0.05036100 
Cs       8.29111282      20.05505520       5.36755375       55      -0.04241100       0.01432900       0.00021500 
Cs       8.80267021      19.69482133      13.35301198       55      -0.19192500       0.18546700       0.02451100 
Cs       8.60158785      19.70325103      19.28404019       55       0.15956900       0.20020800       0.35166700 
Cs       7.72480202      19.56245158      28.89634882       55       0.33051400       0.02938000       0.01736500 
Cs       4.71710554      11.78212903       5.07393039       55      -0.24767200       0.49268200       0.19137200 
Cs       5.34021671      11.44853858      12.90305700       55      -0.24025500       0.22295500       0.06942800 
Cs       4.18649474      12.26242377      20.36970542       55      -0.03624600       0.21765300       0.15786000 
Cs       4.48392569      11.77627447      28.46044109       55      -0.80717100       0.09628300       0.19861500 
Cs       4.61179520      27.33680157       5.83974867       55       0.01660700      -0.07157900       0.03010500 
Cs       4.44613906      27.33394781      14.06617509       55      -0.19396300      -0.37753700      -0.12853800 
Cs       4.32194267      26.73421035      21.44095677       55       0.12414100      -0.12275600       0.00330500 
Cs       3.99381305      26.66412115      28.40310673       55       0.26007200      -0.12808400       0.22574100 
Cs      12.54654751      12.04848113       5.32510826       55       0.29942400       0.32990400       0.32210700 
Cs      12.59773905      11.73316149      13.48320996       55       0.47000100       0.10446900      -0.02109400 
Cs      11.33186933      12.40678219      20.53606774       55       0.86724100      -0.14768700       0.11445200 
Cs      13.57483485      11.94097001      29.64955640       55      -0.12518300      -0.14271400      -0.19295200 
Cs      13.32571460      26.94977141       5.76992744       55      -0.27424400       0.25384300      -0.12022300 
Cs      12.56392640      27.27899996      13.39977390       55       0.11213900      -0.20241200      -0.19131600 
Cs      12.63766357      26.79319795      20.15733379       55       0.34138700       0.01827000      -0.08812600 
Cs      12.98989048      26.61924657      28.11122174       55      -0.13828800       0.16761800       0.17448200 
Pb       0.36982927      -0.48387790       3.14728574       82      -0.41179400      -0.14756100       0.29187000 
Pb       0.09761101      -0.33843409      11.13027329       82       0.62998600       0.15756000       0.78103500 
Pb       0.39903818      -0.77068611      20.10122800       82      -0.44270200       0.16978100      -0.24010600 
Pb       0.66787740      -0.16965817      27.55109053       82      -0.60398200       0.48709300      -0.21244600 
Pb       0.20473227      14.50774195       3.19148702       82       0.48619600      -0.16202000       0.82390700 
Pb      -0.06167787      15.11371608      10.99130508       82       0.24430600       0.15863600       0.17231900 
Pb      -0.51585060      14.86207872      18.68562996       82       0.59053200      -0.83466200       0.72755000 
Pb      -0.19699327      14.05172541      26.49471837       82       0.16601300       0.17264100       0.25184300 
Pb       9.20344676       0.44537542       3.97598724       82       0.15521400      -0.74199200       0.15567100 
Pb       8.18282684      -0.59266402      12.06948283       82       0.64921600       0.17783800       0.37562900 
Pb       8.67766703      -0.47115015      19.54094588       82      -0.12707200       0.12734200      -0.13507400 
Pb       8.82477086      -0.40091875      27.37259153       82      -0.40432400      -0.63436900       0.78538200 
Pb       9.24149651      14.75817397       3.06504341       82      -0.07267100      -0.67681900      -0.01049200 
Pb       8.62695725      14.71750554      10.68387922       82      -0.26743500      -0.15169000       0.33419800 
Pb       8.34291477      14.63806860      18.57711568       82      -0.35797500      -0.55993400       0.26846300 
Pb       7.81171580      14.28586684      26.67988645       82       0.35557400       0.35715600      -0.64180000 
Pb       4.14095945       6.85942638       4.44761915       82      -0.05598700       0.76889300       0.46786100 
Pb       4.29672611       6.76868470      11.56799774       82      -0.07330600       0.56877800       0.22016200 
Pb       4.33658001       7.44976870      19.52852962       82       0.16393800      -0.94407600       0.92146800 
Pb       4.81734781       7.12134984      27.76284691       82      -0.28228200      -0.35085500      -0.44386300 
Pb       4.34190154      22.91326714       4.39552602       82      -0.15638600      -0.14482300      -0.19384100 
Pb       4.70094071      22.45438233      11.82103587       82      -0.17980000      -0.27940200       0.42265900 
Pb       4.56399335      22.02684627      19.10352130       82      -0.15232800      -0.05039600       0.78997700 
Pb       3.88938593      21.85619073      27.11892461       82       0.26687700       0.44464000       0.34352800 
Pb      12.42683877       7.58859857       4.25301916       82       0.24997600      -0.05334600      -0.26173700 
Pb      13.18978588       6.93991582      11.61782237       82      -0.01524400      -0.20285000      -0.12683900 
Pb      12.91102817       7.67346055      19.59296258       82      -0.33561200      -0.35652200      -0.75070400 
Pb      12.75242806       7.14756279      27.71306000       82       0.03998000       0.27817900       0.04044600 
Pb      12.96542751      21.90888460       3.44869453       82       0.14187800       0.36651600      -1.26028900 
Pb      12.99823312      21.86586448      10.97456659       82       0.42870600       0.57820500      -0.07697700 
Pb      13.08372002      22.08597607      18.24058441       82      -0.02103000       0.55871800      -0.12745700 
Pb      13.20274193      21.90525888      26.77438251       82      -0.35357800       0.60371400      -0.58857700 
Pb       4.28021690       6.72354893       7.80000863       82      -0.69111500       0.42194900      -0.16525400 
Pb       4.58165181       6.74513396      15.85463317       82      -0.49925400       0.00399600      -0.43190800 
Pb       4.59014342       7.15774731      23.62739956       82       0.06069600      -0.43058800      -0.08474200 
Pb       4.35161205       6.75493444      31.67971692       82      -0.14650500      -0.25905400      -0.15645400 
Pb       4.69773774      22.38860182       8.11289726       82      -0.72408000       0.69894400      -0.28088000 
Pb       3.93550551      21.29960689      15.74370432       82       0.46405100       0.14099200      -0.46620200 
Pb       4.10336533      21.38562197      23.46987131       82      -0.59886500       0.59014900      -0.87516000 
Pb       4.20435538      21.27579012      31.25563244       82      -0.00644400       0.71358600       0.29737200 
Pb      12.98929652       7.29262546       7.95944552       82      -0.69041800      -0.68381100       0.97690800 
Pb      13.05261796       7.60339747      15.34116715       82       0.65683800      -0.48802800       0.40385200 
Pb      12.69642287       6.49853952      24.02417699       82       0.31337400       0.40144100      -0.36484000 
Pb      13.22911160       7.27820093      31.39571313       82      -0.05015800      -0.09160100       0.14630500 
Pb      13.34243470      22.29201914       7.25954028       82      -0.71634500       0.22708200      -0.10289300 
Pb      13.21172110      21.88736051      14.50562244       82       0.34546900       0.77471000       0.16219200 
Pb      12.66648746      22.35234656      22.54241730       82      -0.25200400       0.07183800       0.41399800 
Pb      13.15152041      21.79015677      30.61015847       82      -0.07834200       0.14899500      -0.04648600 
Pb       8.05252824      14.77344011       6.92456939       82       0.23484300       0.23119600      -0.18125400 
Pb       9.35812320      14.88936449      14.68521167       82      -0.34618000      -0.65832300      -0.31768800 
Pb       7.81572266      15.22678960      22.45079144       82      -0.09657500      -0.37027300       0.26622700 
Pb       8.49051002      13.77008782      30.19441857       82      -0.33102400      -0.17791900       0.22784500 
Pb       8.81885633      29.23150931       7.22727543       82       0.59840200       0.22332500      -0.08295700 
Pb       8.61743635      29.62560324      15.22431119       82       0.08325000      -0.26223700      -0.30070100 
Pb       8.73428070      29.43510879      22.63058963       82      -0.06500300      -0.26952600       0.55857500 
Pb       9.16132243      29.65356907      30.76783861       82      -0.21551700      -0.55744200      -0.44341100 
Pb      16.71160910      15.27868829       6.91031609       82       0.74619000      -0.21933900       0.20861300 
Pb      17.53341903      14.79747357      14.92820555       82      -0.02007500      -0.37487500      -0.69657600 
Pb      15.87244641      14.22688987      22.84402827       82       0.94467100       0.01447800      -0.67633400 
Pb      17.51359752      14.06387660      30.40673796       82      -0.12265100      -1.03978500       0.20641600 
Pb      17.49194380      29.73637634       6.56919850       82      -0.17014300       0.00489600      -0.23735200 
Pb      16.46274326      29.43029320      15.11303699       82       0.36213500      -0.19340500      -0.67876300 
Pb      17.57532763      29.37153486      23.22269837       82      -0.42524500       0.39228000       0.23444200 
Pb      17.53276411      28.73468310      30.31157538       82      -0.30224400       0.35324500       0.05159300 
I       2.48753912       0.52173031       4.94392298       53       0.53261600       0.38879800       0.31774800 
I       1.70181808       0.87453475      13.63164683       53      -0.16638300      -0.04263100       0.35764500 
I       2.67078407       0.37507727      22.02712487       53      -0.20259800       0.01835100      -0.15260300 
I       2.84831086       0.47101279      29.59699603       53      -0.34745700      -0.07098700      -0.07683300 
I       2.17688610      16.16451326       5.27767788       53      -0.28952600       0.16715100      -0.15084900 
I       2.13231721      16.65982940      13.03470605       53       0.13483500      -0.39356400      -0.13117100 
I       1.82623987      15.20730958      20.91893335       53      -0.69668200       0.08706700      -0.14419200 
I       2.26709282      15.44551785      28.71755960       53       0.30155000       0.15685600      -0.55048500 
I      11.12526035       1.17825943       6.40022233       53      -0.28501900      -0.04884000       0.15057900 
I       9.89073647       1.45393026      13.50197026       53       0.52934800      -0.28047400       1.00186100 
I      10.98945933       1.10063052      20.63036742       53      -0.28886400      -0.22432100       0.54354200 
I      10.81865772       0.99446405      29.34972443       53       0.51055900       0.24329100      -0.32869700 
I      10.96541717      16.02470925       5.62644063       53      -0.64740100      -0.14470500      -0.33920400 
I      10.85333327      16.47635422      12.57909193       53      -0.35950400      -0.33230700      -0.03292500 
I       9.87610783      16.46386929      20.73430312       53       0.23213300      -0.05942200       0.04618000 
I      10.62757317      14.73512240      28.55948961       53       0.49046700       0.13976400      -0.41676600 
I       5.97688854       8.79810808       6.30562277       53       0.46757400      -0.12127200      -0.04453100 
I       6.37903199       8.16034311      13.89917333       53       0.43511700      -0.06018400      -0.25388000 
I       6.48820990       8.61281326      21.52657620       53      -0.26028600      -0.21485300       0.02179700 
I       6.35226183       8.41817071      30.19524471       53       0.23837300       0.15067200       0.07604700 
I       6.66427305      24.05705902       5.93310516       53      -0.04577000      -0.29164600       0.10512400 
I       6.79426983      23.17905817      14.27699408       53      -0.38938200      -0.37321000      -0.23793100 
I       6.17521002      23.03348956      21.35632503       53       0.51021400      -0.10166200       0.38606300 
I       6.09416240      23.30434480      28.85050590       53       0.21111900      -0.45192100       0.38181900 
I      14.63218987       9.21441486       6.87105035       53       0.70954900       0.45106900      -0.92342100 
I      15.62220013       8.88045294      13.10361698       53      -0.56951900      -0.35556500       0.10762700 
I      14.72414560       7.76585450      21.94642067       53       0.60484400       0.39756900       0.37377700 
I      15.41537833       8.20383628      29.53627683       53      -0.26269700       0.09330800      -0.34053100 
I      14.72801703      23.77190792       5.10137965       53       0.85290500       0.14396700      -0.15499600 
I      15.36208276      23.44254781      12.69505500       53      -0.44572500      -0.50988100       0.11895500 
I      14.57725363      23.43946575      20.30871922       53       1.02106900       0.72203400       0.42019200 
I      15.25717871      23.29427152      28.74574116       53      -0.20388800      -0.13667500      -0.25782700 
I       2.29975139       5.77438800       2.54172178       53      -0.50470300      -0.06498900      -0.66630900 
I       2.44582206       5.29666260       9.84596831       53      -0.01815300       0.20693900       0.30296900 
I       2.34315652       5.57390154      17.83638045       53      -0.16065300       0.13806000      -0.12640600 
I       2.73033372       5.88276686      25.94059552       53      -0.05789200       0.15998500      -0.31298800 
I       2.01984927      21.21889302       2.07831546       53       0.22279000      -0.02273500       0.01988000 
I       2.37493478      21.10824277      10.10461914       53       0.31241400       0.48340100      -0.11030000 
I       1.97779265      20.75003360      18.27585296       53      -0.28319600      -0.16803400      -0.64464600 
I       1.71455066      20.55350757      25.29978333       53      -0.01761100       0.32076600       0.42022600 
I      10.77009745       6.81551434       1.74537219       53      -0.16210300      -0.22781100       0.45286500 
I      10.74792329       5.75784686      10.04326437       53       0.02339700       0.13887500      -0.00444100 
I      11.01688246       6.18877455      17.08091308       53       0.11275600      -0.12488500       0.04622600 
I      10.59768226       5.81765771      25.92306476       53       0.00662600      -0.38973900       0.21622500 
I      11.19393524      20.72858207       0.85932471       53      -0.39570900      -0.27374300       0.33097700 
I      11.07131954      20.91937254       8.81460085       53      -0.46443000      -0.38598100       0.09769400 
I      10.80843838      21.07902708      16.41550829       53      -0.39316400      -0.33737700      -0.27104400 
I      10.97396392      20.57022671      24.48750785       53      -0.01899700       0.16200800      -0.03228600 
I       6.84610273      12.92061098       1.13852936       53       0.07564800       0.19190900       0.40049000 
I       6.07605992      13.49265831       8.87286872       53       0.26085500      -0.04277700       0.15855600 
I       6.97228708      12.41508614      16.90087112       53      -0.03005400       0.52866200      -0.63094100 
I       5.40126773      13.77374643      25.10967583       53      -0.06634800      -0.09440800      -0.29464200 
I       7.27311448      28.99758554       1.56548016       53      -0.58295600      -0.13622600       0.23519000 
I       6.75539491      28.18503920       9.27163797       53      -0.47092500      -0.32675900      -0.76892400 
I       6.79118293      27.68551208      16.94156567       53       0.09060200       0.37861300       0.23256800 
I       6.86308789      27.94887499      24.81816135       53       0.09541100       0.13579300      -0.41761400 
I      15.59368869      13.17311221       1.35026735       53      -0.34378400      -0.51111100      -0.33731800 
I      14.93012579      13.94148823       9.07840198       53      -0.44079500       0.20444400       0.10786300 
I      15.43886618      13.33350583      16.39817874       53      -0.68514900      -0.17483000       0.04468700 
I      14.35187952      13.07054051      25.10517851       53      -0.11010300      -0.06398000       0.26254200 
I      15.43341019      27.94458855       0.96033701       53      -0.07699400       0.00312800       0.01124100 
I      15.45751910      28.49399061       8.38478661       53      -0.28830500      -0.14048600      -0.19772900 
I      15.41756750      27.73406654      17.64072699       53       0.28556400       0.32595900       0.19218400 
I      15.07187519      28.63148841      25.00642987       53       0.33971700       0.06912900       0.00911500 
I       6.69531223       0.95156776       6.15104307       53       0.18762400      -0.11102700      -0.00667600 
I       5.81846256       0.56739813      13.94563440       53       0.33594700       0.10773100      -0.15400500 
I       6.18334854       0.40350068      21.39856545       53       0.61220200      -0.08262100      -0.32372500 
I       6.70631999       0.62582949      29.42821721       53       0.05664800       0.08499700       0.25888600 
I       6.17330719      16.53892595       4.89848926       53       0.69391100      -0.37388000       0.34519900 
I       6.78626674      15.72402985      13.28790960       53       0.12934400      -0.11622800      -0.12608800 
I       5.66359652      16.09305426      20.27234787       53       0.51243300      -0.26232700      -0.14830400 
I       6.07823071      15.56715941      28.77415392       53       0.40728100      -0.15868000       0.28338400 
I      14.80912656       0.64872145       5.16707019       53       0.93627600      -0.24698500       0.48815500 
I      14.63406657       0.85487673      13.50637762       53      -0.12053300       0.24057300       0.29907000 
I      15.41176131       1.37437433      21.83951223       53       0.41506700      -0.32933500       0.10258900 
I      15.28202089       1.07795332      29.27921443       53       0.24381500      -0.07582100       0.07198600 
I      14.61376041      15.61971010       4.82319849       53      -0.13842900       0.11794000      -0.32499300 
I      14.67937453      16.01375566      13.28028088       53       0.54246900      -0.27686600       0.05426000 
I      14.21953396      16.13418317      20.30909553       53      -0.08760700      -0.12100600       0.04767900 
I      15.11354099      15.34913348      29.21830852       53      -0.16263900      -0.14707500      -0.43410100 
I       1.83749141       8.46622311       6.11487583       53       0.30797900      -0.46310200      -0.14232100 
I       2.43798245       8.41439215      13.71462146       53       0.37743700      -0.55525000       0.09107800 
I       2.25943024       8.36671122      21.77532498       53       0.06334600      -0.10660100      -0.00863400 
I       2.04380437       7.60130117      29.86278222       53       0.52520700       0.06392200      -0.05688400 
I       2.44853845      23.98773405       6.63856217       53       0.01021300       0.04231200      -0.29389700 
I       2.21253482      22.96946194      13.97374340       53       0.08307100       0.09148200      -0.23070900 
I       2.38592609      23.51852155      20.92742593       53       0.26360700      -0.34230200       0.15367800 
I       2.18051472      23.59079991      29.86293507       53       0.37362200      -0.55602000      -0.41570900 
I      10.69501370       8.75685825       6.74040254       53      -0.20235100      -0.18338100      -0.74885500 
I      11.01854828       8.54299783      13.45857674       53      -0.67074400       0.03867200      -0.09034900 
I      10.06440151       8.20662715      20.27889893       53       0.08555800       0.40753400       0.24121500 
I      11.01004409       8.88213327      29.71296684       53      -0.04654900      -0.04324000      -0.02091400 
I      10.82986282      23.05285254       4.84679082       53      -0.87062900       0.25454900       0.67027500 
I      10.97060036      23.40624514      12.50544860       53      -0.20781700      -0.26246300       0.59197000 
I      10.80493068      23.21658650      19.99623108       53      -0.52508200       0.25254800      -0.19707000 
I      10.59864383      22.08083254      28.43227404       53      -0.04614800       0.20734200       0.09509500 
I       6.46949410       6.12286925       2.66223441       53       0.21526600      -0.03416200      -0.17126300 
I       6.74758916       5.67497575       8.78517041       53       0.27674800      -0.07060300       0.73110400 
I       6.32903130       5.31321535      17.96703601       53      -0.08031500       0.47731100      -0.19978900 
I       7.20263059       6.32152157      25.97711682       53      -0.82157600       0.17677500       0.04151900 
I       6.18394348      20.59286521       2.01584047       53      -0.08592700       0.08933100      -0.10388600 
I       6.37765542      20.55319511       9.44407928       53       0.97858800      -0.21695600       0.66608400 
I       5.97388968      19.34007827      16.98295382       53      -0.07426100       0.20966800       0.13689900 
I       6.28316903      20.64991903      25.09175908       53       0.31450900      -0.29094600       0.74637800 
I      15.03512850       6.51399720       2.08563268       53      -0.19739500      -0.24670500       0.28600400 
I      14.62779895       4.77101443       9.90808537       53       0.09241500       0.38903700       0.02701100 
I      14.93591069       5.93717104      17.27366635       53       0.34697300       0.13587900       0.22503600 
I      14.89208184       5.72247771      26.01589887       53       0.14132800       0.01217300      -0.44216700 
I      15.15306018      21.26759066       1.13642241       53       0.57541400      -0.34336900      -0.01923500 
I      15.46884319      21.53771939       8.98941415       53       0.50947000      -0.38219300       0.03890300 
I      15.31933544      20.63342916      16.34745252       53      -0.12198900      -0.09124800       0.00535500 
I      14.88620698      21.11735350      24.13507101       53       0.33223700       0.04160100      -0.02307200 
I       2.69479914      13.31897200       2.00088099       53      -0.04886700       0.21406000      -0.31690200 
I       1.89631649      14.41197573       8.84472102       53       0.35470400      -0.39019700       0.24972500 
I       2.16932897      13.08079178      16.99517176       53       0.13818400       0.07471500      -0.02681500 
I       1.39566528      12.95103975      24.21702990       53      -0.28777400       0.08979200       0.07603300 
I       2.71003336      27.97364172       0.78942512       53      -0.23307300       0.11517700       0.04069600 
I       2.93532234      27.98886529       9.85269833       53      -0.65316400       0.32435800      -0.17297500 
I       2.62576632      28.08049792      17.48401327       53       0.02590800      -0.01286300      -0.02797600 
I       2.44429264      27.68937093      25.41509342       53       0.04151700      -0.10710400      -0.62502000 
I      11.32866055      13.07790513       1.45349977       53      -0.65289900       0.67581700       0.23139200 
I      10.42780257      13.30941820       8.82418172       53      -0.03256300       0.27017600      -0.34554500 
I      11.01687279      13.55423558      17.19683165       53      -0.01576600       0.18663200      -0.20942500 
I      10.08395698      13.20800638      23.82910202       53      -0.02606900       0.79986600       0.16495200 
I      11.41671582      28.63319292       1.33522081       53      -0.47383400       0.29734600       0.17870500 
I      11.23769057      27.83305316       9.88107820       53      -0.65381600       0.60377100      -0.06388500 
I      11.32882500      28.84935859      16.37163108       53      -0.31709600       0.03954800       0.40978200 
I      10.85927682      28.56943036      24.60048850       53       0.67986500      -0.31116600      -0.30105900 
I       4.01743344       3.79736344       6.22913439       53       0.19863000       0.66630300      -0.12503400 
I       4.50689987       4.50373075      13.58327907       53      -0.03170200      -0.22024300       0.58935000 