320
Lattice="17.0315605808 0.132262539626 0.613289273242 0.193159289665 28.6940035577 -0.0800141266038 1.15845264914 -0.103843289663 30.9417422834" Properties=species:S:1:pos:R:3:Z:I:1:forces:R:3 energy=-101592.278807 stress="-1586.210585 -559.309868 -937.983525 -559.309868 903.028803 53.87641 -937.983525 53.87641 -817.189809" pbc="T T T"
Cs       5.11111064       2.08723422       2.55523047       55      -0.05171400       0.27472000      -0.27453700 
Cs       4.46866042       2.04537147      10.58722135       55      -0.25067300       0.19402100      -0.00088700 
Cs       5.30359531       2.41427647      18.31329971       55      -0.26972300       0.05653000      -0.06674500 
Cs       4.62601607       2.42154299      25.18410209       55       0.21458500       0.15432000       0.05152900 
Cs       4.24995476      17.31807879       1.69984334       55       0.12060400      -0.22373000       0.17686100 
Cs       4.66938617      17.22474287       9.66896344       55       0.17994800      -0.30876100       0.06096900 
Cs       4.43149796      17.39329968      16.87502808       55      -0.07533000      -0.28089900       0.36347000 
Cs       5.96954888      16.85539228      25.97708896       55      -0.23225300       0.18622500      -0.32612500 
Cs      12.38297738       2.66057248       1.97486908       55       0.15072100       0.00239500      -0.03185200 
Cs      12.87941013       2.28080843      10.48276381       55       0.11762200      -0.03262000      -0.07960400 
Cs      13.55185978       2.50270607      17.47515463       55       0.03570100      -0.15172400       0.00237600 
Cs      14.46616580       2.84499048      26.08663200       55      -0.20045900      -0.16038000      -0.01052200 
Cs      13.73997189      16.42238897       2.56167959       55      -0.10202400       0.18927400      -0.03595700 
Cs      13.05260015      16.80467996       9.24214669       55      -0.03698700       0.00196500       0.08504300 
Cs      13.73819239      16.66205571      17.15099962       55      -0.09216700       0.02686700       0.04337300 
Cs      13.64873265      16.79333603      25.37934082       55       0.04372100       0.09689700      -0.05440000 
Cs       1.27827212       9.12893732       3.31637133       55      -0.37742400       0.01577900      -0.34234100 
Cs       0.49562302       9.83561714       9.53225456       55       0.18557700       0.08349800      -0.00152400 
Cs       1.11163376       9.51152921      17.59987563       55      -0.22065700      -0.15664800      -0.19397500 
Cs      -0.14880218       9.61495182      25.28591194       55       0.36615300       0.23372600      -0.20074800 
Cs      -0.66182249      23.81208774       1.68801931       55       0.55297500       0.12124600       0.04218200 
Cs       0.58743434      24.23067013       9.66896248       55      -0.04552700      -0.10187700      -0.03853900 
Cs       0.94627181      23.54902210      17.11363210       55      -0.20023400      -0.11444200       0.26440300 
Cs       1.65511826      23.97002411      25.28418419       55      -0.11605500      -0.08039000      -0.16588800 
Cs       8.39195910       9.50615622       2.61750712       55       0.13964700      -0.08774700       0.11312200 
Cs       8.56611313       9.45729527       9.88353132       55       0.01996900      -0.12625300      -0.19863600 
Cs       9.46986579       9.82585625      18.61699001       55      -0.15001600      -0.00888400      -0.13112100 
Cs       8.72203906      10.01481164      25.76174393       55       0.01126700      -0.12497100      -0.27048600 
Cs       9.56716413      23.81752685       3.06695041       55      -0.53128100       0.14408000      -0.73604500 
Cs       9.42543011      23.77745127       9.76463561       55      -0.22932600       0.32338700       0.05031300 
Cs       9.65778912      24.00129707      16.82497121       55      -0.13640700      -0.18056800       0.21981400 
Cs       9.26482594      23.97448099      24.90316003       55       0.33864400       0.22301100       0.09866000 
Cs      -0.18553246       5.21570233       6.06656262       55       0.12973100      -0.35498100       0.00199500 
Cs       0.85503449       5.25616505      14.63987328       55       0.17935600      -0.27863800      -0.09559100 
Cs       0.93926402       4.76637020      21.54450432       55       0.15641500      -0.02730300       0.02117300 
Cs       0.66547923       4.78994446      29.52509102       55       0.19518800      -0.11054000      -0.02687100 
Cs       0.54853072      19.24306541       5.51255734       55       0.12262900      -0.25730700       0.02755300 
Cs       0.35084842      18.94386936      13.15769493       55      -0.00368900       0.37623400       0.08972700 
Cs       1.17782780      18.84531282      21.69571941       55      -0.08555300       0.20092600      -0.08335900 
Cs       1.65400859      19.00792359      29.44577355       55      -0.05778600      -0.07782100      -0.09988600 
Cs       8.67861338       4.55746279       6.75640956       55       0.23788600       0.09531500      -0.13004500 
Cs       9.13566434       4.89615083      14.26643473       55      -0.29346000       0.38806400       0.08387200 
Cs       9.46391113       5.16906168      21.48928241       55      -0.17129400      -0.15353500       0.18123700 
Cs       9.91792535       5.33643216      29.15675619       55      -0.15044600      -0.14645200       0.05691300 
Cs       8.42709004      18.59900914       5.42374251       55       0.10798100       0.12289900       0.04511800 
Cs       9.09685175      18.74940013      13.19866553       55       0.01247200       0.03611200       0.12952600 
Cs       9.45069571      18.78128733      21.12706418       55      -0.07680400       0.16703000      -0.16771100 
Cs      10.28672781      18.86742956      29.76275882       55      -0.04510400       0.11914400      -0.03930500 
Cs       4.66796027      12.55719274       6.48747647       55       0.00891200      -0.26416300      -0.26172700 
Cs       4.57015979      12.05159131      13.55695295       55       0.12635400      -0.15704000      -0.00846600 
Cs       4.33687126      12.17302834      20.87346715       55       0.21335200      -0.01707100       0.11760200 
Cs       5.50711057      11.80302038      28.99172675       55      -0.00708800       0.21440500       0.18285300 
Cs       5.29575958      25.67818614       6.09959783       55      -0.21331000       0.20763700       0.13265400 
Cs       5.43284986      26.13619248      14.25320302       55      -0.39495900      -0.13774800       0.05256200 
Cs       5.11538737      26.66044844      21.52724214       55      -0.05188500       0.02247100      -0.02374500 
Cs       5.66600519      26.16664996      28.91627588       55      -0.18187700       0.12419800       0.13153600 
Cs      13.26022156      12.23207851       7.10111646       55       0.10553100      -0.22319000      -0.31560500 
Cs      13.37765879      11.12671755      14.05396737       55       0.06030900       0.26501900       0.16783400 
Cs      13.47604860      12.42574281      20.85234988       55       0.08087500       0.02278200      -0.05211900 
Cs      14.22445317      11.46137513      29.57982613       55       0.06564700       0.02389700      -0.17488400 
Cs      12.77930311      27.31903296       5.47003435       55       0.14231800      -0.23269500       0.16422200 
Cs      13.59959860      25.60342713      13.59604440       55       0.20173400       0.66062700      -0.08521400 
Cs      13.57935718      26.62552545      22.23819677       55       0.21756000      -0.15192200      -0.23515400 
Cs      14.57310237      26.58776408      30.36305019       55      -0.30325400      -0.22386800      -0.43828500 
Pb       0.18461445      -0.24404697       3.56015669       82       0.40405200       0.09921500      -1.14358400 
Pb       0.28755122       0.03444386      10.86696654       82      -0.48610100      -0.65721400       0.06606400 
Pb       0.54579296       0.16072108      19.07426041       82       0.03568500      -0.37891800       0.48846700 
Pb       0.78995587      -0.26826710      26.69218041       82       0.33876500       1.09176800      -0.50892500 
Pb       0.68131743      14.02271453       3.67221039       82      -0.21225200       0.02756800      -0.49094600 
Pb       0.63404337      14.70102014      11.23261632       82      -0.14334800      -0.33135700      -0.32379300 
Pb       0.80812073      14.33633246      18.90195200       82      -1.13727800      -0.41049100      -1.07633900 
Pb       0.77734320      13.88640333      26.65027551       82       0.31896600       0.05459300      -0.82429700 
Pb       8.28499475      -0.66546103       4.31906000       82       0.33541600       0.35540100      -0.09334500 
Pb       8.60537131       0.15737769      11.80142487       82      -0.43487600      -0.02681700       0.14582100 
Pb       9.48669770       0.18407494      19.63146630       82      -0.22260300      -0.50822100       0.26033900 
Pb       9.23331724       0.66978376      27.27559483       82      -0.28310900      -0.61498400      -0.17904000 
Pb       8.90488454      14.18571916       3.52393812       82      -0.02819900       0.18677700       1.06131100 
Pb       8.51946386      14.24031628      11.26403781       82       0.29134800       0.62888300      -0.11769200 
Pb       8.93825706      14.29301507      18.59214413       82      -0.29251800       0.43851400      -0.11587600 
Pb       9.42033885      14.66032456      26.93271055       82       0.72394600      -0.14254400      -0.37851300 
Pb       4.58157656       6.82416557       4.34230558       82       0.72788300      -0.48585100      -0.10896900 
Pb       4.80712423       7.33616437      12.44759411       82       0.00742100      -0.51360300      -0.36744500 
Pb       5.11143453       7.63909573      20.01920982       82      -0.45807900      -0.35070600       0.05751800 
Pb       5.33329193       7.24820431      27.81441258       82      -0.30794300      -0.55406500      -0.55321100 
Pb       4.49595946      21.60063658       4.37625881       82      -0.03057900      -0.17400100       0.17710600 
Pb       4.63429931      21.45273899      12.09386707       82       0.25215500       0.01388900      -0.02866800 
Pb       5.13679404      21.58844745      20.27146049       82       0.08499600       0.29902100      -0.57385800 
Pb       5.60555308      21.59009375      27.80543844       82       0.40470300      -0.39150000       0.59124300 
Pb      13.24412655       7.17896204       4.68384734       82       0.10446600       0.01319600       0.00816400 
Pb      13.48430117       7.07635587      12.33497408       82       1.00433200       0.06804300       0.02897400 
Pb      13.56694765       6.76520835      20.39076729       82       0.02863100       0.09071000      -0.09949200 
Pb      13.77215041       7.09311591      27.84022152       82       0.25443900       0.74532400      -0.15622000 
Pb      13.27174278      21.50183376       4.05463362       82      -0.34682300      -0.67401200      -0.17598500 
Pb      13.40225457      21.78097716      11.61168083       82      -0.12153400      -0.41969700       0.28215400 
Pb      13.69905016      22.01691146      19.42158817       82      -0.09065100      -0.77294900       0.97083800 
Pb      14.11986147      21.81021573      27.18102659       82       0.09283100       0.05293600       0.03196000 
Pb       4.56152391       6.85391010       8.54226001       82       1.00767100      -0.14785200       0.26767000 
Pb       5.15459285       7.14392501      16.22688481       82      -0.43536400       0.17483200       0.09724000 
Pb       4.94332236       7.41217966      23.95033848       82      -0.42676400       0.00166200      -0.53789800 
Pb       5.93583043       7.02177121      31.27335738       82      -0.09534900      -0.83564400       0.51612600 
Pb       4.93219308      21.61130206       8.29715129       82      -0.31410100      -0.14209700       0.06887000 
Pb       4.93744820      21.78550113      16.06720345       82       0.37107400      -0.45825800       0.88872000 
Pb       5.62379652      20.91940539      24.49903114       82       0.32888800       0.55908800      -0.88641500 
Pb       5.24238138      21.99781709      31.57456674       82       0.22386900      -0.21614000       0.03448900 
Pb      13.32955967       7.36708277       8.75322769       82       0.32993800      -0.15768000      -0.57360300 
Pb      13.86187463       6.66097313      16.53841276       82      -0.59431200       0.03290800       0.23586300 
Pb      13.71145873       6.82089214      24.04494218       82       0.61551700       0.44858000      -0.37632000 
Pb      14.14632395       7.40468795      32.11833775       82       0.20366700       0.05946000      -0.01400000 
Pb      12.90308310      21.40785197       7.75743565       82       0.00532600      -0.57153600      -0.09120900 
Pb      13.71977838      21.76601386      15.86590849       82      -0.06887300      -0.98181200      -0.21397600 
Pb      13.41008742      21.69226391      23.43984320       82       0.36055700      -0.21430800      -0.50146400 
Pb      14.16915268      21.52739355      30.80032448       82      -0.01705100      -0.17444700       0.16925000 
Pb       9.05962989      13.97723147       7.64921021       82      -0.13375800       0.34555300      -0.19332300 
Pb       9.29628384      14.12691430      14.88669538       82      -0.17814300       0.25213600       0.48196400 
Pb       9.40413747      14.59174253      22.83851306       82      -0.06700800       0.02307100      -0.29444000 
Pb      10.43605129      14.07440524      30.95122623       82       0.52777100       0.50830500      -0.87248600 
Pb       8.74011959      28.72239789       8.01391418       82      -0.41041400      -0.10403200       0.28695500 
Pb       9.29515309      28.81014042      15.74068345       82      -0.67722300      -0.34608900       0.08308900 
Pb       9.55299140      28.56501062      23.43055378       82      -0.79358100       0.54890400      -0.11382200 
Pb       9.59855783      28.70765404      31.11643869       82       0.03680600      -0.38920800      -0.57181900 
Pb      17.53980873      14.69925406       7.94276017       82       0.05703200      -0.38833900       0.25326300 
Pb      18.25889999      14.61349801      15.41043484       82      -1.19710000      -0.16411000       0.82298900 
Pb      17.30267469      14.20833899      23.06637303       82      -0.15680000      -0.32608700       0.84587700 
Pb      18.71624513      14.28661578      31.01762725       82      -0.02614000      -0.07456900       0.20054000 
Pb      17.77148451      28.56861465       7.49132560       82       0.00330000      -0.09232400       0.75459900 
Pb      17.09358329      28.32242500      16.12014181       82       0.13335200       0.05224400      -0.65555000 
Pb      17.88532920      29.20832232      23.27140809       82       1.26648300      -0.24948100       0.89184200 
Pb      18.03710392      28.79226304      31.02157051       82       0.49623900       0.12547400       0.39543400 
I       2.98261260       0.46254948       4.66307983       53      -0.56418300      -0.24114400       0.37762400 
I       1.54176803       1.46533589      12.92717291       53       0.39189700       0.41913800       0.50736000 
I       2.95048678       1.69507789      20.98363595       53      -0.23647900      -0.29970600      -0.27262100 
I       2.65459770       1.42973445      28.79509759       53       0.38239500       0.10446800      -0.51385400 
I       2.61680184      15.69099360       5.50027335       53       0.13817600       0.01033200      -0.26910900 
I       2.83804786      16.14293317      12.97550585       53       0.11898700       0.03624700      -0.39877200 
I       2.42284527      15.35133483      20.94538969       53       1.05934100       0.57200700       0.40791900 
I       3.93413090      15.35835316      28.54445393       53      -0.58654200      -0.22566500       0.17245800 
I      10.75391529       1.38340332       6.95674050       53       0.39671500       0.24243800      -0.42964600 
I      10.35750810       1.85953811      13.42277484       53       0.65288100       0.10313800       0.44072900 
I      11.48208418       1.15536320      21.79714788       53      -0.13392400       0.08050000      -0.28999500 
I      11.72726669       1.24180633      29.13908962       53      -0.32616500       0.02089100       0.45576100 
I      11.10608516      15.09591231       5.43380237       53       0.07163900       0.07413700       0.17203000 
I      11.14341339      15.50587031      12.77129586       53      -0.26981400      -0.07025500       0.18474000 
I      11.19589275      15.49214701      20.56349255       53       0.07671500       0.08085700      -0.14934600 
I      12.11428672      15.62680521      28.78108680       53      -0.47410700      -0.18774500      -0.12004200 
I       6.98515975       7.78987290       6.78334254       53       0.03371300       0.44787700      -0.27465000 
I       6.84802636       8.77140405      14.02747807       53       0.09052100      -0.10794400       0.31117400 
I       7.21684990       8.98732596      21.47375374       53       0.25610800      -0.04782800       0.49425400 
I       7.64622522       8.51329264      29.26924590       53       0.50801500       0.33245300       0.17211800 
I       6.99615009      22.35558513       6.18509802       53      -0.58095000       0.01973000      -0.13904600 
I       6.97606103      22.28803994      13.99810534       53       0.60442700       0.49590300      -0.12726000 
I       7.55547566      22.21070033      22.37312233       53      -0.22354100      -0.09607800      -0.09246200 
I       7.88988026      22.15508458      30.31268381       53       0.11414800       0.46207700      -0.93343400 
I      15.48491595       8.56785909       6.32502189       53      -0.39116800      -0.13919100       0.23207200 
I      15.61422511       8.12062747      14.82726478       53       0.37038400       0.54391700      -0.27192700 
I      16.06227892       7.93082786      22.20565890       53      -0.40431600       0.01927600      -0.09823900 
I      16.14256520       8.27477294      29.49594828       53      -0.27813900       0.04266500       0.19154200 
I      15.59591172      22.20677816       6.10581505       53      -0.47600900       0.24370600      -0.18395600 
I      15.69191928      22.77026642      13.58024836       53       0.27949400      -0.12237500      -0.23170300 
I      15.89818476      23.36141595      20.93701542       53      -0.30309500      -0.23474800       0.02913600 
I      16.39235792      23.22333004      29.42490351       53      -0.28808500      -0.28558700      -0.05204000 
I       2.51095002       5.67388979       2.38701768       53       0.45188700       0.11747300       0.32358600 
I       2.82728176       5.46177603      10.47102124       53      -0.16294700      -0.02779600       0.30325200 
I       3.15685958       5.77948479      18.35977841       53      -0.07307300       0.11818200      -0.27143200 
I       3.16515623       6.11266473      25.94805258       53      -0.30233500      -0.09676500      -0.00361400 
I       2.06501110      20.35449985       1.94319460       53      -0.18804800      -0.02327100       0.71158600 
I       2.62910020      20.02012400      10.25397050       53      -0.02490600       0.29540700       0.08794600 
I       2.80107897      20.49628371      18.14392933       53       0.24956300      -0.00176700       0.22549500 
I       3.18629267      20.24412695      26.20373863       53       0.03480900      -0.03392000       0.05079600 
I      10.59915941       6.39115939       2.88232255       53       0.54491700      -0.14256900       0.12114900 
I      11.40527066       5.83332296      10.79283712       53      -0.23908600      -0.07543200      -0.40337100 
I      11.42577273       5.38999723      18.39077731       53       0.24376900       0.16772100       0.01611700 
I      11.79536864       5.67159858      25.89800818       53      -0.49777600      -0.38980500       0.40281100 
I      11.08816465      20.00794829       2.29788854       53       0.27264600       0.31703800      -0.12584700 
I      10.75143243      20.64758984      10.08676868       53       0.72686900      -0.21202100      -0.08464800 
I      11.44839065      20.28135457      17.34720332       53       0.30660200       0.28092000       0.01591900 
I      11.63048006      21.03137572      25.70895889       53       0.03295100      -0.05191800      -0.01531200 
I       6.97667720      13.25686572       1.52847690       53      -0.83508000      -0.71067300      -0.01969200 
I       6.81975947      12.66339527       9.34268397       53      -0.11280200       0.15737200      -0.03720900 
I       7.01122838      12.63408388      16.82773102       53       0.53607500       0.10926700      -0.30342200 
I       7.30042302      13.51609639      24.72522564       53      -0.12668900      -0.09416700       0.56840900 
I       6.52146323      27.02724526       2.30248725       53       0.13451400       0.20766100      -0.06587300 
I       6.49884532      27.75658324      10.26265621       53      -0.16964700      -0.62237000      -0.28148400 
I       7.50424779      26.96702984      17.73815319       53       0.25222900       0.53247600       0.00961900 
I       7.15147231      27.58637342      25.99132206       53       0.35811200       0.19606500      -0.50463400 
I      15.50975033      13.21772253       2.28252948       53       0.30448000      -0.02398700      -0.07448900 
I      15.50268217      13.27926995       9.80066061       53       0.12214900       0.30445800       0.27427200 
I      15.67142009      13.23014739      17.07114553       53       0.38017400       0.07635800       0.10034000 
I      15.28589016      13.36126193      25.70188498       53       0.13849300      -0.33832000       0.12643700 
I      14.77663775      28.09189052       2.25288652       53      -0.16010000      -0.04896600       0.42978800 
I      15.26132026      27.64039079       9.15763830       53       0.23951400      -0.09655400       0.07631900 
I      15.08103525      27.89697473      18.33267006       53       0.43751300      -0.00726200       0.19467000 
I      16.20294449      27.54467838      25.08888031       53      -0.49125800      -0.19248500       0.21825200 
I       6.58010615       1.29072765       5.96720401       53       0.11944100      -0.47280700       0.18354500 
I       6.28867779       0.72502770      14.70033594       53       0.29015300       0.48104100      -0.05887800 
I       7.22479104       1.68483308      22.24044390       53      -0.20507300      -0.31526500      -1.08033800 
I       7.01627843       1.03311932      29.33818728       53       0.31658400       0.18038400       0.54583200 
I       6.58523382      15.38047278       5.57337743       53       0.64053200      -0.14875700      -0.31318200 
I       6.57476574      15.24139986      13.36629953       53       0.30233400       0.01277600       0.11346100 
I       6.54135201      15.99863770      19.22478939       53       0.11542500      -0.13409900       0.55508800 
I       7.64954944      15.86717052      28.77047690       53       0.17034700       0.04994000       0.59219300 
I      15.25304564       1.08644482       6.01722063       53      -0.00342400       0.46359900       0.04083600 
I      14.58835123       0.08621026      14.51988611       53      -0.72463500       0.72768000      -0.20831300 
I      15.54376201       1.38137851      21.88962136       53      -0.77323400       0.37731400      -0.74708200 
I      15.73404076       1.16402592      29.26169382       53      -0.63895700       0.27250200      -0.13605800 
I      15.43739369      15.51066068       5.88624983       53       0.04540000      -0.01397600      -0.04034500 
I      15.68008184      16.05772813      13.66152836       53      -0.09404400      -0.27268000       0.04670600 
I      15.52142103      15.91267755      21.16121577       53      -0.01954400      -0.21757300      -0.11505800 
I      16.29641073      15.66865262      29.02486545       53      -0.06496800       0.19310100       0.71706700 
I       2.87519881       8.05914522       6.51011163       53      -0.80766200       0.45677200      -0.24041500 
I       2.62790525       8.46693755      14.23598300       53       0.07276400       0.10055200       0.19903600 
I       2.94012219       8.69260117      21.81672139       53      -0.02713000      -0.04221800       0.02132400 
I       3.40136939       7.92384786      30.14489936       53      -0.16024000       0.21559700      -0.17759500 
I       2.64286280      22.80292120       6.60180221       53      -0.01485400       0.05095900       0.09030800 
I       3.18049134      23.21908685      14.27639973       53      -0.56217600       0.15325000      -0.34659200 
I       3.07893351      22.73268904      22.21368437       53       0.16122700      -0.01911900       0.12801200 
I       3.46918768      22.98772730      29.31733736       53      -0.12680500       0.14837200       0.13783500 
I      11.40597211       8.57752031       6.44840611       53      -0.17949800       0.22709200       0.48240600 
I      11.61188590       7.79725058      14.30863958       53      -0.59293500       0.34372400       0.63135200 
I      11.98184020       8.52428968      22.25223056       53      -0.60930100       0.10406700      -0.13610200 
I      11.82831569       8.37338794      30.61898922       53      -0.12120900       0.33197100      -0.52633500 
I      10.39781941      22.33918731       5.80217458       53       1.27467200      -0.66315300       0.60457000 
I      11.67870664      22.91317337      13.87874775       53      -0.81345300       0.04276400       0.07205100 
I      11.41515420      23.59254360      20.78585303       53       0.55417000      -0.75118600       0.16135000 
I      12.10180629      23.10587269      29.33867408       53       0.00053800      -0.03463100      -0.19823300 
I       6.82382539       5.40531988       2.52007845       53      -0.30103800       0.38524800      -0.01811700 
I       7.13532172       6.17576069      10.63122102       53      -0.20610000      -0.02582800       0.09678200 
I       7.32555063       6.33536539      18.14385171       53       0.17042900       0.00336200      -0.18554400 
I       7.03457745       6.09223549      25.30495649       53       0.81148200       0.01576300       0.56631100 
I       6.52456226      20.56434253       2.43129046       53      -0.13488400      -0.25583000       0.37388600 
I       7.10466683      20.58450825      10.32534491       53      -0.39819100      -0.08150400       0.00263800 
I       7.28005223      20.51791174      18.18636416       53      -0.28803900       0.10501400      -0.01072100 
I       8.12170743      20.12828619      26.21384640       53      -0.60793800      -0.00204700      -0.05037000 
I      15.67496471       6.09254213       2.76126500       53      -0.45256400       0.11100400      -0.00373100 
I      16.10744864       6.58220187      10.17010319       53      -0.48748500      -0.18693000      -0.12322000 
I      15.76628827       5.52494195      18.86793648       53       0.24789600      -0.05856000      -0.68145700 
I      16.12883423       6.31169051      26.07550176       53      -0.36305500      -0.34731000       0.11188900 
I      15.26706122      20.49564934       1.65358695       53      -0.18427900      -0.08471400       0.47385600 
I      15.06078329      20.08190044       9.83694050       53      -0.10178500       0.10946000      -0.30176400 
I      15.90758820      20.13494708      17.63031586       53      -0.40802900       0.48952400      -0.21657600 
I      15.75638269      20.31052701      24.96760523       53      -0.21976800      -0.00186900      -0.00427600 
I       2.71435508      12.93081335       1.17660793       53      -0.22706200       0.10186400       0.13514900 
I       2.86708806      13.45631602       9.33441989       53      -0.26260600       0.14270900       0.09809800 
I       2.98870908      13.43935761      16.97253915       53       0.35896300      -0.11312700      -0.08615800 
I       2.47879546      12.65142943      24.18148912       53      -0.15492900       0.02383100      -0.05560700 
I       1.62008603      26.77212650       0.72712726       53       0.25279900      -0.17562600       0.50669400 
I       2.70065956      27.17500198       9.47205926       53      -0.20869500       0.37657000      -0.34076200 
I       2.28508421      26.88359279      17.06041009       53       0.26797300       0.08687500       0.21987400 
I       3.27063145      27.97329379      24.68583139       53       0.06823300      -0.36796300      -0.15943200 
I      11.80286610      13.36030462       1.38345507       53      -0.69324800       0.15721000       0.22746100 
I      10.99812995      13.01952852       9.75514304       53       0.11735700      -0.02271000      -0.35273000 
I      11.68091161      13.15441000      17.12493004       53      -0.35431900      -0.07845000      -0.30419400 
I      11.59270624      13.46201194      24.25922450       53       0.14558300      -0.43042100       0.08182800 
I      10.83977866      27.17129637       2.34848107       53      -0.23301400       0.11074600      -0.13631500 
I      11.08256360      27.89373580      10.15611924       53      -0.07897500      -0.27976000      -0.10041100 
I      11.45951322      27.24599309      17.50603374       53      -0.16668900       0.52245300       0.03822800 
I      11.53897635      27.43543814      25.05678420       53       0.54155900      -0.30639400       0.92654200 
I       5.15630048       4.59113045       6.63521306       53      -0.65566900      -0.16478900      -0.21574400 
I       4.58559169       4.65790041      14.69761351       53       0.26899800       0.09460000      -0.18779800 
I       4.94399315       4.80707823      22.23225458       53      -0.03546800       0.67719900      -0.10251200 