320
Lattice="17.9406206885 -0.0377977830722 -0.17329599571 -0.0102221878902 30.9044360912 -0.827928620589 -0.193020087058 -0.954421260219 32.1316595318" Properties=species:S:1:pos:R:3:Z:I:1:forces:R:3 energy=-101588.679185 stress="-2685.361229 -415.775972 -417.502046 -415.775972 -2066.335058 -619.563663 -417.502046 -619.563663 -921.833511" pbc="T T T"
Cs       4.65459502       2.20012696       1.79496192       55       0.04486000       0.02094400      -0.01652400 
Cs       4.02995206       2.55407715      10.08304286       55       0.40083200       0.04041000      -0.00536100 
Cs       3.98932156       2.29205200      18.15479636       55       0.35785500       0.32616500       0.20007600 
Cs       4.76992426       2.05129743      25.55202568       55      -0.11151600      -0.02638800       0.10507400 
Cs       3.92309978      17.48706343       2.23573867       55       0.06386900       0.02835100      -0.40864000 
Cs       4.65324323      17.51196167       9.55262197       55      -0.08336100      -0.15365100       0.00716600 
Cs       4.85099762      17.25930122      17.96563695       55      -0.29630300       0.01074500       0.06023700 
Cs       4.70775383      17.16202853      25.86797733       55      -0.17680700      -0.27544800       0.01921100 
Cs      13.28311225       2.92620292       2.25180686       55      -0.00834800      -0.19904000       0.02519400 
Cs      13.40075769       2.88370009       9.59616286       55       0.00389700      -0.12083600      -0.05443800 
Cs      13.31248855       1.70844809      18.38948803       55       0.37435200      -0.06937700      -0.03698300 
Cs      13.15086237       1.92610413      26.30672034       55       0.22203800      -0.36291200      -0.07382800 
Cs      12.27265709      18.35509697       1.33341596       55       0.22098500      -0.40415000      -0.03247200 
Cs      14.58044539      17.56118817       9.68608039       55      -0.21227300      -0.00264500      -0.05349800 
Cs      12.76946672      17.07805284      17.92928983       55      -0.14447500       0.28070400      -0.04720100 
Cs      13.19872195      18.05485033      25.79718972       55      -0.16541500      -0.40947200      -0.65342300 
Cs       0.23683941      10.38043357       1.26997747       55      -0.11972800      -0.02313600      -0.01891800 
Cs       0.46508988       9.87357426       9.23327671       55      -0.12779900       0.19991100       0.02186600 
Cs      -0.10941564      10.17405090      17.86732620       55      -0.21592300      -0.11368400       0.02527500 
Cs       0.06402764       9.71802813      25.52986735       55       0.09604400       0.12747400       0.12843000 
Cs       0.22513226      25.81707824       0.97542451       55      -0.23019500       0.36426000       0.13672900 
Cs       0.18636704      25.25238836      10.07808863       55       0.13652400       0.14757000      -0.24032200 
Cs      -0.13308415      25.37993318      17.83282316       55      -0.15717600       0.35064600       0.01620700 
Cs      -0.47263370      25.13661121      24.90696456       55       0.14320400      -0.03110100       0.10477000 
Cs       8.08691377      10.65614917       0.64625755       55       0.06181400      -0.01119000       0.05714900 
Cs       9.32939130       9.65336898       9.23253826       55      -0.03474500       0.02677100       0.06004000 
Cs       8.69235722       9.13409838      18.29521853       55       0.03265300      -0.00915700      -0.14747800 
Cs       8.59041983       8.53544719      26.56375495       55       0.32489600       0.58907500       0.04971200 
Cs       8.37459275      25.81827367       1.65620225       55       0.06192100      -0.03165400       0.03951900 
Cs       9.35799083      25.02808029       8.88276451       55       0.27427200       0.15167400       0.04283400 
Cs       9.05810737      24.15085657      16.60746096       55      -0.06708200       0.48810000       0.27881700 
Cs       8.67203693      25.60347255      25.43499156       55      -0.01387200      -0.16663000      -0.12981100 
Cs       0.22264758       5.14822794       5.56196476       55      -0.04666400       0.18181000       0.19128500 
Cs      -0.18480945       4.66858206      14.32158888       55       0.20318800       0.29413200      -0.07639800 
Cs       0.36700005       4.63305004      21.97802678       55      -0.14987800      -0.10226400       0.07965600 
Cs      -0.05885955       4.05152024      30.07259937       55       0.11778900       0.31178200       0.25683300 
Cs       0.11823257      19.66673794       5.58041978       55      -0.18038800       0.17578900       0.15768200 
Cs       0.32734002      19.82429159      12.93506960       55      -0.09886100      -0.07226800      -0.01411800 
Cs       0.01011425      19.85196201      22.34631003       55       0.04450900      -0.05642300      -0.03967700 
Cs      -0.83581745      21.05818724      28.90577188       55       0.34980900      -0.55786200      -0.04300000 
Cs       9.96875168       5.06935780       5.96908990       55      -0.73873100       0.62474400      -0.20227200 
Cs       8.96966370       5.12240564      13.23471498       55      -0.23506900      -0.25658700       0.07333900 
Cs       9.24592809       4.08523540      21.61144841       55      -0.05195000       0.04813900       0.10146500 
Cs       9.39099781       4.05921437      29.92924663       55      -0.14183300      -0.12432400       0.06769600 
Cs       8.55559498      19.83746654       4.96330550       55       0.00445000       0.13735900       0.17727700 
Cs       9.20942662      21.17152612      12.36243439       55       0.27983900      -0.34329000      -0.02991100 
Cs       7.99984712      19.68367572      21.92616529       55       0.18563800       0.09458700      -0.01472900 
Cs       8.77770891      20.23551952      29.62826963       55      -0.27322500       0.15598100      -0.21941200 
Cs       4.95815960      12.93671294       6.05857263       55      -0.60310600      -0.06856800       0.04053800 
Cs       4.02606514      12.34183971      14.53685002       55       0.08549800      -0.16309700      -0.26522300 
Cs       3.98583716      12.47835378      21.30500067       55       0.05412500       0.03589100       0.05857100 
Cs       3.67095281      12.08413223      29.79477437       55      -0.07974200      -0.12518500      -0.11957700 
Cs       4.82520962      27.70278188       6.61366074       55       0.04700200       0.05205100      -0.30550700 
Cs       5.18978956      28.74001971      13.91442743       55      -0.19865800      -0.06963900      -0.27437300 
Cs       5.11791244      28.18845736      20.48848160       55      -0.50934900      -0.41823500       0.01069100 
Cs       3.96645707      27.12101500      29.27256816       55       0.10144400       0.45009100       0.06028300 
Cs      13.49614091      13.39200533       4.89945037       55       0.15997700      -0.21099600      -0.03465100 
Cs      12.71009975      11.54012379      14.57909460       55       0.16580500       0.15780900      -0.28581000 
Cs      12.89615104      12.25453397      20.79880414       55       0.12458200       0.06825600       0.16302500 
Cs      12.81753613      11.86958128      29.56735011       55      -0.01323500       0.05078400       0.10977600 
Cs      13.33551950      27.51518107       5.08198094       55       0.03251500       0.00514300      -0.03532500 
Cs      14.66159239      26.88607416      13.06113451       55      -0.30757600       0.52892200       0.09285900 
Cs      12.99604258      27.30561058      21.13694137       55       0.03159600       0.24129200      -0.01099100 
Cs      13.19888436      27.90412155      30.20601744       55       0.20096300      -0.07384200       0.01418100 
Pb       0.13069430      -0.01897556       4.70084959       82       0.08613800       0.24186900      -0.18803700 
Pb       0.67245512      -0.22779651      12.60909852       82       0.33892200      -0.20529000      -0.33829500 
Pb      -0.11364555      -0.50034245      20.84506880       82       0.29250500      -0.00508700       0.17001500 
Pb      -0.17566466      -0.62027586      29.08690122       82      -0.10283600      -0.72228000      -0.20537000 
Pb      -0.40461726      15.00757002       3.83919370       82      -0.29887100       0.39242800      -0.94871200 
Pb       0.15996872      14.17974329      11.73430198       82      -0.11561400       0.53041300      -0.17216500 
Pb      -0.39838387      15.13534485      19.39709230       82      -0.19410800       0.11424700       0.40815900 
Pb      -0.58370478      14.95306043      27.41058851       82       0.61229100      -0.54570500       0.03320500 
Pb       8.51636167       0.10131497       4.54177568       82      -0.01715800       0.38323000      -0.28152100 
Pb       9.33534626      -0.55742651      12.48656139       82       0.19031500       0.15602200       0.34542000 
Pb       8.96811620      -0.82669385      20.40328224       82       0.04731900       0.56845100      -0.59551200 
Pb       9.07554451      -0.98373099      28.29729597       82      -0.39931700       0.84090800       0.13370400 
Pb       8.40957598      15.04074346       3.38857206       82       0.27519800      -0.29939600      -0.22787000 
Pb       9.66410465      15.07672641      11.25198379       82       0.24988800      -0.04281500      -0.17288200 
Pb       8.79413018      14.56271267      19.38175448       82       0.03077400       0.29487700      -0.05997900 
Pb       8.80981100      14.78585053      27.40880797       82      -0.53766300      -0.43079400       0.43983500 
Pb       4.69411887       7.67202691       3.27801647       82      -0.64929500      -0.27709000      -0.03146400 
Pb       4.30706888       7.39741494      11.53280897       82       0.07018000      -0.04068900      -0.12094800 
Pb       4.16281023       7.19464478      19.74401619       82       0.63584000      -0.47300000      -0.59704000 
Pb       4.06668253       6.61083508      27.68558181       82      -0.27961800       0.18853300      -0.07000700 
Pb       4.16178126      23.36068740       3.17451745       82       0.40360200      -0.32409900       0.43638500 
Pb       5.10928415      22.36245892      11.13074802       82       0.09490800       0.22096900       0.23985300 
Pb       3.82996922      22.55155881      19.51685321       82       0.32913800       0.48536600       0.21974100 
Pb       4.36300290      22.67422002      28.09413339       82       0.26948700      -0.64323500      -1.18564200 
Pb      12.99901350       8.06207102       3.23802555       82       0.81067400       0.33163600       0.59996800 
Pb      13.45149840       6.86601552      11.65536728       82       0.21172600       0.33785800      -0.84064200 
Pb      13.74730933       6.54522867      19.60177010       82       0.10589900      -0.13440800       0.26421800 
Pb      13.42215438       7.16109406      27.70546630       82       0.37351300      -0.49328200      -0.16564600 
Pb      13.44052163      22.30237167       3.01226480       82      -0.00505200       1.34927800       1.29156000 
Pb      14.18438075      22.56141581      11.23769714       82      -0.92585300      -0.45565000      -0.84211700 
Pb      12.86673942      22.71079211      19.01158276       82       0.53432200      -0.29622400      -0.37053500 
Pb      12.95223940      22.71319507      26.70102058       82       0.38575300       0.19920500       0.26412900 
Pb       4.55254061       7.11935791       7.21743160       82      -0.86974500      -0.04488000      -0.11851100 
Pb       4.16430225       7.51567576      15.61670670       82       0.69327200      -0.58964100      -0.95743100 
Pb       4.36298575       7.28980001      23.51596418       82       0.40660000      -0.18914600       1.16294100 
Pb       4.46566159       6.37329052      31.40795627       82      -1.14930300      -0.09874400      -0.34560900 
Pb       4.60355773      22.18127914       7.30074046       82      -0.05724800       0.39213000      -0.02025200 
Pb       4.26321627      22.54723004      15.48048114       82       0.32820500       0.48190600      -0.15400300 
Pb       4.01630801      23.01227553      23.74750637       82       0.70630000      -0.64431200      -0.00386600 
Pb       3.32840410      22.44135731      31.51481864       82       0.47922400      -0.57476200       0.70686700 
Pb      13.69855899       8.12884966       7.16540870       82      -0.23613400      -0.67740900       1.11261900 
Pb      13.34936833       7.04011452      15.62516046       82       0.46668000       0.11491300      -0.11387200 
Pb      12.69306311       7.44096995      23.87798579       82       0.46383500      -0.42972900      -0.44362800 
Pb      13.55384638       6.80887799      31.62592402       82       0.35706400       0.06282600       0.02793700 
Pb      13.58687657      22.85918886       6.87223579       82       0.46527800      -0.07009000       0.52439200 
Pb      13.26132314      22.88164378      15.09724745       82      -0.09818700      -0.95528900      -0.44823700 
Pb      12.85056127      22.35258578      22.93562879       82       0.12053300       0.14892100      -0.25805100 
Pb      12.79123767      22.10138306      31.22402750       82       1.07141800       0.87906700      -0.61923700 
Pb       9.25045559      14.84414717       7.14011804       82       0.10749400       0.40355100       1.21548200 
Pb       8.54654704      14.88722401      15.08419255       82       0.54404800       0.17095300       0.13587300 
Pb       8.81919891      14.08603671      23.49624412       82       0.70175200       0.84251500      -0.06791900 
Pb       8.08218753      14.33656354      31.47583349       82      -0.27315200      -0.98190200      -0.56130600 
Pb       8.83347749      30.79773614       7.79636778       82       0.13246600       0.20440900      -0.34964900 
Pb       9.44241442      30.72681234      15.49305686       82      -0.06327800      -0.48246500      -0.67903900 
Pb       8.89459473      30.24686281      23.42374053       82       0.10342200       0.01015700      -0.04590100 
Pb       8.86536974      29.32802905      31.44940793       82      -0.75251900       1.50862400       0.22452600 
Pb      18.37233335      14.46884670       6.95604098       82      -0.29704000       0.30856900       1.36705700 
Pb      17.45543851      14.66708532      15.61866983       82       0.14553900       0.32273000      -0.70131100 
Pb      17.30391750      14.66582835      23.26681638       82       0.41108100       0.49100200       0.12139600 
Pb      17.26627709      14.94524020      31.43549757       82      -0.41616300      -0.38061000       0.49256100 
Pb      18.33861012      30.62924305       7.47858514       82       0.02568200       0.07086500       0.21815200 
Pb      18.22732416      30.74466308      15.88003320       82       0.18020600      -0.57128100      -0.26022600 
Pb      17.43831410      29.77187659      24.22015116       82       0.84852500       0.57408400      -0.77104100 
Pb      17.32750025      30.45599951      31.98858118       82       0.50645200      -0.27665000      -0.04646600 
I       2.49957563       1.21806756       6.58586421       53      -0.13493400      -0.02791200      -0.32003000 
I       2.78322444       1.09775181      14.98663133       53      -0.22247200      -0.30873800      -0.38406100 
I       2.24700900       0.61765802      22.66867464       53      -0.44942500       0.08424800      -0.06662900 
I       1.93747433       0.37930138      30.99550668       53       0.14744500       0.12860700       0.05159500 
I       2.28060714      16.21396978       5.26535688       53       0.17529800       0.05453100      -0.23377200 
I       2.32051736      15.82065614      13.61690860       53      -0.20189100      -0.06376600       0.03095100 
I       2.05025635      16.22592509      20.93960664       53      -0.09921900       0.02598500       0.09589800 
I       1.46075398      16.15383410      29.69887768       53       0.10172400       0.05500900      -0.10027600 
I      10.84459838       1.78863068       5.96539163       53       0.09812800      -1.02891000       0.05786600 
I      12.29759265       0.35993945      14.40176945       53      -0.66249000      -0.08533800       0.10250400 
I      11.45430402       0.28998106      22.27703864       53      -0.29166200       0.10728600       0.06858200 
I      11.25629238       0.35966909      30.76747915       53      -0.23197300      -0.02145300      -0.21999600 
I      11.27798061      16.36238973       5.05177741       53      -0.51648500       0.10635300      -0.37161100 
I      11.74106600      15.75740427      14.08629092       53      -0.75940200      -0.27992600      -0.03760800 
I      11.07800685      16.36385451      21.84840181       53      -0.30833500      -0.54543600      -0.28918800 
I       9.63746825      16.59035875      30.00498645       53       0.69215000       0.11287400      -0.05167600 
I       6.91603392       8.44748775       5.59176275       53       0.12877500       0.18687300      -0.19733100 
I       6.70246555       8.39909654      13.42100334       53      -0.03633900      -0.05212300       0.15706000 
I       6.54186735       8.42537381      21.49627453       53      -0.19777200       0.08919500       0.06830600 
I       6.61044871       7.78891576      29.79695943       53       0.45905300       0.31179400      -0.73311800 
I       7.07964240      23.71645747       4.85292040       53      -0.64208000      -0.19594200      -0.04610400 
I       7.05866638      23.98593363      13.60880590       53      -0.53864400      -0.23796600      -0.04666600 
I       6.49771714      24.41671214      22.17156943       53      -0.30735100      -0.28316500      -0.15174800 
I       6.65208700      23.83272994      29.94804161       53      -0.09742300       0.02930200       0.06386600 
I      15.92145965       8.69345984       5.41068183       53       0.42193200       0.20908100      -0.45056100 
I      15.69368230       8.32700656      13.27175112       53      -0.13376100      -0.31977900       0.51147600 
I      14.89606313       8.56106773      21.44892742       53       0.30868200       0.56644400       0.70686800 
I      15.49720304       8.55289341      29.67055456       53      -0.37481500      -0.11691100       0.24550000 
I      16.12138397      23.54197210       4.57784034       53      -0.35825200      -0.08535300      -0.04316800 
I      16.41905614      23.60584640      12.81050377       53       0.67310700       0.03652600       0.89468000 
I      15.13969884      24.06659035      20.87440374       53      -0.03144500      -0.39229900      -0.14098100 
I      15.28895610      24.02422068      28.43326530       53      -0.16660100       0.12385500      -0.04322500 
I       2.32014914       6.36257402       1.13194313       53       0.06563400      -0.05932300       0.42235900 
I       1.51764132       6.45086233       9.08796185       53       0.93591600      -0.11401100      -0.05366900 
I       1.84295264       6.90947671      17.43493663       53      -0.66785500      -0.87368300       0.23835400 
I       2.09284190       5.25936359      25.41466824       53       0.26800100       0.28348500       0.10350400 
I       1.17583205      22.13706538       1.10722446       53       0.40200600       0.23792200       0.00760500 
I       2.55279093      20.88069463       9.79693358       53       0.39058600       0.26332200      -0.48308500 
I       1.34729304      22.05839196      17.74739783       53       0.34497500      -0.55530200      -0.36280200 
I       1.89427441      21.77483394      25.88549719       53      -0.23713400       0.02124300       0.03834700 
I      11.28415750       6.16121215       1.63648724       53      -0.31147200      -0.08423700      -0.50264000 
I      10.69863082       5.86745817       9.42849296       53       0.45602900       0.37908300       0.36267600 
I      11.39898839       5.72567916      17.67406097       53      -0.55309100      -0.24732200      -0.22511400 
I      11.47368108       5.08177514      25.85857026       53      -0.31302200       0.53780800      -0.11602500 
I      10.92456508      22.08639024       0.87802067       53      -1.24924500      -0.43333700       0.36997100 
I      11.55614356      21.77015411       8.92704082       53      -0.03944700      -0.17694900       0.11874300 
I      10.67966131      20.95832596      16.02635586       53       0.48557800       0.27944200       0.14485000 
I      10.24027369      21.65156442      24.62748311       53       0.28764600       0.08270600       0.20839100 
I       5.66122076      13.93058944       1.31759493       53       0.69008200       0.19823000       0.28394000 
I       7.34323724      13.49235185       9.60274126       53      -0.07067700       0.41539700      -0.50359800 
I       6.56166710      12.94107903      17.60813074       53       0.13899000       0.47994300       0.05273600 
I       6.57428620      13.40356922      25.34986282       53      -0.31223800      -0.22269800       0.27751900 
I       6.62562008      29.27996267       1.14851370       53       0.05051700       0.10492500       0.05961500 
I       6.98363474      29.12272377       9.55413013       53      -0.14185100       0.05926500       0.38403000 
I       7.00741623      28.76874433      17.00569351       53       0.43279600       0.23950600       0.44897400 
I       6.69356490      29.15186906      25.33117073       53      -0.17365900      -0.41710600       0.07759800 
I      14.82852890      14.31049610       1.04679219       53       0.40332800       0.33495800       0.23842700 
I      16.05939210      13.56552831       9.02400886       53       0.06042300      -0.24249800       0.23199200 
I      14.74505560      14.11152913      16.98994511       53       0.25233500      -0.47449400       0.18379100 
I      15.06714380      13.72324840      24.98922427       53       0.13960600      -0.36742200      -0.25315300 
I      15.32308184      29.94512820       1.87232390       53       0.13111200       0.12795800       0.04434500 
I      16.28363056      29.41352298       9.54162704       53      -0.09282800      -0.00084600       0.28292800 
I      15.78905745      28.99671435      17.14663018       53       0.13662100       0.07562000       0.17838500 
I      15.23652766      28.63927068      25.75085444       53      -0.25280600      -0.12983500       0.42434300 
I       6.26821374       1.12296782       6.84909287       53       0.62749100      -0.20476400      -0.18326300 
I       6.97719656       1.46812328      14.66763612       53       0.46581700      -0.33406700      -0.02446000 
I       6.21511041       0.61851450      22.04152984       53       0.72675400       0.25224500       0.18205200 
I       6.55934887       0.46275349      29.90281098       53       0.39532600      -0.49283200       0.18909600 
I       6.57439717      16.60355488       5.93637345       53       0.10177800      -0.08948100      -0.30858100 
I       7.24307433      16.53737446      12.61968186       53      -0.05221000       0.24408700       0.33148000 
I       6.81704929      15.99494278      21.90586921       53      -0.23757200      -0.24017200      -0.21528800 
I       5.82118242      15.24746509      29.40169377       53      -0.01936500       0.06633600       0.11865600 
I      16.17568373       1.96505295       6.46878370       53       0.19021800      -0.62156200      -0.07795500 
I      16.72398664       1.07110028      14.27860788       53      -1.13139300       0.19603700       0.02851500 
I      15.55598793       0.25680359      22.77430626       53      -0.01783800       0.02784100      -0.11921100 
I      15.41936692       0.86467422      30.40935958       53       0.06879800      -0.21973900       0.29697400 
I      15.83688978      16.55520907       5.97283558       53      -0.16914300      -0.33845300      -0.34485400 
I      15.74421318      15.85190075      13.02887303       53       0.47024000      -0.25880300      -0.04453100 
I      15.21387401      16.39438287      21.37624225       53       0.49841100      -0.20041400      -0.14120200 
I      14.66626314      15.72499753      28.14425571       53      -0.56948500       0.43272400       1.01522600 
I       2.24640876       8.68572536       5.27082963       53       0.35103000       0.03747800      -0.25168900 
I       1.94297230       8.40184351      13.20123790       53      -0.15534200       0.12574500       0.45750600 
I       2.35402672       8.71670163      21.75471540       53      -0.99095400       0.44362600      -0.10717500 
I       1.40996787       8.01360717      29.39052835       53       0.54772700      -0.25091000      -0.21215400 
I       2.69556058      24.43240809       6.13375257       53      -0.11589600      -0.03289900      -0.29853600 
I       3.00681324      23.92757042      12.66051412       53      -0.30060600       0.16978700       0.48687000 
I       1.70959308      23.55133277      21.79289956       53      -0.57450300       0.41296800      -0.10775100 
I       1.84086038      24.06419445      29.32926483       53      -0.71346100       0.45350000      -0.01686600 
I      11.75283367      10.01794892       5.60817696       53      -0.51247900       0.02229500      -0.32128400 
I      11.19203776       8.12058757      13.51341664       53      -0.16422900       0.27433800       0.05355400 
I      10.28258586       7.91664216      21.83265946       53       0.32525000      -0.13361100       0.00689400 
I      11.02951476       7.68050488      29.71302511       53      -0.26433500       0.16970500       0.12491400 
I      11.12642026      24.07066793       5.39471250       53       0.12455300       0.08722600      -0.23018800 
I      11.65995330      24.43152741      12.61187172       53       0.04160000      -0.32570600       0.19290500 
I      10.95188243      24.00200182      21.01431547       53      -0.64953200       0.35092500       0.35563800 
I      11.37316610      24.00881426      29.11423168       53      -0.61702500       0.14134300       0.03307500 
I       6.73662560       6.28252460       1.06064707       53       0.62205700      -0.25626700       0.61717300 
I       6.55583421       6.17311803       9.20119480       53       0.36465300      -0.34313800       0.41409000 
I       6.45935039       5.71866698      17.45941218       53      -0.33143900       0.32214300       0.22657000 
I       6.58803314       5.84131407      25.69016090       53      -0.35325000      -0.48104200      -0.20785200 
I       5.96717015      21.71382463       0.87914347       53      -0.08661300       0.14196300       0.35997200 
I       7.16962146      20.94554949       8.67893007       53       0.19168400      -0.28859800       0.08588700 
I       6.45629776      21.52133518      18.11779956       53      -0.11363100      -0.27099800      -0.39102800 
I       5.90721505      20.61573084      25.78141508       53       0.16245500       0.47978400       0.14607200 
I      16.20860699       7.05083001       1.42998956       53      -0.56079600      -0.07646200      -0.06159000 
I      15.50024256       5.98694166       8.63515413       53      -0.04367500      -0.05856300       0.69256500 
I      16.11199102       6.50581479      17.46906641       53      -0.39874000      -0.24751200       0.12126700 
I      15.58269596       6.83133089      25.16015564       53       0.04294700      -0.19399100       0.33204800 
I      15.10989379      21.44657994       0.86971924       53       0.87285100      -0.78273900      -0.93366700 
I      16.14013457      21.13455152       9.01487820       53      -0.14107500       0.18259000      -0.00659800 
I      15.25243848      21.53400674      17.18277352       53       0.08054300      -0.18692600      -0.04771900 
I      15.34619248      21.12271222      24.99715345       53      -0.08532100       0.03069600      -0.07082200 
I       1.60180464      14.21269782       1.35348506       53      -0.19092800       0.14666000      -0.20919200 
I       2.83692699      13.77538025       9.06329664       53      -0.18834500      -0.10227900       0.15427900 
I       1.92110753      13.34813961      17.71143304       53      -0.04258900       0.20539600       0.10543600 
I       2.17459519      13.82474495      25.67486544       53      -0.27181400      -0.13739400      -0.23804500 
I       2.17468296      29.51376054       1.22785697       53      -0.50985300       0.30700000       0.27756700 
I       2.79580723      29.14683514       9.34568042       53      -0.38341100       0.31085100       0.07731900 
I       2.71979805      29.75798640      17.82379136       53      -0.16614500      -0.31837800       0.25885800 
I       2.14231657      28.83667199      25.90998686       53      -0.15626400      -0.13361100       0.24982300 
I      10.72840157      13.43566324       1.32769807       53      -0.91352300       0.77490700       0.22315700 
I      11.30848576      13.10023062       8.78690010       53       0.21329600       0.20103600      -0.06210300 
I      10.88126429      12.93202806      17.51537545       53      -0.39981200       0.37812400       0.15504500 
I      11.31228189      13.79604253      26.12496352       53       0.22325100      -0.28351600      -0.21991400 
I      10.97350205      29.57644446       1.45415339       53       0.42245700      -0.33050200       0.55963900 
I      11.09624498      29.07842931       9.50453946       53       0.31639300      -0.03008600      -0.29288600 
I      11.32568180      29.27777559      17.68831030       53       0.20512000      -0.46595100       0.02539500 
I      11.15838111      28.71992135      25.23687198       53      -0.16009600       0.10525500      -0.24458800 
I       4.46487674       4.74859416       4.99477911       53       0.04496200       0.47908200       0.06019700 
I       4.16803381       4.81392920      13.96044795       53      -0.06529600      -0.03619900      -0.22290100 