320
Lattice="17.6973083138 -0.191820518742 -0.352440854838 -0.288990936057 29.9577640387 -1.39992794359 -0.556591397159 -1.50460281702 31.3958545004" Properties=species:S:1:pos:R:3:Z:I:1:forces:R:3 energy=-101588.444379 stress="-1085.576912 323.108768 -71.84645 323.108768 2499.470923 46.790902 -71.84645 46.790902 1898.799741" pbc="T T T"
Cs       4.45855873       2.33555285       1.67992879       55      -0.04843600       0.07753800       0.08851600 
Cs       4.91181717       2.31464106       8.50680448       55      -0.18394100      -0.15787800       0.14443600 
Cs       5.24169709       2.25502861      18.17049539       55       0.18090200      -0.45097300      -0.69632600 
Cs       4.56697493       1.14221549      26.09309005       55      -0.13918300       0.13812800       0.00270200 
Cs       4.29095623      17.72518739      -0.09775119       55      -0.13107100       0.13323800       0.34458300 
Cs       3.72731132      16.61636237       8.75847432       55       0.12265600       0.07817800       0.07724300 
Cs       2.83190642      16.82008179      16.42788476       55       0.29818400      -0.50299000       0.04439300 
Cs       2.73062004      16.46088078      24.35382432       55       0.03560000      -0.07810700       0.23401600 
Cs      13.53390207       2.94637118       1.91124384       55       0.16539400      -0.50838300      -0.17540000 
Cs      13.42919350       2.14174323       9.17773972       55      -0.04628800      -0.14592200      -0.07543200 
Cs      13.19779421       0.98727602      17.44231141       55      -0.29296300       0.32024200      -0.00810700 
Cs      13.11657918       1.42385756      25.61781279       55      -0.01370000      -0.21448800      -0.09768700 
Cs      13.49363846      17.10963765       0.27121790       55      -0.12187000      -0.04054700       0.04206200 
Cs      13.10650585      17.66987523       7.50505374       55      -0.24436200      -0.39410700       0.26562200 
Cs      13.05393699      16.59752393      16.07673628       55      -0.39578600       0.02161100       0.05323600 
Cs      12.83030876      16.44219794      23.29020840       55      -0.40164800       0.07081900      -0.00662400 
Cs      -0.60551704       9.90691379       1.95888009       55       0.01470300      -0.04037900      -0.16923900 
Cs       0.36479665       9.45585257       9.11558812       55      -0.14428500       0.02016000       0.06248500 
Cs      -0.49021779       9.02722146      16.09156481       55       0.15323600       0.07624800       0.28122900 
Cs       0.06453119       8.76878651      25.12727091       55      -0.26164300      -0.34211900       0.05857800 
Cs      -0.01924181      24.19812965       1.31075356       55      -0.15096100       0.25756100       0.23288100 
Cs      -0.07529134      24.42967463       8.58863397       55      -0.07166700      -0.00981600      -0.15031700 
Cs       0.52987882      24.18140319      16.12977589       55      -0.15934600       0.05180500       0.40557300 
Cs      -1.28018767      24.45170732      23.87042714       55       0.00392000      -0.05555300       0.13620300 
Cs       9.25523126      10.30133480       1.04423833       55       0.11541100      -0.19507600       0.08591100 
Cs       8.30245770       8.83045248       8.70248129       55       0.11982000       0.20263200       0.02466700 
Cs       7.74257988      10.02059559      17.19277735       55       0.25973200      -0.78899300       0.10012400 
Cs       8.86213433       9.34625203      23.91337954       55      -0.27705100      -0.05790600       0.10007100 
Cs       9.43018855      24.87451385       1.02609265       55      -0.39649700      -0.08415700      -0.16643400 
Cs       9.24605386      24.74916505       8.83725723       55      -0.11184800      -0.20716000      -0.46496200 
Cs       7.72750853      24.51405813      16.10999295       55       0.16115800       0.00991000      -0.03121100 
Cs       6.79844259      23.36438675      24.63371912       55       0.14176200      -0.19060300      -0.14985500 
Cs      -0.10643900       4.44256765       6.82059224       55       0.06271900      -0.15848300      -0.19461600 
Cs      -1.04436717       4.33423074      12.56553783       55       0.17632900       0.37737800       0.39560400 
Cs      -0.78312449       4.28453701      20.99324820       55       0.00709700       0.24072300       0.12578800 
Cs      -0.26304249       4.02475121      28.70630678       55      -0.01717300       0.03428900       0.05045100 
Cs      -0.71365871      19.82212787       4.82587965       55       0.44287000      -0.09517600      -0.38644700 
Cs      -0.56322469      19.62787623      12.60873404       55       0.23585000       0.06154100       0.04260100 
Cs      -0.45674606      19.35769599      19.88918433       55      -0.22488700      -0.05011900       0.01553400 
Cs      -1.39036799      18.99380618      28.50068548       55      -0.08451000      -0.15896400      -0.10348800 
Cs       8.39723070       5.08894097       5.35190912       55      -0.13823000      -0.00672900      -0.27312800 
Cs       8.77550107       4.54653391      13.76616062       55      -0.20767600      -0.06862300       0.04994300 
Cs       8.23126745       4.15124768      21.45522319       55       0.35121500       0.48033400      -0.04742000 
Cs       8.51863202       3.28686655      29.66435289       55       0.10137000       0.34205500      -0.07387800 
Cs       8.33994529      19.91043506       5.46547993       55      -0.09096000      -0.10265000      -0.19247400 
Cs       8.32013757      18.30750127      12.70382022       55       0.08267600      -0.11605000      -0.03960800 
Cs       8.88932658      19.06741863      19.39696653       55       0.14482000       0.02342100       0.26830000 
Cs       7.58698729      18.40218011      28.16190170       55       0.01128700      -0.09478000       0.04790000 
Cs       3.54717762      13.08817384       4.70476673       55       0.30784000      -0.52885800      -0.03208300 
Cs       4.44637637      11.94085033      12.57551801       55       0.23332500      -0.39304700       0.32946800 
Cs       2.75681131      11.99173832      21.09821147       55       0.44161900      -0.33128600      -0.05243100 
Cs       3.35950675      11.42455921      28.88409163       55      -0.01849100      -0.07908900      -0.13807500 
Cs       4.30233878      26.82738205       4.54660923       55      -0.01649700       0.07230300       0.09666000 
Cs       3.21541861      26.88694297      12.26213759       55       0.23829400      -0.04137100       0.24712800 
Cs       3.60247392      26.12904841      20.96076357       55      -0.19235600      -0.11324800      -0.15410100 
Cs       4.76868840      25.93101877      28.77715710       55      -0.45808700      -0.10347100      -0.00458300 
Cs      13.06415007      12.73520375       4.96757829       55      -0.15370700      -0.13349800      -0.14652700 
Cs      13.79174832      12.13847957      11.91163231       55      -0.29407000      -0.33251900      -0.05241200 
Cs      12.82352284      11.81106249      20.91887658       55      -0.06060100       0.05051600      -0.18067700 
Cs      11.86502877      10.70905412      28.13532392       55       0.21458200       0.14449600       0.05952000 
Cs      13.08085869      26.75981122       4.78694112       55       0.14222600      -0.02686200      -0.04307700 
Cs      12.60809975      26.22848245      12.36049334       55       0.25583800       0.31446200       0.04207200 
Cs      13.44361866      26.69377855      19.85525372       55      -0.32753800       0.03204800       0.02465100 
Cs      12.31576690      25.58274343      27.52734900       55      -0.02486900       0.04872700       0.20773000 
Pb      -0.05731811      -0.77827216       4.31457168       82       0.00305100      -0.02462400      -0.40876200 
Pb      -0.51877477      -0.69080045      12.40706517       82       0.06459500       0.10247900      -0.34749300 
Pb       0.06198510      -0.55676186      20.17624365       82       0.02415600      -0.17724700      -0.76936700 
Pb       0.22866490      -1.23648303      27.71157487       82      -1.04648800      -0.32440300      -0.01749500 
Pb      -0.29870748      14.76815616       3.02515706       82      -0.02693900      -0.05794000      -0.11250200 
Pb      -0.34021489      14.31593240      10.85365167       82       0.76665400      -0.39308100      -0.60600000 
Pb      -0.79294113      13.05023333      18.43857950       82      -0.06680700       0.67668300       0.33266500 
Pb      -1.00865460      13.43443036      26.40961715       82      -0.41797200       0.14022000       0.76315200 
Pb       9.50178911      -0.16999199       3.78322309       82      -0.33997800      -0.32379600       0.01863400 
Pb       9.07764958      -0.67398083      11.77153228       82      -0.22858700      -0.03806700       0.10433200 
Pb       8.59006410      -0.81121664      20.18018616       82       0.23711200       0.13441100      -1.10821800 
Pb       8.52000566      -1.46689124      27.56593471       82       0.86867000      -0.44451100       0.61414700 
Pb       7.79870869      14.63333462       2.69404920       82       0.33059200       1.09703300       0.23820200 
Pb       8.57801158      14.08757374      10.66413046       82       0.11134300       0.99476800      -0.51992500 
Pb       8.09475810      14.30574806      18.38236545       82       0.69006800      -0.28227400       0.35409800 
Pb       7.85250351      13.65531628      26.23713260       82       0.10340200       0.00013500       0.05135800 
Pb       3.50356119       7.35606967       3.48794474       82       1.74631600      -1.02561900      -1.32267000 
Pb       4.18137353       6.54950218      11.66994660       82       0.27677200      -0.04838000      -0.03360300 
Pb       3.65241146       6.27770648      19.06396075       82       0.51573000      -0.71499400       0.12883300 
Pb       3.99198810       6.48303641      27.20775847       82      -0.07904800      -0.08732000       0.54132000 
Pb       4.54290854      21.65726273       3.30489726       82      -0.17136800       0.24103600       0.24412800 
Pb       3.97191675      21.40091003      11.01106884       82      -0.03804700       0.27199500       0.18216300 
Pb       3.84213188      20.72610066      19.33467122       82      -0.11569000       1.58896300      -2.00986400 
Pb       2.91043165      21.33926784      26.93292809       82       0.61784400      -0.45706400      -0.02004200 
Pb      13.36719055       6.76002339       3.55645511       82      -0.18761500       0.96850300      -0.09720500 
Pb      12.18020700       6.56169841      11.04150688       82       0.29074100       0.32379600       0.28209100 
Pb      12.36585706       6.74711259      18.90158621       82       0.42400200      -0.45508200       0.30556700 
Pb      12.93938006       6.25853999      26.91636912       82      -0.30696300       0.13620400      -0.30888600 
Pb      12.81686377      22.10617133       2.09126952       82       0.50800200       0.50205100       0.51911600 
Pb      13.31866927      21.93491869      10.12867185       82       0.26856300      -0.12790900      -0.34030000 
Pb      12.48609981      21.55287230      18.23061033       82       0.62460600       0.19003800       0.16568400 
Pb      11.72413389      20.63583509      25.63381080       82       0.71123900      -0.13218600       0.10380500 
Pb       4.02988996       7.30258308       7.56671277       82       0.12037200      -0.73050700       0.11413700 
Pb       3.89587318       6.55486987      15.07659604       82       0.71986800      -0.50625800       0.58572700 
Pb       3.99025965       6.56383220      23.46399622       82      -0.21250000      -0.26355400      -0.98041400 
Pb       3.65277320       6.13534679      31.16836006       82       0.24443700      -0.02868100       0.19893500 
Pb       4.46121978      22.40916820       7.51425393       82      -0.43262700       0.36132500      -1.03610200 
Pb       4.20471941      21.01424026      14.76345745       82       0.15133800       0.37760800       0.81970600 
Pb       2.99363577      21.55967408      22.90565953       82      -0.21864200      -0.30853200      -0.62172000 
Pb       3.59549077      21.14324416      30.74292519       82       0.97129300      -0.61275300       0.65036000 
Pb      12.56410374       6.86465564       7.10789933       82      -0.05380700       0.50810400      -0.88640100 
Pb      13.24669111       6.43683128      15.14991117       82       0.02130200      -0.30969800      -0.42165300 
Pb      12.79671215       6.78171911      22.66047729       82      -0.06342300       0.22025900       0.42706600 
Pb      12.68284996       5.56252547      31.00997957       82      -0.90105500       0.61906400       0.38187500 
Pb      13.03888646      21.57764929       6.04087112       82       0.60767000       0.87138500      -0.59641900 
Pb      12.74799562      21.87498016      13.99675416       82       0.31941500      -0.46974500       0.32640200 
Pb      12.42850222      21.18304592      22.11599491       82      -0.11340900       0.25488200       0.31187500 
Pb      12.21084624      19.95278092      29.91002670       82      -0.06053300       0.44629800      -0.53048200 
Pb       8.53012458      14.57973603       6.74019882       82      -0.10072800       0.99150900      -0.27705200 
Pb       9.03073286      13.98147766      14.35448045       82      -0.13173300       0.68420700       0.55547200 
Pb       7.26668022      14.46241498      22.32506418       82       1.26233600      -0.37900300       0.97589200 
Pb       7.96252328      12.86970121      30.21148046       82       0.43837500       0.80052200      -0.01159200 
Pb       9.23134624      29.51774543       6.43345566       82      -0.44605200      -0.07976100      -0.16646200 
Pb       8.00575616      28.77327107      14.16570849       82       0.24027700       0.34408700       0.24917500 
Pb       8.39800968      28.73986970      22.46627917       82       0.65660600       0.16200900      -0.20439100 
Pb       8.22285219      28.07264605      29.85278193       82       0.62225600       0.11575200       0.24503600 
Pb      17.27008653      14.53139314       6.58395013       82       0.05396400       0.05344100      -0.14204000 
Pb      17.21189131      13.79466705      14.41879459       82       0.50491200      -0.50444600       0.46770900 
Pb      16.72620969      13.98311988      22.57765375       82      -0.36869000      -0.05464600      -0.65525300 
Pb      17.04263570      13.23479518      30.07042702       82      -0.24941900       0.04061000      -0.06069100 
Pb      17.37568508      28.90239093       6.61993723       82      -0.46457300       0.14861600      -0.14180300 
Pb      17.26187642      29.20123419      14.58662007       82       0.52754200      -0.03951400      -0.00515400 
Pb      17.35667518      29.11626198      22.02143202       82      -0.28481900      -0.77437300       0.03184100 
Pb      17.14415002      28.37828514      29.73823194       82       0.18741800      -0.35016100       0.55692900 
I       1.92379686       0.32110489       6.31162222       53       1.34683400       0.33829400       0.30833600 
I       2.03812386       0.12228834      13.68532915       53       0.04807500       0.64351200       0.40585700 
I       2.57315729      -0.25930413      22.07557075       53      -0.10162800       0.28304300      -0.13464900 
I       2.40509097      -0.28160145      29.37615382       53       0.42288900       0.31083300       0.74413200 
I       1.84100404      16.01977199       5.30917178       53      -0.11885300       0.63103800      -0.19558100 
I       2.37729416      14.68349614      12.36193833       53      -0.62437300       0.71262500       0.25572300 
I       1.23982396      15.23009845      21.11921245       53       0.08695300       0.18128700      -0.31001800 
I       1.28666041      14.87906195      28.13639527       53      -0.17710600      -0.22461200       0.01743800 
I      11.73404865       0.54592540       5.74639158       53       0.26411500       0.14085200       0.04735800 
I      11.21272582      -0.33869161      14.06444590       53       0.07872600       0.35470700       0.00050400 
I      11.21694683      -0.06532207      21.97579478       53      -0.31754700      -0.17296500      -0.03042200 
I      10.89311548      -0.69905614      29.67417845       53       0.20256300       0.11282600      -0.23593800 
I      10.19775507      16.71278651       5.15904202       53       0.08800800      -0.29446200      -0.24605600 
I      11.29502509      15.16900432      12.36086598       53      -0.18280000       0.01940600       0.35289600 
I      10.26885513      15.68971566      20.43955075       53      -0.31650200      -0.10906800       0.02172500 
I      10.14569167      14.89354460      28.36752499       53      -0.64286900      -0.52344700      -0.02682600 
I       5.92746483       8.37471733       5.36627582       53       0.02694100       0.12196600       0.14529600 
I       6.68996495       8.01754407      13.48311319       53      -0.34901900      -0.11913900      -0.06606600 
I       6.13762033       7.30447505      21.28520147       53       0.09646900       0.05237300       0.11674300 
I       6.10516048       7.47721629      29.47102394       53      -0.20989700       0.05709300       0.03880100 
I       6.60230196      23.39054135       5.32056622       53      -0.20920200       0.01955900       0.07281700 
I       6.89018685      21.64435094      12.85770221       53      -0.46764700       0.19522000       0.65275000 
I       5.84037469      22.17325554      20.93088054       53       0.14636900       0.27554200       0.63371600 
I       6.32861131      22.02331408      29.20879117       53      -0.62967700       0.10474200      -0.17488000 
I      15.18001225       8.31386800       5.66758786       53      -0.06588100      -0.05624500      -0.17438700 
I      15.12172684       8.13344094      12.88586968       53      -0.47019100      -0.39353100      -0.00972700 
I      14.89073489       7.81939947      20.60794908       53       0.02462600      -0.09147500       0.35178100 
I      14.34387788       7.42615189      29.53332718       53       1.12221900       0.77051500      -0.50144100 
I      15.54008838      22.94949598       4.43691949       53      -0.29973400       0.26836800      -0.28010400 
I      15.91122298      23.11874862      11.55027273       53      -0.55233400      -0.23525400       0.09555000 
I      14.50938126      22.91377548      20.57843671       53      -0.00386500      -0.04656800      -0.37672200 
I      13.85131618      21.99780865      27.50995357       53       0.46261600      -0.49010300       0.34131800 
I       1.81522308       5.55938474       0.72157744       53       0.24012400       0.37614200       0.28533500 
I       2.03696826       5.51015483       9.58254130       53      -0.07486700       0.21393600      -0.11741600 
I       1.83417748       4.92747425      16.68136333       53       0.23252400       0.17126300       0.07567400 
I       1.53968407       5.33529763      25.24702903       53       0.02784900       0.00821500       0.13058700 
I       1.87221909      20.94035427       1.38632736       53       0.60987400       0.07374300       0.04674400 
I       1.55677524      20.52646547       9.26635514       53       0.40645700       0.17257000       0.01401600 
I       1.37865442      19.95389589      16.35296805       53       0.15181900       0.52523000       0.09327400 
I       0.77141290      20.65981625      25.03791714       53      -0.63320500      -0.42367900      -0.15439200 
I      10.82620173       5.95638157       1.29470005       53       0.00462900      -0.03807500       0.53603900 
I      10.41016527       5.36673667       8.64783612       53      -0.33744000      -0.25099600       0.18767800 
I      10.73972209       4.86266160      17.04952568       53       0.28357500       0.04033200      -0.24961600 
I      10.48141697       5.67850163      24.74698170       53      -0.03920700       0.15091400       0.08647200 
I      10.62787081      20.50608788       0.93527307       53      -0.07632300      -0.08721200      -0.71645700 
I      10.90088158      20.78873095       7.90331518       53      -0.47200000      -0.34079700       0.75581200 
I      10.97182703      20.07577492      15.90988800       53      -0.32052600       0.09348100      -0.39316900 
I       9.89485829      19.33140859      23.10520254       53       0.03738000       0.13549500       0.21293600 
I       6.16947264      13.11250188       0.64977767       53      -0.05286200      -0.29783800      -0.05378900 
I       6.99571802      12.64597585       8.55184410       53      -0.85160800      -0.62027400       0.17282700 
I       6.14473925      12.93201634      16.47395709       53      -0.26098400       0.38029200      -0.62384400 
I       5.48068904      12.60228410      24.18486504       53       0.09997100      -0.03871700      -0.11020700 
I       6.52896404      28.90220758       0.47571631       53      -0.01655900       0.01636800       0.28844600 
I       7.19087054      27.61385341       7.90229635       53      -0.23373500       0.32254100       0.07299300 
I       5.85266705      28.34792143      16.29919008       53      -0.12376400      -0.22043500       0.24469500 
I       6.04961938      27.82531515      24.18118417       53      -0.70559100      -0.41108200      -0.25917100 
I      15.29774460      13.33577332       0.87420868       53       0.13533500       0.20907000      -0.12633700 
I      15.11688839      13.30693687       8.30443887       53      -0.66532700      -0.57119900       0.40184200 
I      14.68645749      12.19469659      15.78505555       53       0.49538000       0.13359900      -0.08015600 
I      14.02810103      13.10983290      24.13480163       53       0.18423500      -0.29562900       0.22221300 
I      15.42536792      27.66064229       0.44920988       53       0.14703900       0.18253400      -0.27868500 
I      15.06590923      27.41633419       8.35791952       53       0.31232400       0.15654300       0.10715200 
I      14.85564075      27.97222588      16.17647557       53       0.25122700      -0.25313300       0.25084400 
I      14.81836822      27.78908227      24.04074915       53       0.36329000       0.06420600      -0.27716100 
I       7.17260098       1.20132547       5.66228062       53       0.25247700       0.01819700      -0.02915000 
I       6.43660828       0.44149433      13.35087639       53       0.51819400      -0.35553200       0.05374300 
I       6.83140095       1.03868531      21.96427744       53      -0.26145200      -0.45621800       0.36335800 
I       6.68976673       0.26085715      29.49154227       53      -0.48265200      -0.28759200       0.18801200 
I       5.68773453      16.16684823       4.74648227       53       0.57585100      -0.40624500      -0.29651500 
I       6.11683144      15.14730463      12.26805037       53       0.36285800       0.22458500       0.15957900 
I       5.59997639      14.87880625      20.10412475       53      -1.37205700       0.62189400      -0.86024000 
I       5.62839461      14.45586097      28.79989346       53       0.16951300      -0.29993900      -0.61209200 
I      16.00159955       0.89523642       5.99557877       53      -0.69872100      -0.20590700      -0.11780000 
I      15.63108239       0.91315316      14.34241802       53      -0.43349000       0.21991500      -0.65022400 
I      15.30162071       0.58726631      21.27232833       53       0.29496300      -0.12023900       0.26771000 
I      15.59842631       0.40866878      29.25158401       53       0.24513500      -0.23778600       0.08012900 
I      15.19875158      16.30918909       4.72653976       53       0.23125900      -0.51620800      -0.26688500 
I      15.64682965      15.39715485      12.56965180       53      -0.78876900       0.62233200       0.00487900 
I      14.83541182      14.92536619      19.99232501       53       0.21910200      -0.22048200       0.16622300 
I      14.46312063      14.03759260      28.50130887       53      -0.06208500       0.43052500      -0.14603600 
I       1.60440554       7.64116963       5.41229661       53      -1.82423700       0.76073600       1.52775900 
I       1.68263543       7.64402394      13.40377527       53      -0.43711700       0.24775300      -0.32958700 
I       2.14327148       8.03215952      21.01328486       53      -0.48593900       0.13975700       0.55176000 
I       1.72667208       8.00526954      28.97009060       53       0.05088500      -0.35464900       0.09367100 
I       2.36525452      23.25016580       4.98659712       53      -0.06887900       0.09030600       0.03035700 
I       2.24153010      22.97349399      13.24030459       53       0.14646800      -0.10326700      -0.26041500 
I       0.87121661      22.90350690      20.40507009       53       0.57337600      -0.32502600       0.25139600 
I       1.06560105      21.80772450      29.37503192       53      -0.73280000       0.54279300      -0.34659600 
I      10.46259042       8.83905604       5.28262274       53       0.14031500      -0.44560200       0.07671400 
I      10.90921854       7.86090985      13.61522512       53      -0.33034700      -0.04101700      -0.43172100 
I      10.87393907       8.73173102      20.87742467       53      -0.39173700      -0.11099200      -0.15999900 
I      10.50943380       6.92210854      28.93896574       53      -0.23277000       0.14050900      -0.03328400 
I      10.87948714      23.55673056       4.14189982       53       0.12225200      -0.18302100       0.22863800 
I      10.78656251      23.08651078      11.69823599       53       0.29655300      -0.42532500       0.46609400 
I      10.24920103      22.95789241      20.02714759       53       0.12575200      -0.29210600      -0.10173500 
I      10.06151034      21.48721921      27.95585027       53      -0.67397400      -0.01005600       0.29353200 
I       6.42590760       6.12446374       1.83022109       53      -0.27986800       0.16216700      -0.18841300 
I       6.21900284       5.65726080       9.46656614       53       0.18386500       0.18887000      -0.45162600 
I       6.51898584       5.73509228      17.34635804       53      -0.19671800      -0.15236000      -0.03458000 
I       5.68144315       4.70513739      25.25221931       53       0.46334400      -0.09956200      -0.07605300 
I       6.92641775      21.11818173       1.26233039       53      -0.55747300       0.01190000       0.05287500 
I       6.53616621      21.28230553       9.22213217       53       0.70753300      -0.48078800      -0.03592900 
I       5.97761743      19.48306064      17.35101711       53      -0.44051900      -0.10043800      -0.21503100 
I       4.64113644      19.70130038      24.61977860       53       0.41010200       0.44395600       0.27869400 
I      15.46532231       6.01569571       1.40576540       53       0.56446100      -0.15219800       0.38102400 
I      14.63208388       6.02328441       9.04534336       53       0.89980500      -0.71395400       0.52642600 
I      15.43706663       5.91419427      17.37543236       53      -0.14423200      -0.31661700      -0.17881800 
I      14.49158940       4.92248813      24.32498786       53       0.71540500      -0.40603500       0.56099400 
I      15.20357418      20.61071023       0.55399873       53       0.16523900       0.03849900      -0.48560100 
I      15.49441942      20.41794125       7.56449870       53      -0.29147100       0.19307400       0.64204000 
I      14.97235427      20.27269355      16.51953685       53      -0.15292600       0.16266900      -0.23911200 
I      14.54657847      19.58324097      24.03109207       53      -0.36065200       0.61737500      -0.21044700 
I       1.85863535      13.27609546       0.96549308       53      -0.06618400       0.18874600       0.29936200 
I       1.86958380      13.10052369       8.46623661       53      -0.05783400      -0.00896800       0.07072200 
I       2.11722987      12.68908187      17.21485068       53      -0.51412800       0.08251200      -0.04675200 
I       1.15801032      12.07434680      24.69289253       53       0.20566900       0.39419200      -0.18366600 
I       2.36802558      28.52944265       0.55902152       53      -0.43047200       0.24382200      -0.07109200 
I       1.65592484      27.96473332       8.84791531       53       0.35378500      -0.26912300       0.38713400 
I       1.90819726      27.80507829      16.29783032       53      -0.11271700       0.02287700       0.47249600 
I       2.03935577      27.94073333      24.30494030       53      -0.02995500      -0.38352800      -0.46228800 
I      11.22842948      14.19984722       1.14689834       53      -0.63722600      -0.34732200      -0.10678700 
I      10.83776169      13.62946892       8.35601169       53       0.56451600      -0.15338200      -0.02203100 
I      10.69887474      12.89358326      16.61932174       53      -0.00690300      -0.23890800       0.09741600 
I      10.01046379      12.98015705      24.06756678       53      -0.18547500       0.14366000       0.33941300 
I      11.10332152      28.12235861       0.06963227       53      -0.31590700       0.14394200       0.12727300 
I      11.45171183      28.21135758       7.99772346       53      -0.27100900       0.11735400       0.19047000 
I       9.99580373      27.49675833      16.53490057       53       0.20502800      -0.20831700       0.01635300 
I      10.65793423      27.22151962      24.41747146       53      -0.50532900       0.29175100      -0.40519300 
I       3.87309519       4.52422965       5.47357209       53       0.21116600       0.14043600       0.25086800 
I       4.32019507       3.86270471      12.87059021       53       0.02637800      -0.39313400       0.40987300 
I       3.53072966       3.57779108      20.72797083       53      -0.37686800       0.39437100       0.79592700 