320
Lattice="17.241925272 -0.272004286541 -0.337030722512 -0.424534382171 30.0964276749 -1.21460513399 -0.520023501481 -1.31779575472 31.4824189186" Properties=species:S:1:pos:R:3:Z:I:1:forces:R:3 energy=-101591.114572 stress="2293.765326 1524.994645 1066.318308 1524.994645 43.741397 98.055826 1066.318308 98.055826 -405.429653" pbc="T T T"
Cs       4.23074026       2.48111724       1.56262712       55       0.10369700       0.10442000       0.37487800 
Cs       4.73670337       1.90058194       8.57113291       55       0.14483700       0.24736400       0.51482600 
Cs       4.20012619       1.81190287      17.20728039       55      -0.13439000      -0.08325700       0.01873200 
Cs       4.45250867       1.25918658      25.82804069       55       0.14737900       0.00171500      -0.10534900 
Cs       4.28252355      17.00752319       1.01252779       55      -0.09433800       0.04703400      -0.17106600 
Cs       3.37910597      16.90175023       8.74420298       55       0.09485000       0.19214700       0.09300500 
Cs       3.54169729      16.13244207      16.17716104       55       0.05760600       0.09391300       0.09803900 
Cs       2.66983371      16.90083009      24.94871108       55       0.17681900      -0.06171200      -0.06118500 
Cs      13.32120013       2.21716173       2.59889758       55      -0.23424100      -0.04537300      -0.28292100 
Cs      12.56123390       1.87112350       9.51998777       55       0.04726800       0.01540200       0.11446600 
Cs      12.82780835       1.70079803      17.92951283       55      -0.02650200       0.10735700       0.02800900 
Cs      12.32983168       1.60244855      26.09770109       55       0.07728100      -0.14265700      -0.11120100 
Cs      12.89222334      17.01746173       0.36730146       55      -0.15138200       0.14240100       0.12615200 
Cs      12.40450874      16.92248611       8.02946032       55       0.04408100       0.39847400      -0.00493900 
Cs      12.54501860      16.88755331      16.19438850       55      -0.01779700      -0.10315200      -0.08492600 
Cs      12.31515688      17.29404793      23.69492268       55       0.14989200      -0.41603500       0.03983400 
Cs      -0.55111841       9.82726916       1.63971634       55       0.14123700      -0.18519300       0.03548600 
Cs       0.11996889      10.23293665       8.92114063       55      -0.16517700      -0.08399000       0.22468800 
Cs      -0.19805939      10.15437421      16.14104393       55       0.07220600      -0.61335500       0.02408200 
Cs       0.08661518       8.62442109      25.28268356       55      -0.23586000       0.07524800      -0.26583700 
Cs       0.02249899      24.62948365       1.27031734       55      -0.13447000       0.00586000      -0.09487800 
Cs      -0.57672907      25.13104195       8.77105435       55      -0.09103100      -0.20485000       0.06680600 
Cs       0.90069178      24.70619294      16.52277383       55      -0.62833900       0.07833400       0.10436800 
Cs      -1.56374118      24.56862457      24.61985677       55       0.20090400      -0.00849500      -0.06045500 
Cs       9.06607706      10.42060534       0.96798790       55      -0.17283800      -0.22996200       0.28128300 
Cs       8.25089036       9.08889563       8.91263375       55      -0.14226500       0.03836900       0.02855400 
Cs       7.74421685       9.19901899      16.80111622       55       0.14422300       0.07643300       0.08553100 
Cs       8.41761045       9.15881367      23.78713391       55       0.05611100       0.32481500       0.16136400 
Cs       8.18073981      25.46085202       0.27996699       55       0.32717100       0.13101200       0.26815600 
Cs       8.35845215      24.43033592       8.93672865       55       0.45068000       0.48940500       0.19400000 
Cs       7.93520498      24.30268928      16.14663800       55       0.25044400       0.37909400       0.36666600 
Cs       6.82134764      23.52410251      25.12672618       55       0.26875000       0.26979600       0.05462700 
Cs       0.43106542       3.99341152       6.04141726       55      -0.17094500       0.06155900       0.04805600 
Cs      -0.83153657       4.70325566      12.74947051       55       0.31308800      -0.02999200       0.29476300 
Cs      -0.26234971       4.61047058      20.96657478       55      -0.11040400      -0.01582600       0.16950500 
Cs       0.10217648       4.20723900      28.77373933       55      -0.07233700      -0.00841100       0.08662100 
Cs      -0.43940904      19.91924281       4.43954355       55      -0.26229600      -0.09952900       0.24503000 
Cs      -0.37620113      20.13486210      12.61316758       55      -0.08420900      -0.30116400       0.03122300 
Cs      -0.60503387      19.07019087      20.17280564       55      -0.20997300      -0.06958000      -0.09834200 
Cs      -1.02704924      19.10089496      28.68457348       55       0.04381600      -0.17190600      -0.05443900 
Cs       8.73960622       5.09819111       5.90512225       55      -0.42407200      -0.62076900      -0.17070000 
Cs       8.21909297       4.49321067      13.48145745       55       0.50914700      -0.01504200      -0.04852000 
Cs       7.96875658       4.24971203      21.12930461       55      -0.04010900      -0.03961500       0.06788800 
Cs       7.93137699       4.10044894      29.79381724       55       0.21319400      -0.07593000      -0.05893500 
Cs       7.83755996      19.92909923       5.51201324       55       0.17229900       0.00468500      -0.10711500 
Cs       7.23694574      18.87569036      12.55577141       55       0.32952000       0.33214800       0.07874800 
Cs       9.03597353      19.51106818      19.32801406       55      -0.58486900      -0.35792900      -0.09990400 
Cs       6.79560638      18.78657200      27.75195470       55       0.05548500       0.17763000       0.51520700 
Cs       4.41156130      12.85019059       4.71159830       55      -0.30005600      -0.19359600       0.13185500 
Cs       4.68462325      11.97627103      12.79960348       55      -0.16556400      -0.22179000      -0.18322200 
Cs       3.22052668      12.15986734      20.99165611       55      -0.04183300      -0.03410600      -0.06127200 
Cs       3.26003744      11.67619148      28.66050925       55       0.05432000      -0.17326600       0.05800000 
Cs       4.07740083      27.01816111       5.24581674       55       0.04538500       0.23484700      -0.19110300 
Cs       2.67476290      26.68353859      12.90484612       55       0.27430600       0.31652300      -0.02135800 
Cs       3.51791109      26.08784566      21.23139205       55       0.03903100       0.25461800      -0.02618800 
Cs       3.46429542      26.09113839      28.54148524       55       0.43019400       0.08551700       0.07976300 
Cs      12.62624945      12.60833436       5.01340138       55      -0.12979500      -0.18698100      -0.13953600 
Cs      13.14018418      11.99642019      11.70206631       55      -0.11972800       0.00808100       0.40698900 
Cs      12.00449569      12.26535634      20.76505348       55      -0.50048600      -0.61810700       0.05742400 
Cs      12.03204557      10.66546639      28.49517729       55       0.08987900       0.30609200       0.16440400 
Cs      12.50288197      26.69418851       5.38566172       55       0.19461000       0.14531800      -0.12966300 
Cs      11.92169663      26.78231747      12.45488214       55       0.02121700      -0.14080000       0.04740300 
Cs      12.46202661      26.75672264      19.64072826       55       0.00803800      -0.09136600       0.07873300 
Cs      12.13983592      26.33160748      27.10121048       55      -0.23338100      -0.39491700       0.44645500 
Pb       0.29694908      -0.88585273       3.76536931       82      -0.50952300       0.58410100       0.09799800 
Pb      -0.28795146      -0.64387085      12.25823859       82       0.29498800       0.09381300      -0.25156500 
Pb       0.14549446      -0.80063261      20.12972809       82      -0.29795500      -0.04651400       0.44437300 
Pb      -0.05244719      -1.01283846      27.98326094       82       0.69584200       0.47589800      -0.72467200 
Pb      -0.17760153      14.89998912       2.97825489       82      -0.21097200      -0.51466600       0.53427500 
Pb      -0.40281702      14.83683364      10.83549405       82      -0.32636300      -0.16685900       0.15229600 
Pb      -1.04590921      13.61312899      18.68538293       82       0.49993900       0.09476400      -0.13214200 
Pb      -1.18077947      13.61682242      26.75150058       82       0.42119100       0.16176500      -0.10555700 
Pb       9.16390414      -0.44326870       4.07656380       82       0.67544700       0.51440700      -0.54527600 
Pb       8.73612056      -0.67139897      11.96692613       82       0.09481000      -0.67134500       0.13190300 
Pb       8.27167669      -0.84429193      19.76400275       82       0.07483300      -0.17934000       0.32883300 
Pb       8.13985477      -1.10797337      27.78928185       82      -0.00520700      -0.07497800      -0.56612600 
Pb       7.91504889      14.72642336       2.73999909       82       0.30163400      -0.06417100       0.14226800 
Pb       8.34083388      14.40439592      10.52679286       82      -0.23435500      -0.18270200      -0.01422500 
Pb       8.00021559      14.38276464      18.68488626       82      -0.50733500       0.00143700      -0.34833500 
Pb       7.44350409      13.84480131      26.30366282       82      -0.76395600       0.25640100       0.86962500 
Pb       3.42475003       7.06376783       3.62490794       82       0.07004700      -0.18466900       0.81641200 
Pb       4.46147463       6.67639042      11.53409562       82      -1.41703800      -0.60141600      -0.58023800 
Pb       3.93163824       6.01324108      19.39886214       82      -0.16417100       0.47678000       0.29178900 
Pb       3.72333855       6.86547494      27.54726237       82       0.57091300      -0.29347000      -0.21110500 
Pb       4.09207563      22.10318044       3.79403030       82       0.85471000       0.53205700       0.25780700 
Pb       4.18443626      21.84096727      11.41418114       82      -0.14021300      -0.08388400       0.52444900 
Pb       3.79131736      21.05727618      19.30225301       82      -0.38949400       0.01047200       0.58565700 
Pb       2.82428621      21.53621578      26.91807622       82      -0.26532000       0.13417100       0.39474300 
Pb      12.98106763       7.09026598       3.81703883       82      -0.65372800      -0.36297500      -0.94902600 
Pb      12.22947075       6.44948899      11.27539779       82      -0.03010000      -0.48113300      -0.41172700 
Pb      12.42825833       6.85219619      19.04270134       82      -0.32249600       0.01463500       0.03413400 
Pb      12.35217435       6.57110326      27.02698657       82       0.14407300      -0.46258400       0.56014100 
Pb      12.43018965      22.40803484       2.45735379       82      -0.64770200      -0.49396200      -0.41843800 
Pb      12.70657797      21.52822141       9.80342756       82       0.09511800       0.60817000       0.84526800 
Pb      12.62752380      21.74882431      18.11058913       82      -0.42126100       0.58035700      -0.03321100 
Pb      11.81858417      20.83750735      26.11345632       82      -0.23054300       0.40381900       0.24418900 
Pb       3.30560333       7.18410873       7.83703854       82       0.67536800      -0.11683900      -0.09070400 
Pb       3.75719587       6.53659986      15.34518518       82      -0.04229900       0.06307600      -0.27819200 
Pb       4.03768724       6.70892293      23.62027234       82       0.33290900      -0.33466000       0.09055300 
Pb       3.74945281       6.06379257      31.53060376       82      -0.18712500       0.14653300      -0.28369200 
Pb       3.98889688      22.66651698       7.51860263       82       0.24646500      -0.24873200       0.42926200 
Pb       3.62632674      21.13408837      15.32173834       82       0.11542800      -0.01196200      -0.72303000 
Pb       2.73804799      21.98034921      22.78416869       82       0.52242900      -0.52493100       1.17045500 
Pb       3.72523424      21.26178251      31.40732532       82      -0.60423200      -0.12728500      -1.22214900 
Pb      12.59366945       6.96495729       7.49218066       82      -0.56548300      -0.50390700       0.80581800 
Pb      12.85779414       6.98425655      14.97553883       82      -0.19961100      -0.25272200       0.68871200 
Pb      12.39206405       6.63578736      23.29023075       82       0.01694500      -0.94190700      -0.53115300 
Pb      12.29561422       6.11389884      31.31142461       82       0.18108000      -0.17788400       0.03343300 
Pb      12.72116076      22.03273209       5.87798000       82       0.07834000      -0.17683600       0.78831800 
Pb      12.73391711      21.77161715      14.22644217       82      -0.07155900       0.40757400      -0.53514700 
Pb      12.03268670      21.52563413      21.95532626       82      -0.36374800       0.41641900       0.01480700 
Pb      12.44104734      20.65492913      30.05634405       82      -1.06422400       0.00531300       0.02778200 
Pb       8.01000473      14.77880426       6.77475177       82      -0.17425700       0.01133000      -0.52740100 
Pb       8.49714250      14.34064878      14.40249627       82       0.08496400      -0.43689800       0.47354600 
Pb       7.07745719      14.32762826      22.65801406       82      -0.17461600       0.17792400      -0.17948900 
Pb       7.85640805      12.88748212      30.27307344       82      -0.77197900       0.18997700       0.07385100 
Pb       8.69960175      29.49284526       6.61984810       82       0.19709900       0.28237300      -0.08563600 
Pb       7.81244400      29.56967130      14.69504845       82      -0.05816900      -0.52148500      -0.25007900 
Pb       7.96498795      29.01329421      22.55279516       82       0.46769000      -0.30493200       0.50066600 
Pb       8.10925753      28.76063273      30.36964497       82       0.05784800      -0.50136800       0.01890800 
Pb      16.64242315      14.66312244       6.71212760       82       0.03466300       0.30208900      -0.25224200 
Pb      16.87223539      13.78120753      14.55357096       82       0.16298300       0.45627700      -0.16873600 
Pb      15.93849167      13.85865392      22.51203182       82       0.22340800      -0.31051000       0.14998700 
Pb      16.77621002      13.15931623      30.45529449       82      -0.24161500       0.05408700      -0.50322800 
Pb      16.94243343      29.44908898       6.17880852       82      -0.24390500      -0.36409400       0.00284800 
Pb      16.44194962      29.24867580      14.51178556       82       0.13674400      -0.09097900       0.28462100 
Pb      16.73291678      28.80572074      22.71208881       82      -0.09752200       1.02019500      -0.36884600 
Pb      16.59137596      28.16947027      29.81064696       82      -0.47499000       0.40433300       0.18738600 
I       2.99688928       0.71058916       5.80525503       53      -0.78761100      -0.41629900      -0.20756100 
I       2.12316364       0.35603515      14.20110557       53      -0.30158900      -0.07501500       0.05213300 
I       2.47609009      -0.16249436      22.19261443       53      -0.25935700      -0.07860600      -0.01994100 
I       2.13152112      -0.06849132      30.20554679       53       0.26141400       0.04707000      -0.57873700 
I       1.65285658      16.43317957       5.09808129       53      -0.05330600      -0.16403500       0.21899900 
I       1.63228791      15.72920752      12.81116563       53       0.26389900      -0.12385800       0.01073600 
I       0.78140458      15.50514271      21.28795416       53       0.36078400      -0.11046600      -0.39354000 
I       1.39477911      14.92304614      28.64008998       53      -0.22900400      -0.03564900      -0.04789600 
I      11.41848405       1.06582190       6.04125104       53      -0.35912400      -0.35322800       0.01041200 
I      10.90365689       0.52063099      13.96579225       53      -0.50642900      -0.27820100       0.08746400 
I      10.87528085      -0.18678318      21.45186930       53      -0.33455700       0.03805100      -0.07690100 
I      10.91000489      -0.68017891      29.04041272       53      -0.28227800       0.35104000       0.43216500 
I       9.80950545      16.65218854       4.94749240       53      -0.07781300      -0.46834600       0.13969600 
I      10.76947227      15.46361753      12.23168404       53      -0.10922200       0.00443100       0.12042900 
I       9.15677649      16.01548294      21.10245522       53       0.47809200       0.17648200      -0.30425400 
I       9.85897454      13.97738705      28.49470831       53       0.60098100       0.67532700      -0.17556100 
I       5.66229542       8.45398975       5.94326269       53      -0.09962900       0.14978000      -0.20423400 
I       6.43255340       7.92469655      13.07282176       53       0.86002200       0.68421200       0.90200200 
I       6.26699190       7.48271209      21.50731734       53      -0.31767900      -0.04743300      -0.36039800 
I       5.63560730       8.07471059      29.99587084       53       0.26225800      -0.07612400      -0.15827500 
I       6.40746317      23.84122054       5.88127174       53      -0.30221100      -0.14647300      -0.20019000 
I       6.28018755      22.32028086      13.99541691       53      -0.15894500      -0.38910400      -0.67442200 
I       5.57293168      22.69396990      21.76873800       53      -0.10440000      -0.00107400      -0.67627900 
I       5.83827037      22.35578949      29.36155761       53      -0.72217400      -0.12461100      -0.29015800 
I      14.78231465       7.94260867       5.88870808       53       0.97716300       0.96504600       0.44571800 
I      14.59604794       7.77506738      12.54048615       53       0.78615400       0.57402200       0.02031800 
I      14.24778356       8.04788693      21.45698648       53       0.15645300      -0.13431300      -0.08337800 
I      14.63954698       7.90751856      29.13636092       53      -0.62628800      -0.56305600       0.24370500 
I      15.02599831      23.34112358       3.91535863       53       0.06475900      -0.19486400       0.51234500 
I      14.87631175      22.80930542      11.62103433       53       0.19805000       0.27109600       0.30229800 
I      14.66037487      23.20728031      20.06010292       53      -0.66618800      -0.29496200       0.11942300 
I      14.25203600      22.09033010      28.20216306       53      -0.26660900       0.23442800      -0.39790700 
I       1.74054724       5.78641881       1.17576123       53       0.03512900      -0.00028000       0.01401000 
I       1.78275807       5.32548038       9.81595932       53       0.01365500      -0.10801300      -0.09932900 
I       1.68048166       5.35893601      17.24250011       53       0.04665000      -0.22917500       0.14360700 
I       1.79308742       5.37428459      25.29762847       53      -0.01924200       0.02712200       0.38192700 
I       2.10692361      21.08333702       2.06750486       53      -0.91988300      -0.30810900      -0.71949500 
I       1.95324976      20.95923243       9.50111988       53      -0.08615900      -0.07760000      -0.42090200 
I       1.18789822      20.08480926      16.60674335       53      -0.30112700      -0.01674400       0.42034200 
I       0.57618985      20.73911335      25.04542013       53       0.10673800      -0.04937400       0.02737100 
I      10.42280478       6.41688722       1.96036554       53       0.08022100      -0.00115200      -0.64310700 
I      10.09435118       5.18052119       9.33541590       53       0.15362000       0.13606800      -0.07796800 
I      10.87894460       5.24094394      16.67185289       53      -0.38468000       0.16556000       0.50274700 
I       9.77066649       6.13363542      25.41847299       53       0.20559200      -0.25839200       0.03154600 
I      10.36514741      20.48415447       1.19966121       53       0.30428100       0.13582100      -0.14204300 
I      10.13596145      20.99125045       8.32052147       53      -0.05002100      -0.21798200      -0.63384100 
I      10.39615327      20.64423469      15.87739514       53      -0.12304400      -0.18667500       0.11396600 
I       9.71802934      19.84646244      23.74173522       53       0.28095900       0.23089600      -0.00794900 
I       5.84682672      13.00110697       1.12945130       53       0.40409400       0.15044200      -0.12139100 
I       6.11071494      12.61461310       9.08561181       53       0.37369900       0.48120900      -0.20717300 
I       5.99448500      13.01696906      16.07386851       53       0.40020900       0.20808200       0.19409300 
I       4.89480578      13.03942451      24.41885689       53       0.07382800      -0.07257900       0.12365700 
I       6.23041571      29.28735844       1.15168612       53      -0.02555400      -0.28501200      -0.50764800 
I       6.60562249      27.69821832       7.78599334       53      -0.19873800       0.03183800       0.41206400 
I       5.58879278      27.80022166      16.53390559       53       0.41443300       0.36181800      -0.15805700 
I       5.45400265      27.52660366      24.35964615       53       0.57553700       0.41170700       0.03229000 
I      15.15018997      12.79015371       0.58162067       53       0.00759500       0.44785700       0.01887900 
I      14.28822337      13.37436661       8.47530443       53       0.32949500      -0.01423200      -0.04442400 
I      14.35375637      12.51183902      15.72450490       53       0.05755700       0.06987800       0.16596500 
I      13.56516676      12.96828259      24.51946715       53      -0.20737300      -0.11806600       0.13879500 
I      15.20957583      27.64604125       0.09204897       53       0.00347800      -0.08351800       0.29955900 
I      14.66350237      28.38319979       8.28472888       53       0.05116500      -0.42037000      -0.33418500 
I      14.76322316      27.16776356      16.56654100       53       0.25550700       0.47833700       0.06366700 
I      14.32016026      27.83139375      24.85527002       53       0.08389400       0.14812100      -0.42081200 
I       7.28031319       1.22767216       5.77053298       53      -0.30332900       0.16523300       0.36636500 
I       6.17355678       0.22101647      13.23148120       53       0.09026700      -0.04636100       0.30934300 
I       6.76996010       0.91725535      22.17845411       53      -0.33897700      -0.12255100      -0.54791100 
I       6.07621550       0.05435772      29.97868790       53       0.34344000      -0.11303000      -0.33217200 
I       5.86084654      16.41055789       4.34135831       53      -0.10440300      -0.20855400       0.19272500 
I       6.09003051      15.50215966      12.44604678       53       0.01229100      -0.25470100       0.07533900 
I       5.08437511      15.46432594      19.65225776       53       0.54850800      -0.26627600       0.16262600 
I       5.49770353      14.59269684      28.95890780       53       0.09908200       0.11355000      -0.07566300 
I      15.06969622       0.32754335       5.28672553       53       0.78163200      -0.31366200       0.42542600 
I      15.11649293       1.23378270      13.70120749       53       0.14581500      -0.66136300       0.13029900 
I      15.31345408       0.33690804      21.89040965       53      -0.21715300       0.24098100      -0.34103200 
I      15.64089256       0.65703088      29.28787193       53      -0.66440900       0.06851100       0.03622900 
I      14.66836825      15.74709689       4.23389546       53      -0.36748500       0.35752900       0.24821200 
I      14.87894653      15.56949338      12.89706151       53       0.10395100      -0.20582700      -0.13821000 
I      14.12773057      14.79458818      19.90129012       53      -0.44598100       1.05359800       0.06510400 
I      14.34781304      14.35636741      28.87541913       53      -0.18688300       0.05535500      -0.10897000 
I       1.02753206       8.15273975       6.13846370       53       0.34126100      -0.14019700      -0.51596700 
I       1.51624200       7.56109545      13.34869065       53       0.29984400       0.14425500       0.21062800 
I       1.89225217       7.83336390      21.74734812       53      -0.13332300       0.12661500      -0.35497900 
I       1.70356934       8.02305988      29.48177979       53      -0.22678800      -0.27976800       0.09094900 
I       2.06128251      23.99225466       5.40751760       53      -0.17997800      -0.28914000       0.10374300 
I       1.70282333      23.16976122      13.20259958       53       0.20392600      -0.20182600       0.28144800 
I       0.99584450      22.51289755      20.55962800       53      -0.27736000       0.43537300      -0.73764700 
I       0.69844920      22.44247788      29.24666534       53       0.48963700       0.03724900       0.14535900 
I      10.34162142       8.08401691       5.61866479       53       0.37989300       0.53140200       0.09356000 
I      10.50296906       8.04393922      13.20535408       53      -0.12144800       0.08263500       0.14899000 
I      10.01569376       8.85404634      20.20307045       53       0.15793000      -0.24848700       0.15461800 
I      10.11383645       7.41886997      29.41392861       53       0.24109800      -0.06074300      -0.15812600 
I      10.24865329      23.59253446       4.68343300       53       0.31202400      -0.35623100      -0.23502600 
I      10.77759823      22.83064286      12.18242867       53      -0.40155500       0.32685800      -0.20442000 
I       9.79646712      22.80744139      20.21400036       53       0.25941700       0.23904300      -0.09574800 
I       9.42161652      21.47044333      28.98087647       53       0.61866200      -0.13149800      -0.51127500 
I       5.95493565       5.93474988       2.20886659       53       0.25356700       0.06491400      -0.06923900 
I       6.15854954       5.54734180       9.36052592       53       0.10742100      -0.01854300      -0.09547600 
I       6.03356339       5.25843953      17.25823259       53       0.16625400       0.07274000       0.26387900 
I       6.08384478       4.94344871      25.50876775       53      -0.46578700       0.39836200       0.01392200 
I       6.02356351      20.78642950       1.42131782       53       0.48982900      -0.15399200       0.40970000 
I       6.57124573      21.53603076       9.49743139       53      -0.37509700      -0.72146300      -0.14577400 
I       5.20884973      19.36404708      17.38435655       53       0.66406900      -0.38737800      -0.35944700 
I       4.79386802      20.41136816      24.86944617       53       0.20362800      -0.40180400       0.07060400 
I      15.13735545       5.76945354       1.96931072       53      -0.26269200       0.31685900      -0.14090600 
I      14.82039573       4.72550434       9.35744889       53      -0.54719900       0.52525900      -0.32953500 
I      14.88223035       5.63676490      17.45038426       53       0.04460400      -0.02575800      -0.05180500 
I      14.79130040       4.89860508      24.55039683       53      -0.58201000       0.35235800       0.17555400 
I      15.00530201      20.78063853       0.51032638       53       0.17347900      -0.09547000       0.24093900 
I      14.90644695      20.57810804       7.92668821       53       0.18637500       0.09377900      -0.40929100 
I      14.52400269      20.18796624      16.30744741       53       0.43517800      -0.13657200       0.17863900 
I      14.11382849      20.76310436      24.06593044       53       0.47246100      -0.66182100       0.18199000 
I       2.10189943      13.61907529       1.31094316       53       0.44604100      -0.26117000       0.01373900 
I       1.77830181      13.48733747       8.65039090       53      -0.08360200       0.29303300       0.07881500 
I       1.93554640      12.93614089      17.37926113       53      -0.19638700      -0.20176600      -0.14280400 
I       1.05669170      12.55913241      24.45507987       53      -0.46668300       0.15820900      -0.00315600 
I       2.08074701      28.87162676       0.40903145       53       0.58941800      -0.46321100       0.42358900 
I       1.75287221      28.00518212       9.37737345       53      -0.25920100       0.22446700      -0.14907800 
I       1.84016216      28.42324285      16.81741266       53      -0.14243100      -0.09876200      -0.39721200 
I       1.57835761      27.59338035      24.36920674       53       0.26552100      -0.00750200       0.54777600 
I      10.66783798      13.75453623       0.82085499       53       0.28534600      -0.17632200       0.33875500 
I      10.54771672      13.84295805       8.02538596       53      -0.21966200      -0.30662400       0.28146000 
I      10.46722495      13.03438549      16.76647530       53      -0.34909600       0.25356800       0.03138700 
I       9.60445100      13.45756538      24.43282823       53       0.52413400      -0.23296400      -0.90233700 
I      10.83781320      28.30722365       0.54186157       53      -0.28283200       0.38341200      -0.10769700 
I      10.86581821      28.33670683       8.51400685       53      -0.27698700      -0.05639500       0.16668100 
I       9.74130897      27.67950676      16.28335647       53       0.02229900       0.57328000       0.21926300 
I      10.40288912      27.39946755      24.08484780       53      -0.47730800       0.37088200      -0.06438400 
I       4.16476103       4.97336327       5.85563140       53      -0.11900100      -1.03940100      -0.05848200 
I       4.80037433       3.91622831      13.61397097       53      -0.62442100       0.23062200      -0.20072100 
I       3.50657057       3.65568723      21.49691279       53       0.20358100       0.53009600      -0.26543000 