320
Lattice="17.3661086287 -0.186443110066 -0.182405131602 -0.282798108661 30.3578686527 -1.22523633914 -0.249642721003 -1.34622716514 31.2630174691" Properties=species:S:1:pos:R:3:Z:I:1:forces:R:3 energy=-101586.120458 stress="436.699775 -671.594539 -1196.622067 -671.594539 -1721.265245 -369.570355 -1196.622067 -369.570355 496.503599" pbc="T T T"
Cs       4.32694543       2.42341189       1.54240380       55       0.03069400       0.05329600       0.31332400 
Cs       4.88870864       2.12534214       8.39062813       55      -0.05954100       0.11389500       0.39637300 
Cs       4.97999487       2.21579167      17.72352121       55      -0.39618500      -0.23072200      -0.10913100 
Cs       4.73753496       1.31893863      25.87538778       55      -0.03977300      -0.09937100      -0.01418100 
Cs       4.32993282      17.56673120       0.49697435       55      -0.02958500       0.01901200       0.10570100 
Cs       3.60316898      16.91828117       8.71548538       55       0.17099300       0.16726200       0.20785100 
Cs       3.28641046      16.78515067      16.21058237       55       0.18582800      -0.16498100       0.24928200 
Cs       2.94245253      16.97740716      24.61062816       55       0.01671600      -0.11608000      -0.10475000 
Cs      13.34374342       2.82078739       2.46488484       55       0.10769500      -0.46566000      -0.27142500 
Cs      13.00087073       2.10445119       9.39187252       55       0.06198300      -0.01420400       0.09840600 
Cs      13.12447861       1.39318079      17.74054845       55      -0.04122600       0.11596500      -0.09819700 
Cs      12.86338340       1.72388905      25.87983965       55       0.10526800      -0.25244000      -0.11685400 
Cs      13.26827243      17.13903324       0.31946668       55      -0.35124100       0.52847700       0.61199300 
Cs      12.92523537      17.54239540       7.82843023       55      -0.38452100       0.03168400       0.15712700 
Cs      12.94690460      17.00369363      16.20408081       55      -0.03308700       0.02071800       0.03195500 
Cs      12.79883318      17.25727531      23.55799610       55      -0.08344900      -0.30809600      -0.11286700 
Cs      -0.64605675      10.02974934       1.80205929       55       0.37539600      -0.13471800       0.04532200 
Cs       0.42381050      10.00301234       8.91631886       55      -0.20544200      -0.09311300       0.24141200 
Cs      -0.10956111       9.76578160      15.84409672       55      -0.26650300      -0.01619600       0.70934200 
Cs       0.46869464       8.92815060      25.13952710       55      -0.40117700      -0.16638400      -0.12380500 
Cs       0.18106145      24.57817779       1.23451735       55      -0.31092700       0.33343800       0.39559000 
Cs      -0.12360888      25.10841645       8.71575372       55      -0.13301200      -0.07663100      -0.05268400 
Cs       1.08684101      24.72620762      16.09606043       55      -0.45586000       0.08720100       0.66286900 
Cs      -1.17020081      24.88504534      24.15091452       55       0.15568700      -0.12615900       0.03678600 
Cs       9.20580865      10.53702955       1.03718319       55      -0.20014600      -0.06071500       0.21588400 
Cs       8.38573760       9.03488274       8.77493219       55      -0.18661100       0.20897300       0.30000600 
Cs       7.81697378       9.86075826      17.00768209       55       0.15272300      -0.12887500      -0.03815000 
Cs       8.87437161       9.31301312      23.82524432       55      -0.10179300       0.40435300      -0.02057300 
Cs       8.84896938      25.50423240       0.75038176       55      -0.03831800      -0.12147000       0.14400900 
Cs       8.81045907      24.91052778       9.01358978       55       0.25175600      -0.08366100      -0.04488300 
Cs       7.85481176      24.68829538      16.15753217       55       0.41134400       0.10098900      -0.03248700 
Cs       7.02434970      23.80789131      24.94454661       55       0.08200900      -0.06088800      -0.24889600 
Cs       0.29794102       4.36406354       6.43857349       55      -0.21437300      -0.24752100      -0.06026500 
Cs      -0.88338651       4.43406771      12.58955539       55       0.19920000       0.49407900      -0.08318600 
Cs      -0.30489015       4.45281094      20.78724083       55      -0.03837600       0.29104000       0.26100400 
Cs       0.21911925       4.24545708      28.57656169       55      -0.08200300      -0.03400200       0.05382600 
Cs      -0.61337863      20.33094035       4.68104287       55       0.45138100      -0.75516200      -0.03285900 
Cs      -0.29013638      20.29490946      12.53702602       55      -0.04486900      -0.54121900       0.19212100 
Cs      -0.16203602      19.61899563      19.97254946       55      -0.36983900      -0.45755600      -0.00110500 
Cs      -0.91337924      19.44807666      28.53180528       55       0.08225300      -0.34587800      -0.15933500 
Cs       8.70102371       5.28155701       5.76600451       55      -0.31912300      -0.19155100      -0.20345000 
Cs       8.56069060       4.61166153      13.63682857       55       0.03967700       0.06928000       0.02006400 
Cs       8.11397809       4.46029675      21.27166457       55       0.48835700      -0.59096600      -0.01526200 
Cs       8.42051690       3.84162260      29.67982493       55       0.10453000      -0.06714300      -0.07167300 
Cs       8.13444226      20.10208559       5.61240389       55       0.04528600       0.28315500      -0.04773600 
Cs       7.82722023      18.76217780      12.63632484       55       0.22475900       0.26864600       0.16737800 
Cs       9.30521045      19.67499164      19.36009764       55      -0.49551600      -0.27141600       0.11270600 
Cs       7.44040803      18.87686015      27.84481919       55       0.07591400       0.02219900       0.17245600 
Cs       4.01701821      13.25836859       4.71844517       55       0.01761100      -0.30470600       0.11516700 
Cs       4.69072590      12.23494701      12.64353538       55      -0.02214900      -0.24711300       0.14809300 
Cs       3.15363742      12.28997759      21.04426539       55       0.10147400      -0.01240400      -0.15942500 
Cs       3.56699353      11.83482869      28.70272128       55       0.06723200      -0.21077700      -0.06188700 
Cs       4.25860081      27.15107607       4.97098022       55       0.07899100       0.27453500       0.02262400 
Cs       2.97018467      26.84483333      12.62219588       55       0.47096600       0.92087100      -0.07898100 
Cs       3.79212221      26.46788933      21.08737412       55       0.06761400      -0.01710400       0.01533800 
Cs       4.54430413      26.31561853      28.57378520       55      -0.35753400       0.24892800       0.12543700 
Cs      12.93533626      12.92081023       5.11526913       55      -0.23924300      -0.14581800       0.04516400 
Cs      13.66920864      12.41832747      11.68509574       55      -0.42906100      -0.45890300       0.73779100 
Cs      12.54022531      12.14644122      20.87161260       55       0.21247100       0.50153200       0.04278400 
Cs      12.17345844      10.71014673      28.20435869       55      -0.09463900       0.64545300       0.34100000 
Cs      12.76280229      27.07533477       5.31349942       55       0.22987000      -0.02431000      -0.22532700 
Cs      12.31722651      26.84174098      12.52342185       55       0.19877800       0.05359000      -0.00482900 
Cs      13.21941765      27.11627500      19.80116708       55      -0.22224000      -0.00460200       0.10039800 
Cs      12.51021772      26.35183656      27.30583818       55      -0.05427000       0.03642300       0.07988400 
Pb       0.03550708      -0.90663311       4.05676922       82       0.70683700       0.32005600      -0.16109800 
Pb      -0.40973104      -0.66345729      12.39321141       82       0.62033500       0.05071700      -0.64421400 
Pb       0.41562166      -0.53485490      20.01777225       82      -0.61715800      -0.45175700       0.16514100 
Pb       0.42133305      -1.09284946      27.65460842       82      -0.26949000       0.10826200       0.26240300 
Pb      -0.28062861      15.06846522       2.95039283       82       0.57044100      -0.22119100       0.35896100 
Pb      -0.19134750      14.73526565      10.78828033       82      -0.26522400       0.21206900       0.26894900 
Pb      -0.67340866      13.39941365      18.29264546       82      -0.24127500       0.61919100       1.09354700 
Pb      -0.60699490      13.68730924      26.54860137       82      -1.06152400       0.25211400      -0.63862700 
Pb       9.29535711      -0.23031924       3.99048320       82       0.00626200      -0.17298800       0.09183400 
Pb       8.91793683      -0.57041149      12.00682994       82       0.22336400      -0.19171300      -0.62749900 
Pb       8.66830599      -0.69790685      19.90606838       82      -0.60553400      -0.24761200       0.31904100 
Pb       8.48961703      -1.17141676      27.58802139       82       0.12239300       0.03826700      -0.05819900 
Pb       7.79921282      15.00292481       2.87703094       82       0.37675800      -0.74930100      -0.36850400 
Pb       8.58520859      14.48218104      10.69851304       82      -0.16184200      -0.22309300      -0.16297400 
Pb       8.34867791      14.60443040      18.61581444       82      -0.74776600      -0.05699200      -0.34268200 
Pb       7.88329248      14.02937592      26.43292586       82       0.29919400      -0.29698900      -1.30161400 
Pb       3.45233791       7.27559652       3.42540485       82       0.06493600       0.29472300       0.87525800 
Pb       4.36470122       6.68351481      11.77280245       82       0.37998100       0.28629300      -0.81918300 
Pb       3.97820292       6.19837319      19.17442193       82      -0.13371500       0.43639000      -0.02860500 
Pb       4.04413247       6.91458857      27.21388753       82       0.25943700      -0.37504400       0.31879000 
Pb       4.48587028      22.03781009       3.60722973       82      -0.65236200       0.47603900       0.07262000 
Pb       4.05273620      21.94464844      11.33047746       82       0.90909800      -0.27014700      -0.63147600 
Pb       3.99787197      21.27557382      19.33079804       82       0.23784200      -0.56182500      -0.07330500 
Pb       3.23409993      21.74674392      26.98525656       82      -0.42935600       0.13046000      -0.69027800 
Pb      13.15807067       7.20257922       3.71949603       82       0.14064800      -1.05603700       0.76890800 
Pb      12.06826900       6.54427288      11.11256129       82       0.91423700       0.50155900       0.59936300 
Pb      12.49449357       6.90788402      19.15453998       82       0.11761200       0.35128700      -0.82589200 
Pb      12.83642658       6.60150266      27.01496808       82       0.07756500      -0.00759000      -0.29447900 
Pb      12.55994586      22.72249102       2.47418961       82       0.50168400      -0.97849000      -0.25099000 
Pb      13.10320249      22.06080716       9.99025676       82      -0.03873300      -0.21126500       0.41688100 
Pb      12.78561815      22.13251147      18.37800445       82      -0.48823800      -1.01189400      -0.76710400 
Pb      11.89573702      21.03138010      26.05772162       82       0.41890800       0.22305300      -0.78926400 
Pb       3.66968968       7.40334834       7.75211066       82       0.30114700      -0.16180800      -0.23596000 
Pb       3.91466169       6.57412005      15.06753939       82       0.15742500       0.52555500       0.54580900 
Pb       4.30015991       6.88594447      23.53834784       82      -0.41315300      -0.43444900      -0.21345400 
Pb       4.00984233       6.18004979      31.30963840       82      -0.13667300       0.37922100      -0.39009500 
Pb       4.36325357      22.89976600       7.52937624       82      -0.15097100      -0.43394000       0.39025400 
Pb       3.95947949      21.35188449      14.94601189       82       0.58566700      -0.04404900       0.55223000 
Pb       3.13093443      22.13258079      22.77412526       82      -0.09312100      -0.11870300       0.15407400 
Pb       4.10515862      21.62421237      30.93213197       82      -0.74865900      -0.38901700       0.49154400 
Pb      12.55593758       7.05180756       7.29226234       82       0.42683500      -0.04490100       0.56202600 
Pb      13.17684559       6.83887202      15.07459744       82      -0.19842100       0.19534800       0.17554200 
Pb      12.77185952       6.88666137      22.94860989       82      -0.03677800      -0.01321900       0.19359300 
Pb      12.63726948       6.03534797      31.17511767       82       0.53734600      -0.16699700      -0.37683200 
Pb      13.02691757      22.01133944       6.05147711       82      -0.63258400       0.37239600       0.23158900 
Pb      12.81055203      22.36144445      14.20241984       82       0.22584800      -1.12087600       0.09098000 
Pb      12.41737987      21.84186119      22.03556038       82       0.15788200      -0.98468300       0.24437400 
Pb      12.67019415      20.60320981      29.85784750       82      -0.23346900       0.23136300       0.70732000 
Pb       8.37496339      14.95913383       6.70579400       82      -0.24241800      -0.54792000       0.77982600 
Pb       8.99713388      14.38296045      14.41515238       82      -0.55502400      -0.07682400      -0.10066900 
Pb       7.33940708      14.64264167      22.49104891       82       0.12823000      -0.01004900      -0.17041200 
Pb       8.27762514      13.04966907      30.20812184       82      -0.25363800       0.32858300      -0.12057100 
Pb       9.18838930      29.86499467       6.66111977       82      -0.67723700       0.05392600      -0.03480700 
Pb       8.08986904      29.60000604      14.55917494       82      -0.11512300      -0.20115500      -0.29568600 
Pb       8.65457706      29.34243292      22.60127740       82      -1.83967300      -0.07938700      -0.46174300 
Pb       8.53179499      28.79252422      30.26613287       82      -0.49725200       0.47631700      -0.91664900 
Pb      17.00848018      14.77535828       6.82486485       82      -0.27934600       0.18577300      -0.05797600 
Pb      17.11147537      14.00230127      14.69833369       82      -0.06186600       0.14005600      -0.55834000 
Pb      16.60307329      14.16803761      22.70735702       82      -0.56291400       0.12032500      -0.44575200 
Pb      17.16800707      13.53372248      30.43517346       82      -0.12564100      -0.32892800      -0.65576400 
Pb      17.19918902      29.53948389       6.62298474       82       0.35056900       0.03778300       0.15579200 
Pb      17.03074650      29.69212998      14.84391579       82      -0.45312700      -0.23391300      -0.85016600 
Pb      17.29768777      29.42028728      22.41806923       82      -0.29062400      -0.15718900       0.34888400 
Pb      17.08042116      28.83760739      29.86922771       82       0.32030100      -0.76800500      -0.38089800 
I       2.49676486       0.61169532       6.07560498       53      -0.09570200      -0.19955400      -0.03078900 
I       2.20593833       0.24398282      13.72803856       53      -0.02591100       0.04799900       0.45058000 
I       2.65267757      -0.21529911      22.07464104       53       0.24168800       0.19351100      -0.10191700 
I       2.64556407      -0.04368998      29.79134364       53      -0.44723500      -0.19757900      -0.44415600 
I       1.87941856      16.40987117       5.29360460       53      -0.12223400      -0.02102200      -0.17969000 
I       2.18387302      15.37049967      12.53062645       53      -0.03468200       0.04698700       0.11191200 
I       1.22296188      15.76058938      21.20019195       53      -0.04411800      -0.58243600      -0.08843600 
I       1.38467708      14.98437367      28.28815120       53       0.93280500       0.59998500       0.03893300 
I      11.66165408       0.93823390       6.06147007       53      -0.28019600      -0.22087900      -0.29283100 
I      11.19729150       0.14950818      13.99605220       53      -0.18754700       0.01078200       0.14501100 
I      10.98771270      -0.09385181      21.95100543       53       0.88231200       0.26092500      -0.91973700 
I      11.14406604      -0.61414603      29.26877398       53      -0.12013100       0.01124400       0.08071800 
I       9.87635270      17.05214046       5.32726894       53       0.56683100      -0.31799700      -0.53974200 
I      11.31660991      15.60803043      12.29212233       53      -0.58699700      -0.18520900       0.21444000 
I       9.89926164      16.13558173      20.72335106       53      -0.01965100      -0.09812600       0.24067200 
I      10.20390028      14.67743780      28.35245586       53       0.03654200      -0.00098500       0.29375400 
I       5.87443780       8.47823484       5.77840362       53      -0.10092800       0.15089800      -0.25330600 
I       6.92454687       8.28200671      13.30699762       53      -0.86426800      -0.59606800      -0.10731200 
I       6.43569403       7.34855739      21.46905220       53      -0.17830800       0.69630900      -0.32634800 
I       6.01378370       7.91298519      29.75654950       53       0.38632500       0.13351900      -0.33940400 
I       6.54970702      23.88394651       5.84601550       53       0.23142800       0.12639900      -0.52308500 
I       6.95983809      22.35696683      13.46844645       53      -0.60772200      -0.17486500       0.06288800 
I       6.05676867      22.78295376      21.48384558       53      -0.39197800      -0.11143100      -0.41709500 
I       6.46964652      22.46315141      29.43459646       53      -0.02036800       0.24793900      -0.58242100 
I      15.17442403       8.11173037       5.92437783       53      -0.99489400       0.38585800      -0.10235300 
I      15.02435144       8.19604074      12.82923090       53      -0.37870500      -0.24444800      -0.00389200 
I      14.64046128       8.25103171      21.01323593       53       0.17415300      -0.41141000       0.16366400 
I      14.71060705       7.96947728      29.33066852       53      -0.12338100      -0.35042000       0.04625800 
I      15.34458155      23.15898283       4.29752800       53      -0.19575700       0.94038400       0.14419500 
I      15.66870903      23.20268568      11.71538553       53      -0.56083100       0.32104000      -0.01176800 
I      14.68741392      23.27233932      20.22212089       53       0.34314200       0.51917300       0.70972300 
I      14.27013766      22.38765963      27.95911240       53      -0.07310400       0.00210300      -0.12929900 
I       1.81387220       5.71902217       0.80859479       53      -0.09803600       0.02933400       0.49866600 
I       1.94921875       5.46251251       9.55469078       53       0.17358200       0.13508900       0.40643300 
I       1.80685674       5.28132827      16.77956107       53       0.32975600      -0.10206500       0.34885600 
I       1.81811713       5.37184811      25.06729006       53       0.26754800       0.35766500       0.25703800 
I       1.86330922      21.27923256       1.76934156       53       0.64460200      -0.05219900       0.13727400 
I       1.79136627      20.94124743       9.49000490       53       0.27330400       0.18526900      -0.22382500 
I       1.45257512      20.16814585      16.35765272       53       0.17989000       0.34392300       0.23010700 
I       1.03587614      21.01846609      24.82611541       53      -0.18595600       0.01279400       0.46985600 
I      10.64424887       6.31731235       1.75260643       53      -0.16199300      -0.08902000      -0.05404200 
I      10.22291681       5.29888823       9.13818291       53       0.23992200       0.30388100      -0.33787600 
I      10.83400514       5.10744468      16.78828559       53       0.26088900       0.19371600       0.25995800 
I      10.17179845       6.11072786      24.95416329       53       0.43428100      -0.14227800       0.29574000 
I      10.51299476      20.72436798       1.43278724       53      -0.01984700       0.13193300      -0.59070400 
I      10.39142765      21.18741558       8.24340530       53       0.69102900       0.02684900      -0.07478600 
I      10.86762195      20.55945349      16.14872942       53      -0.06170800       0.32829500      -0.58607900 
I       9.84899485      19.71448026      23.28669999       53       0.48354800       0.50925900       0.44819900 
I       5.56643649      13.03877108       0.93483261       53       1.40764500       0.56219500       0.07324500 
I       6.56793238      12.64236399       8.85879104       53       0.25173300       0.53076400       0.02112100 
I       6.07281067      13.01344213      16.36366612       53       0.45097400       0.40420800      -0.22133000 
I       5.28718225      12.95966513      24.24999748       53       0.39364600       0.26169300       0.00161800 
I       6.35395220      29.50585025       0.96039822       53       0.28703700      -0.17637600      -0.01574100 
I       7.07054485      27.83223492       7.89438751       53      -0.13925800       0.51706800       0.08183400 
I       5.90595344      28.38224264      16.44090558       53       0.01713300       0.20951400       0.02260900 
I       6.03419936      28.02936114      24.24843100       53       0.02092200       0.14266200       0.13128000 
I      15.38798140      13.26250163       0.81503793       53      -0.71095400      -0.11305600       0.29678600 
I      14.63411815      13.54827921       8.66065680       53       0.41130700       0.11000200      -0.56995700 
I      14.61888513      12.58142200      16.02986155       53      -0.11078700      -0.07081100      -0.66806500 
I      13.79133125      13.28574624      24.27324308       53       0.61268300       0.04850500       0.19563800 
I      15.37060661      28.03471607       0.57211362       53      -0.23723000      -0.10965500      -0.29254400 
I      15.02426628      28.35461843       8.54608040       53      -0.35557400      -0.23158000      -0.14874100 
I      14.84534760      27.77007104      16.47964660       53       0.27781300       0.57415900      -0.00078800 
I      14.60642463      28.15935375      24.57473986       53       0.49225200       0.16288200      -0.08674100 
I       7.24194208       1.20354532       5.70098296       53       0.02426900       0.13062300       0.10314500 
I       6.41083838       0.43723445      13.10751376       53      -0.08348200      -0.11782200       0.48826500 
I       7.16886140       1.03415718      22.19893513       53      -0.54385500       0.17127000      -0.56608500 
I       6.55979404       0.30635463      29.69426185       53       0.24013900      -0.11316800      -0.19309800 
I       5.91336597      16.44441777       4.55370990       53      -0.34579200       0.24091200       0.24210100 
I       6.16065007      15.54159886      12.34174352       53       0.14994400       0.02493200       0.11625300 
I       5.34287923      15.49534034      19.78838081       53       0.73003700      -0.35214300       0.28401900 
I       6.05703503      14.67243043      28.68242544       53      -0.85413800       0.38848800       0.63301700 
I      15.70613410       0.60144095       5.84229933       53      -0.67741600       0.33650500      -0.30862800 
I      15.60630949       1.19819139      14.02918284       53      -0.57110400      -0.02956600       0.31718900 
I      15.31951697       0.59322043      21.60315507       53       0.30127200      -0.09695100       0.00732600 
I      15.83959137       0.70910090      29.27236241       53      -0.08597600      -0.14327900      -0.04994600 
I      15.06630859      16.21461738       4.66517613       53      -0.36550000       0.14912600      -0.10195900 
I      15.21430674      15.85189641      12.83619289       53       0.50086500      -0.44002900       0.02445800 
I      14.68449386      15.02461681      19.88491899       53      -0.14371500       0.15437800       0.38037800 
I      14.59856255      14.47403478      28.96519978       53       0.15972200      -0.10517100      -0.87775400 
I       1.02937359       7.98172489       5.84298454       53       1.37822700      -0.02632500      -0.32561400 
I       1.46972217       7.91940654      13.47546192       53       0.91284800      -0.70788300      -0.45481400 
I       2.18232833       8.17862733      21.21199497       53       0.21752000      -0.32893000       0.25640300 
I       2.07908164       8.31886836      29.10997686       53      -0.22302500      -0.35300000      -0.04331700 
I       2.39822749      23.93108530       5.20777627       53      -0.22953700      -0.06820600       0.13360700 
I       2.29416390      23.51009288      13.11249439       53      -0.55571900      -0.36753000       0.44832100 
I       0.88945338      22.96071591      20.43220568       53       0.91793400       0.19217800       0.08773400 
I       1.04239454      22.36909265      29.31255703       53       0.57442800       0.18417500      -0.31220900 
I      10.42533855       8.54849051       5.74439370       53      -0.09600200       0.13384600      -0.69743000 
I      10.79062212       8.18610225      13.57123271       53       0.08564700      -0.26797400      -0.30586700 
I      10.76362272       9.31100007      20.49263673       53      -0.51696100      -1.06370300       0.19332100 
I      10.58525854       7.35861867      29.15299846       53      -0.13948200      -0.02363500      -0.02975700 
I      10.72567186      23.84743637       4.41108847       53      -0.50008700       0.22086700       0.50267500 
I      10.97002204      23.23817889      11.92904984       53      -0.25294000       0.14819100       0.30905200 
I      10.34402051      23.02240449      20.25286518       53      -0.51175500       0.64740800      -0.27961700 
I      10.09193104      21.81220116      28.48477441       53      -0.19959700       0.00838400      -0.15851700 
I       6.11473019       6.12908294       1.97553096       53       0.21649200      -0.02590800       0.36476000 
I       6.46279938       5.57642548       9.38584526       53      -0.66879900       0.36857100       0.19756900 
I       6.48221099       5.64485922      17.24945086       53      -0.21461600      -0.04921000       0.09372700 
I       6.16551584       4.77192511      25.35549062       53      -0.23037300       0.56004400      -0.13314600 
I       6.52164812      21.23419395       1.53741228       53       0.01952000      -0.06935000      -0.38989700 
I       6.73613032      21.97319451       9.47798602       53      -0.25862200      -0.69678800      -0.18049600 
I       5.93673931      19.61740044      17.42231060       53      -0.51749400       0.32386600      -0.05683200 
I       4.77068045      20.24177905      24.62351742       53       0.56472000       0.35856100       0.22233100 
I      15.30862295       5.81386713       1.87193473       53      -0.24448100       0.60272400      -0.15044100 
I      14.69743659       5.50533013       9.08599912       53      -0.00715400       0.06102000       0.59843800 
I      15.32798702       5.97406536      17.44584930       53      -0.23819800      -0.10635400       0.13016900 
I      14.81772141       5.00911327      24.30461416       53      -0.14024700       0.21840600       0.36144300 
I      15.07018913      20.98985467       0.89538261       53      -0.02449600      -0.05845900      -0.53867100 
I      15.07894039      20.85263964       7.85131838       53       0.51163900      -0.21616100       0.16155000 
I      14.77233029      20.46382925      16.60199695       53       0.28273500       0.25234700      -0.25550800 
I      14.56876984      20.49015137      24.05067304       53      -0.20083500       0.02393100       0.16178100 
I       2.11086364      13.51559119       1.07809074       53      -0.42382900       0.31146300       0.28165800 
I       1.86834234      13.44482953       8.49860494       53       0.21768200       0.03049000       0.19505700 
I       2.18517215      13.04856798      17.42518808       53       0.22893800      -0.11487600      -0.52971400 
I       1.37900232      12.40677993      24.50329002       53      -0.03411900       0.29072800      -0.01274900 
I       2.32462103      29.07247455       0.52442923       53      -0.13246100      -0.10745000       0.10725300 
I       1.60510634      28.48239896       8.95868496       53       0.58445000      -0.38734000       0.38104600 
I       1.87841847      28.58813597      16.44174327       53       0.75303800      -0.38088200       0.43477900 
I       2.14582612      28.10082782      24.43294127       53      -0.20912900       0.19972800      -0.36055800 
I      10.81694720      14.40843100       0.96974261       53       0.32634800      -0.68364700       0.35743800 
I      10.85872315      13.89618699       8.40409664       53      -0.38641200       0.18237200      -0.40627900 
I      10.57373475      13.32151671      16.62305920       53       0.48310600      -0.44438700       0.32185300 
I      10.16975768      13.43291858      24.38122485       53      -0.63651800       0.10365600      -0.30177800 
I      10.82738277      28.65830847       0.35936325       53       0.71635800      -0.47519700       0.44340300 
I      11.30493363      28.63290030       8.23244196       53      -0.08940800       0.01532100       0.47967200 
I       9.83311326      27.95373470      16.45735256       53       0.66683700      -0.03394000       0.06283500 
I      10.52611770      27.92837703      24.02469551       53       1.22858300      -1.03875000       1.17271300 
I       4.07325681       5.03420855       5.79298411       53      -0.07101900      -0.51357800      -0.36131500 
I       4.74933501       3.93480504      13.14691128       53      -0.19374800       0.20415500       0.19368600 