320
Lattice="17.6212026319 0.135346057394 -0.3988183222 0.29485107549 30.6308687972 -1.27292869495 -0.61174862217 -1.40483266072 32.2184549156" Properties=species:S:1:pos:R:3:Z:I:1:forces:R:3 energy=-101588.720523 stress="611.559649 -1143.462597 455.978403 -1143.462597 -493.423947 -478.711466 455.978403 -478.711466 -1760.183038" pbc="T T T"
Cs       4.48638403       1.78879421       1.98387689       55      -0.12356700       0.23052700       0.02755800 
Cs       4.28772760       2.57504030      10.29566888       55      -0.38553900       0.28011400      -0.22575300 
Cs       4.80619102       2.65031909      18.86970403       55       0.02428900      -0.32622200      -0.16907200 
Cs       3.95661748       1.09316609      26.19134345       55       0.05413600       0.30280100      -0.03344700 
Cs       3.97994331      17.46447038       0.60360418       55       0.02610100      -0.02502600       0.08369700 
Cs       5.24156184      17.27876426       9.73536269       55      -0.25982900       0.11717100      -0.15794900 
Cs       4.09244795      16.62843406      18.18569762       55      -0.10092000       0.36127400      -0.14730800 
Cs       4.21389499      16.51530231      25.71628053       55      -0.19049100      -0.00991000      -0.13346200 
Cs      14.02608115       2.98968722       1.57430015       55      -0.21888900      -0.00270500      -0.07480000 
Cs      12.94464531       2.75192562       9.15252463       55       0.21415300       0.09131800       0.04448600 
Cs      13.78309661       1.71546610      17.41881669       55      -0.36411700       0.24747100       0.23914100 
Cs      12.97562715       0.87271645      25.38461466       55       0.14792500       0.54256300       0.11401700 
Cs      12.44564453      18.16122309       0.85704363       55       0.03153000      -0.06312800       0.01590800 
Cs      13.46972859      17.19418227       9.16599853       55       0.08736100       0.19159200      -0.21866100 
Cs      12.62128366      16.75959032      17.52505119       55       0.00359200       0.04911500      -0.17454800 
Cs      12.36645632      17.24117260      24.75717713       55       0.07693500       0.12169500      -0.09407900 
Cs      -0.05745127       9.94667496       1.74864385       55       0.04473200       0.13499900      -0.07367500 
Cs       0.31146055       9.89533202       9.70979474       55      -0.01119900      -0.35555200       0.03593600 
Cs      -0.23410243       9.42267807      18.31392231       55      -0.05712000      -0.11528600      -0.18647500 
Cs      -0.20662399       9.79367022      25.47892495       55       0.34437000      -0.80463500       0.10685100 
Cs       0.78397782      25.60939580       1.40488291       55      -0.22976800      -0.15931400       0.08517300 
Cs       0.59865963      24.70820295       8.97528857       55      -0.02299900      -0.09421700       0.15577600 
Cs      -0.83262036      25.14448430      18.29520236       55       0.36406100      -0.12351900      -0.33203800 
Cs       0.48171293      24.86955112      24.78817405       55      -0.47483500      -0.09031500      -0.33504400 
Cs       8.39468861      10.12978418       1.38580217       55       0.07344000       0.18136400      -0.07303600 
Cs       8.08213966       9.78811262       9.03199715       55       0.57449500      -0.10705500       0.01964500 
Cs       8.74230771       9.01262194      18.03196426       55      -0.30780400       0.04736900       0.07874000 
Cs       8.60781891       8.90535833      25.94183150       55      -0.28229200       0.17614900      -0.03372900 
Cs       8.62475902      25.10103354       1.28728900       55       0.14045300       0.11659200       0.03881800 
Cs       9.28323567      25.41416539       7.82471743       55       0.18195400      -0.16179500       0.39783500 
Cs       8.29086709      24.82588731      17.70570422       55       0.37317500       0.02604300      -0.31605100 
Cs       8.91117119      24.84264050      25.00004810       55      -1.14724400      -0.12506700      -0.03446400 
Cs      -0.93951614       4.64798746       6.04247777       55       0.28730400       0.04389800       0.32038600 
Cs       0.08870848       4.72736260      14.27502929       55      -0.26743600       0.13013500      -0.19231400 
Cs      -0.46959878       4.23114565      22.40341458       55       0.01192700       0.06576300       0.06508200 
Cs      -0.68370994       4.13781723      30.27843379       55       0.02776300      -0.04786700      -0.21423800 
Cs       0.89530562      20.11892802       5.18195185       55      -0.18338700      -0.10084200       0.05940600 
Cs       0.58605203      18.77983580      13.46394588       55      -0.25786000       0.32657800      -0.28422800 
Cs      -0.66050371      19.58805800      21.37249759       55      -0.08734500       0.08648300       0.04832700 
Cs      -0.89521316      18.72718335      28.53426416       55       0.04643600       0.44472200      -0.05191200 
Cs       8.92249844       5.63511301       4.72022817       55      -0.32571100      -0.82468600       0.11269300 
Cs       7.95440238       4.28187655      13.98835482       55       0.38306200       0.13959500      -0.13705200 
Cs       9.21605107       4.04852686      22.29782930       55      -0.00102900       0.22921900      -0.06488200 
Cs       9.17793480       3.30399892      29.66289937       55      -0.03485400       0.04500000      -0.01065000 
Cs       8.97532877      20.39892032       5.28522364       55      -0.15759100      -0.23989900       0.00853700 
Cs      10.04114806      19.74487367      12.36347050       55      -0.32715100       0.15755800       0.12963900 
Cs       7.23966336      19.28600115      21.56093829       55       0.44871900       0.03738500      -0.18850600 
Cs       7.83155941      19.24128009      29.36737998       55       0.03558900      -0.00395300       0.00020700 
Cs       4.52368725      11.76945895       5.51594931       55      -0.09922900       0.46540100       0.01244000 
Cs       4.26985084      11.55090975      14.03360149       55       0.03434100       0.23510300      -0.07967500 
Cs       4.72453958      11.76580782      20.85079911       55      -0.03915300       0.15135300       0.41451200 
Cs       3.68690925      10.90223376      29.86549133       55      -0.06641700       0.43393700      -0.01643500 
Cs       5.08474417      27.87986375       4.99508095       55      -0.27152300      -0.02530400       0.05843300 
Cs       4.85724251      28.87574276      12.83907108       55       0.04357800      -0.22202400       0.30310900 
Cs       4.22869648      28.00277305      20.68729222       55       0.06607700      -0.14420900      -0.08110400 
Cs       3.19868901      27.14293957      29.10326050       55       0.57874800      -0.34552000      -0.03049900 
Cs      12.78184894      12.83631439       4.69974446       55       0.09144300       0.22068900      -0.00571500 
Cs      12.32420955      11.41234672      13.75707038       55       0.15264200       0.06151400      -0.17483800 
Cs      12.63629922      11.80247288      20.16065723       55       0.13919900       0.14841700       0.37675300 
Cs      12.63497062      12.63288828      29.40192149       55      -0.15528500      -0.41301400      -0.00287300 
Cs      13.88505288      27.53923135       3.96314389       55       0.13243500       0.25352800       0.44219500 
Cs      14.43301276      27.58778745      13.03066041       55      -0.08506100      -0.25376200      -0.02546400 
Cs      13.23647136      27.60140909      20.96413186       55      -0.05427700      -0.09390700      -0.16170900 
Cs      13.09664707      26.13688403      29.96317136       55      -0.17482200       0.15794800       0.00212000 
Pb       0.66348351      -0.00412649       4.94561432       82      -0.47600000       0.20103500       0.20792900 
Pb       0.27328097      -0.30413819      12.63247222       82      -0.10064500      -0.25845600      -0.15975700 
Pb      -0.18717541      -0.59468489      20.27124636       82       0.53711600      -0.05441400       0.51842200 
Pb      -0.48462037      -1.45700673      28.45411619       82       1.17902500       0.87724400       0.74049100 
Pb      -0.40456988      15.54305866       3.34249105       82       0.01186700      -0.16074500      -0.32212400 
Pb       0.33171010      14.27116008      11.21745901       82      -0.53339900      -0.45872500       0.29848000 
Pb      -0.77501029      14.62805021      19.04628283       82      -0.28806300       0.40745100       0.12646000 
Pb      -1.06601326      14.09149797      27.28960785       82       0.47881600      -0.05477500      -0.75581800 
Pb       8.66318583      -0.36309092       4.06190328       82      -0.24017500       0.99029300       0.59831800 
Pb       9.12491554      -0.43766723      11.95654291       82       0.28009100      -0.37636400       0.44671800 
Pb       8.56451589      -0.76407600      20.07201910       82      -0.22562500      -1.16351000       1.21900600 
Pb       9.04140989      -1.52566967      28.17748056       82      -0.36678500       0.52015200       0.04380200 
Pb       8.72445405      15.30710705       3.23539728       82      -0.37238900       0.14777800      -0.72386300 
Pb       9.34537723      14.47090089      11.14982316       82      -0.31100800      -0.22975900      -0.66054500 
Pb       8.30790067      14.30925122      19.11060924       82       0.49711800       0.73258400       0.01439000 
Pb       8.09610199      14.23782455      27.05306631       82       0.10214900       0.01825600       0.40248200 
Pb       4.42376811       7.54127903       3.00024263       82       0.24612400      -0.03543900       0.67493500 
Pb       4.43572749       7.51640049      11.14510674       82      -0.05473100      -0.79589300       0.13559500 
Pb       3.66529895       7.35981698      19.69594069       82       0.20502600      -0.64456900       0.21202900 
Pb       4.29349625       6.37261305      27.34755056       82      -0.70079100       0.10957100      -0.42339700 
Pb       4.29804182      22.72710988       3.12833467       82       0.99501900       0.17103500       0.16706300 
Pb       5.08070511      22.17235225      11.24861772       82       0.09496000      -0.10904600      -0.33894500 
Pb       3.89254031      22.79853555      19.13656211       82       0.31174400      -0.65871500       0.77712100 
Pb       3.42423495      22.16153453      27.57077096       82       0.00049200      -0.15277700      -0.03011100 
Pb      13.39410810       8.08368332       2.96850906       82      -0.34735800      -0.22821600       0.19271800 
Pb      13.04061585       7.29378812      11.37175014       82      -0.28444300      -0.39911900      -0.75758000 
Pb      12.96127086       6.67447594      19.75990933       82       0.84581700      -0.40333300      -0.42995000 
Pb      12.91078919       6.70068006      27.55950904       82       0.48397700      -0.39134600      -0.19887300 
Pb      13.50135162      22.34944359       2.42582035       82      -0.19274400       0.32002800       0.12660600 
Pb      13.37364851      22.80474639      10.67419042       82       0.05395500      -0.59363500       0.12737000 
Pb      13.14010687      22.85315777      18.44503636       82      -0.37600800      -1.18842200       0.46852800 
Pb      12.32815313      21.79412015      26.45625385       82      -0.06509400       0.11768100      -0.70376000 
Pb       4.00671826       7.20503944       7.03882611       82       0.03065300      -0.20650800       0.14207700 
Pb       4.35098872       6.98021709      15.29393464       82      -0.17797600      -0.12125100       0.83691500 
Pb       3.83644175       6.90403782      23.62653596       82      -0.34220400      -0.02205500       0.19898600 
Pb       3.64139425       6.24826259      31.38070509       82       0.14094300      -0.01498600      -0.26874600 
Pb       4.54953962      22.17762945       6.61827889       82       0.31513100      -0.20101400       1.18714300 
Pb       4.36332196      21.89400613      14.99116123       82       0.41187300       0.65632200       0.80755800 
Pb       4.13821219      21.54493080      23.77611570       82      -0.05190700       0.25073100      -0.07451800 
Pb       4.00932922      21.67403386      31.47712285       82      -0.86080500      -0.01045600       0.06367300 
Pb      12.76662636       8.22615275       7.10228924       82      -0.26849200      -0.48401900       0.90318300 
Pb      12.21799313       6.70490704      15.44678964       82       0.45093000       0.00438500      -0.37070700 
Pb      12.89980867       6.91271692      23.77428360       82       0.25941500      -0.33217600       0.10656800 
Pb      12.64279447       6.47987968      31.40677554       82       0.54943100       0.06217000      -0.14011400 
Pb      13.52159011      22.62092362       6.61097563       82       0.17163200      -0.14125700       0.54423700 
Pb      13.66351584      22.33704402      14.60632031       82      -0.72539400      -0.24024500      -0.10003900 
Pb      11.97908886      21.90653434      22.00327570       82       1.50776300      -0.64785900       1.33687900 
Pb      12.52651509      21.53426484      30.32255487       82      -1.05385000       0.41547900       0.10714400 
Pb       8.85649570      15.00965506       7.07176366       82       0.03381600      -0.33647500       0.12322200 
Pb       8.48626433      14.19179801      15.01613624       82       0.19483100       0.47811500       0.07382300 
Pb       8.90197352      14.59784623      23.13007078       82      -0.54758800       0.15286900      -0.33228000 
Pb       7.55900605      13.93029955      31.09558634       82       0.27488500      -0.07421300       0.48203200 
Pb       9.12262717      30.59010840       6.87425996       82      -0.00343300       0.55170200      -0.20567000 
Pb       9.54641247      29.60598979      14.96524253       82       0.09601500      -0.43316800      -0.20932900 
Pb       8.64497339      29.77545526      22.96782314       82       0.02703400       0.17191400      -0.43045300 
Pb       8.60371251      29.06740847      31.18113815       82      -0.00269000       0.42692500      -0.12086100 
Pb      17.95366044      14.97123127       6.83525830       82      -0.10325300      -0.35135400       0.02038300 
Pb      17.35260391      14.38429083      14.95814026       82      -0.66851400       0.67565400      -0.60998200 
Pb      17.46338097      14.53922817      22.61606349       82      -1.23455800      -0.64055700       1.52041900 
Pb      16.27706535      14.32312511      31.10052687       82       0.31879000      -0.13257000       0.44243500 
Pb      18.12691071      29.95018488       7.31243973       82      -0.18133400       0.43908900      -0.25575600 
Pb      17.71844951      30.40127777      14.66545796       82       0.67296900      -0.57875300       0.25077400 
Pb      17.70789812      30.26061330      22.63177249       82       0.31679600       0.20056600      -0.02007400 
Pb      17.38936143      29.33212793      31.05090849       82       0.28743400       0.31123100       0.30441600 
I       2.87527310       0.68411194       7.31961034       53      -0.48581100      -0.28134600      -0.15385400 
I       1.93847344       1.47999789      14.80190850       53       0.28946900      -0.08843300       0.02062200 
I       2.17511548       0.81932534      22.47724016       53      -0.27056000      -0.19549200       0.15894400 
I       2.01873598       0.05723017      30.65382981       53      -0.39620900      -0.18185100       0.29750900 
I       2.54370973      15.75328554       4.93703371       53      -0.56140800       0.14226700       0.09846500 
I       2.21117453      15.36056952      13.84046950       53       0.18917200      -0.18446000      -0.20342500 
I       1.83965576      15.59160472      21.45370784       53       1.05065500       0.52194600      -1.14127900 
I       0.78942185      15.64656864      29.75111440       53       0.38909300      -0.16239900      -0.11701700 
I      11.19053130       0.85629793       6.22778089       53      -0.19732200      -0.08954700      -0.24225200 
I      11.52101430      -0.13658622      14.19729129       53       0.15059000       0.06801600       0.05084300 
I      10.85757602       0.70017671      22.11809785       53      -0.14442000      -0.54868100       0.17436500 
I      11.00316493      -0.42941827      30.50919865       53      -0.14390800       0.00078700      -0.02139000 
I      10.89966702      16.86322089       4.73253026       53       0.01848700      -0.17962400       0.25566700 
I      11.13912806      15.18757351      13.49065953       53       0.51604300       0.18178800       0.23087100 
I      10.46367109      16.41953076      20.76121729       53      -0.18879500      -0.54198500       0.25266100 
I      10.13024347      15.45846461      29.31760783       53      -0.38175700       0.49147700      -0.16093600 
I       6.61672518       8.69893233       5.42844681       53      -0.16288900      -0.12363400       0.08490900 
I       6.51520106       8.16617795      13.51245776       53       0.32032700       0.36778500      -0.13085100 
I       6.32272734       8.02838072      21.91767566       53      -0.22200800       0.16118000      -0.31121100 
I       5.97393542       8.03524380      29.28416377       53       0.61322800      -0.17293800       0.69756200 
I       6.87088722      24.06968139       5.42979250       53      -0.12917000      -0.13728900      -0.36821600 
I       7.09301720      22.86929390      13.84454071       53       0.23317100       0.01114900      -0.55880000 
I       6.24918919      22.63578441      21.76814617       53      -0.13380400       0.57196900       0.08501500 
I       5.88914038      23.27634811      29.88313997       53       0.35705500       0.28418500      -0.64000500 
I      14.97575372       9.71168211       5.07974133       53       0.12296300      -0.13565900      -0.18818100 
I      14.77554459       8.56911271      13.42797828       53       0.19362600      -0.06997200       0.55225000 
I      14.65504726       8.73999120      21.83533982       53       0.04710000      -0.21645200      -0.24440400 
I      15.37950554       7.80784063      29.61247901       53      -0.55904400      -0.15091200       0.09440100 
I      15.69499007      23.81859563       4.50992291       53      -0.12489500      -0.02510500      -0.27353200 
I      15.98621514      23.18106398      12.68268254       53       0.06536800       0.33489200      -0.18706300 
I      15.20075798      23.77504136      20.78770783       53      -0.48076400      -0.01439500       0.13138400 
I      14.69446600      22.98966560      28.56416463       53       0.03565500      -0.07077700      -0.22564000 
I       2.43972037       5.96825321       1.32571480       53      -0.31841500       0.01617200      -0.47610300 
I       2.20743999       5.52945436       9.29231274       53       0.04935200       0.56309300      -0.27186700 
I       2.25631869       5.44049062      17.36159053       53      -0.19399900       0.20679300       0.11033500 
I       1.75569184       5.04386116      25.52377063       53       0.38738700       0.34184500      -0.12876800 
I       2.25257008      21.78650132       1.36392453       53      -0.85684500      -0.31617200      -0.50552900 
I       2.62877512      20.56053984       8.93012129       53       0.32107600       0.36486500      -0.21701100 
I       2.24936818      21.32076371      17.12496759       53      -2.09207600      -0.12440300      -0.09100300 
I       1.10866505      21.05424331      25.20261595       53       0.36953600       0.22295300       0.57910900 
I      11.33360774       5.90428256       0.63887431       53      -0.10948200       0.11339500       0.46147200 
I      10.61697431       6.17314761       8.48574274       53       0.33099300       0.29651500      -0.07344900 
I      10.50385462       5.38255092      17.78755465       53       0.15790200      -0.03107000      -0.21443700 
I      10.20055359       5.56652544      25.60472863       53       0.57499100       0.06286800       0.08423700 
I      10.79926548      21.67666694       0.40496886       53       0.29734100       0.09071100       0.02499200 
I      10.86729427      21.67217764       8.54855463       53       0.48174400       0.15377700       0.04801600 
I      10.90957019      21.44895423      16.27156002       53       0.23175200       0.02841700      -0.03956100 
I      10.08165118      20.64745541      24.12854266       53       0.16627000       0.02760600       0.08219000 
I       6.15676024      13.55483217       0.98024337       53       0.50405000       0.45019100      -0.26696300 
I       6.51972252      13.74333116       9.15742998       53       0.60330700      -0.00897200      -0.27779800 
I       6.01715402      13.49535886      17.04685271       53      -0.21889400      -0.28320900       0.11589600 
I       6.34595367      12.95403191      24.84588863       53       0.06074100       0.02633700      -0.26109100 
I       6.78341286      29.19667032       0.61549724       53       0.09293800      -0.26422500      -0.02086700 
I       6.72804293      30.57389087       9.14973276       53      -0.05457100      -0.91288000      -0.18370100 
I       6.90531115      28.54860738      16.57096671       53      -0.18865900       0.10244900       0.26782700 
I       6.57371863      28.04684087      24.91267023       53       0.41706500       0.43472100       0.03672600 
I      14.43636038      14.45784908       0.99976028       53       0.83320400       0.34207800       0.08555700 
I      15.74880630      12.86493852       8.81892615       53       0.20349300       0.52678800      -0.24249700 
I      14.73369077      12.85797495      17.09935541       53       0.25162300       0.34993300      -0.29056300 
I      15.15886596      12.36324638      24.29039232       53      -0.42714100       0.91418800       0.21957700 
I      15.77104874      30.38040714       1.47595683       53       0.19997400      -0.38404100      -0.44870000 
I      15.88703366      28.76822087       9.66709672       53       0.23268200      -0.06115400      -0.43902800 
I      15.61844298      28.89715509      16.82510563       53      -0.55562600      -0.18719600      -0.32004700 
I      15.81572860      28.39337860      24.64158315       53      -1.16000200      -0.55859700      -0.84704600 
I       6.90339362       1.66851597       6.15525979       53      -0.03380600      -0.19943800      -0.04843700 
I       7.49311789       0.57791864      14.35371802       53      -0.93312200       1.24328100       0.27726200 
I       6.60141315       1.56337791      22.24040918       53      -0.17735700      -0.65789400       0.03751900 
I       6.28144938      -0.62253418      30.33521976       53       0.18471300       0.25129900      -0.19155900 
I       6.39641725      16.10202721       5.26238624       53       0.31918800      -0.07543800       0.09274400 
I       7.31337337      16.21733878      12.69363593       53      -0.22709800       0.03178300       0.25510500 
I       6.35718645      15.87893645      21.36586667       53      -0.23160000      -0.85239900      -0.42990400 
I       5.17067284      14.79793175      29.17064107       53      -0.03924100       0.09453400      -0.32821300 
I      15.35793745       0.67875836       6.79033222       53       0.48432100      -0.10425500      -0.09436900 
I      15.16706769       0.79824366      14.12746155       53       0.32932500       0.14263600      -0.37172000 
I      15.13999928       0.74034718      21.94885347       53       0.01137000      -0.03746300       0.24546200 
I      15.48308084       0.30628083      30.24906195       53      -0.51302600       0.21288200       0.20838400 
I      15.21476050      16.12130593       5.30962079       53       0.02487200       0.26816100       0.03334800 
I      15.32499387      15.68676925      11.92500129       53       0.30139600      -0.08122700       0.49395000 
I      14.85935676      16.01766430      20.85712351       53       0.07961700       0.03631500      -0.01637300 
I      14.57071049      15.81303824      28.80561454       53      -0.65019100       0.05395700      -0.26979000 
I       1.76110171       8.93761249       5.53704506       53       0.31789600      -0.33435400       0.09918500 
I       2.23821580       8.45100425      13.67552949       53      -0.53969400       0.09837300      -0.25116100 
I       1.25672725       8.40338278      21.96404892       53       0.33876300      -0.02081900      -0.32133300 
I       1.85163324       7.74316549      29.35690396       53      -0.36700600      -0.05543400       0.04513600 
I       2.22955580      23.99228307       5.23052001       53      -0.05160600      -0.02223700       0.25852900 
I       2.81341997      23.54886529      12.81219061       53      -0.24249900       0.11260100      -0.16036300 
I       1.58305964      23.55148831      21.11213276       53      -0.07235600       0.09632000       0.35400100 
I       1.33705109      23.21602257      30.04546599       53       0.36012100      -0.22752400      -0.45774300 
I      10.68677591       8.58366798       4.86430760       53       0.14336400       1.06061600      -0.32020100 
I      10.24018437       7.81117419      12.76924436       53       0.20767400      -0.11750100       0.69930200 
I      10.78376049       7.69121553      21.31411469       53      -1.36735700       0.60044500       0.77167600 
I      10.59773579       7.56663292      29.47454209       53      -0.57024400       0.05575900      -0.17483600 
I      11.15363710      23.29508214       4.33206677       53       0.08165500       0.35988700      -0.09082700 
I      11.22015037      23.92628536      12.75648601       53       0.47712100      -0.13345600      -0.26063000 
I      10.14095767      23.29676549      20.45822982       53      -1.06221200       0.98824700      -0.92301600 
I       9.75245557      22.50297093      28.10164902       53       0.08393300       0.32902700       0.11519300 
I       6.74346249       6.58043800       1.15256905       53       0.07059200       0.02387200       0.03844800 
I       6.54232173       5.63334121       9.76620082       53      -0.05980100       0.45910600      -0.18921000 
I       6.23190235       6.04841726      17.95963310       53       0.14881100       0.05970500       0.02246900 
I       5.92813098       4.95308944      24.94679166       53       0.25427800      -0.04702900       0.20442000 
I       6.68158223      21.86627543       1.13914439       53       0.37598700      -0.27009400       0.07974900 
I       7.04315460      20.48540475       8.80923101       53      -0.39102200       0.33106000      -0.14662300 
I       5.53722595      20.44186355      17.84245526       53       1.22375900      -0.46697000       0.15187500 
I       6.56855901      20.76987830      25.89283421       53      -0.86695000       0.13770600      -0.03729900 
I      15.60480627       6.34461603       1.33548733       53       0.17177500       0.34558400       0.11869700 
I      15.51637215       6.05752448       9.63662240       53      -0.11452600       0.22872600      -0.26708400 
I      15.13861239       5.80481968      17.54075718       53      -0.01018400      -0.06051400      -0.46413700 
I      15.62684369       5.96032283      25.61222786       53      -0.74661600       0.22418900      -0.17358300 
I      15.02195212      21.20911231      -0.62173722       53       0.70353700      -0.38645000       0.63738300 
I      15.95508959      21.23247330       8.54782601       53      -0.49670600       0.32587800      -0.16507400 
I      15.36259759      21.12022092      16.94982894       53       0.10630800       0.15978100       0.12598200 
I      14.44296919      20.64834483      23.98224925       53      -0.00612300      -0.16701800       0.39235000 
I       1.50068863      13.76618966       0.52366525       53      -0.10893500       0.20098500       0.22711200 
I       2.31854367      12.98427911       8.80963602       53       0.15331800       0.17855200      -0.23422800 
I       1.69260458      13.49824017      17.44220683       53       0.74465000      -0.59492100       0.39755400 
I       1.84557616      12.85758903      25.15838633       53      -0.16331000       0.50575900      -0.02407700 
I       2.55509325      28.96831342       1.58142653       53      -0.01017700       0.37707100      -0.22724800 
I       3.12503026      28.53467721       9.67862396       53      -0.79062900       0.30880300      -0.27707100 
I       2.18452420      28.60386074      17.19103866       53       0.23706000       0.05000500       0.23899300 
I       2.34997273      28.49835887      25.28154386       53      -0.19479800      -0.02837200      -0.06409400 
I      10.86056687      14.78102782       0.28197414       53      -0.29168200      -0.35900400       0.69175800 
I      11.60571890      13.86794191       8.60826211       53      -0.26241800      -0.09555800      -0.19647400 
I      10.67574012      12.74462009      16.91123933       53      -0.59830900       0.37165500       0.37540100 
I      10.65149272      13.49015402      25.40373259       53       0.45592800      -0.20180500       0.21797300 
I      11.19849585      28.72051800       1.59206335       53       0.23986600      -0.10975700      -0.72945900 
I      11.11893378      28.75006170       8.48231874       53       0.40167200      -0.32047100      -0.12681400 
I      11.15477374      28.19571912      17.36707276       53      -0.01349000       0.13777300       0.45350500 
I      11.26045249      28.48732408      24.21985708       53      -0.22575000      -0.34467500       0.31752100 
I       4.37939075       4.91183760       4.99886675       53      -0.05839000       0.05060000       0.27611000 
I       4.33705554       4.70414129      13.26883004       53      -0.31340900      -0.22670800       0.15526600 
I       3.26836800       4.65160643      21.44440565       53       0.01875500       0.04503500       0.04670700 