320
Lattice="16.9848629279 0.0571347955851 0.12242488927 0.0921044334276 29.1249082249 -0.788420454126 0.256523850201 -0.857521416575 31.762967035" Properties=species:S:1:pos:R:3:Z:I:1:forces:R:3 energy=-101585.467602 stress="904.880826 -1104.861753 222.459426 -1104.861753 2764.355921 1523.325571 222.459426 1523.325571 -981.762027" pbc="T T T"
Cs       4.64324663       2.57525347       2.63522646       55       0.20008300      -0.11631400      -0.13572200 
Cs       4.42717893       1.83816291      11.01539405       55      -0.02163500       0.01833600      -0.31761700 
Cs       4.00066152       1.97416146      17.85381014       55       0.09374400      -0.13960800       0.06240600 
Cs       4.86414752       1.79338374      25.10404248       55      -0.17204900      -0.24134400       0.35946300 
Cs       4.17684361      16.54798781       1.71018529       55       0.13018500       0.08604200      -0.00619700 
Cs       4.01178645      17.52770142       9.35134033       55      -0.03951800      -0.19128800      -0.05306900 
Cs       4.47376520      15.65016992      16.45571591       55      -0.12158200       0.14474700       0.11630500 
Cs       4.25352055      16.55717129      26.04997041       55       0.08736300       0.22084000       0.02932600 
Cs      13.04575853       2.26560140       2.18750975       55      -0.02101300       0.04347300      -0.07702400 
Cs      12.02170098       1.70076717      11.07641566       55       0.33503600       0.16036400      -0.44689900 
Cs      13.08381756       2.59337506      18.26271713       55      -0.06776800      -0.07355100       0.05911300 
Cs      12.84092384       1.63560365      26.73553440       55       0.26064800       0.32150300      -0.01662300 
Cs      12.52377661      16.90483760       2.04054204       55       0.16747700      -0.20913600      -0.15738300 
Cs      12.15023358      16.75419048       9.36946971       55       0.25228500      -0.20138700      -0.24983600 
Cs      12.82272339      16.70190544      16.51089367       55       0.17548400       0.01260200       0.15266900 
Cs      12.89253999      16.73505143      25.30065663       55      -0.04060300      -0.26314700       0.14195900 
Cs       0.20249013       9.22927764       1.74292040       55       0.14752500      -0.03549500       0.10495500 
Cs      -0.16750005      10.50838591       9.33211949       55      -0.00276500      -0.09852700       0.02162000 
Cs       0.20458056       8.94891688      17.02711060       55       0.07125600       0.23550600       0.10999600 
Cs      -0.34200746       8.88958358      25.22462522       55       0.07513200       0.16498600       0.16351600 
Cs       0.26886779      23.88303487       1.72475792       55      -0.41135400       0.57117400       0.04293200 
Cs      -0.09660854      24.13173349       9.48082516       55       0.28446300       0.21168500      -0.23910500 
Cs       0.46621608      23.58676660      18.39443065       55       0.34079400       0.22832000      -0.50158800 
Cs       0.14979129      23.53307561      25.26032121       55       0.01490900       0.13199400       0.03871500 
Cs       8.30648658       9.29740203       2.35486959       55       0.07930500      -0.03481600      -0.17139300 
Cs       8.52718203       9.62543955       9.69296904       55      -0.16792500      -0.35866300      -0.12446400 
Cs       8.58040762       8.59286451      16.99517097       55       0.32160800      -0.15665800       0.35407300 
Cs       8.60962785       9.58192613      24.97784859       55      -0.23512900      -0.10881900       0.12809800 
Cs       8.03968487      24.47974838       0.64779511       55       0.65536200       0.23702500       0.59339400 
Cs       9.06914910      24.01106312       9.65408143       55      -0.25698700      -0.20124700      -0.01169800 
Cs       9.02445270      24.16640617      17.15306595       55      -0.22068500       0.01205300      -0.44642600 
Cs       9.04576299      23.63243374      26.16529057       55      -0.56839000       0.35958200      -0.61613300 
Cs       0.37223737       3.86089494       5.00220340       55      -0.32014600       0.00176800       0.33110400 
Cs       0.33407415       4.50233990      14.12514670       55      -0.11262100       0.10040600      -0.04169900 
Cs       0.41558429       4.47107890      21.68371961       55       0.05008400      -0.18306100       0.01514500 
Cs       0.39071920       3.66051568      29.78870139       55       0.07129000       0.17875800       0.06107400 
Cs      -0.23492146      18.87192063       4.84488287       55       0.53252400      -0.04365500       0.01021400 
Cs      -0.09945939      19.10003530      12.86510543       55       0.10088300      -0.06047800       0.10101500 
Cs      -0.05101637      18.31589599      20.88217337       55      -0.11802500      -0.12242000       0.25375900 
Cs       0.16669873      17.65030254      29.17727213       55       0.22025000       0.44560300       0.14573200 
Cs       8.54521891       4.11692904       6.07508174       55      -0.04953800       0.20056400       0.20433000 
Cs       8.95026343       4.74584117      13.03203492       55      -0.25122300       0.16218700       0.45678300 
Cs       8.32650678       4.03282023      21.40689417       55       0.39989600       0.20692400      -0.07363100 
Cs       8.98046997       5.32656246      29.85495929       55      -0.08566300      -0.18806100       0.10186400 
Cs       8.21246503      19.54708603       5.15945966       55      -0.12233900      -0.16975800      -0.00391300 
Cs       9.36799950      19.27049330      13.80924574       55      -0.61673900       0.06266800      -0.49743300 
Cs       8.32906651      19.38526042      19.71346833       55       0.47561800      -0.12605500       0.45316900 
Cs       8.39458833      18.97864443      29.79783326       55      -0.07251200      -0.26529200       0.05899800 
Cs       4.28656430      11.56240269       5.25111427       55       0.13626400       0.35114200       0.38699400 
Cs       5.25930657      11.12039352      13.11744161       55      -0.21942400       0.16674200       0.08317300 
Cs       4.16773024      11.91147593      20.52768761       55      -0.00069100       0.07732800       0.20204400 
Cs       4.48021856      11.30906365      29.05495629       55      -0.07381200       0.06341200      -0.01560000 
Cs       4.54933412      26.61258180       5.79984043       55       0.25152300      -0.13902300       0.08697700 
Cs       4.84116157      26.43619426      14.33486813       55      -0.16764000      -0.34091900      -0.13454800 
Cs       4.35320388      26.12536797      21.61438595       55       0.09237900      -0.05909100       0.06323100 
Cs       4.32334104      25.86955002      28.75680303       55      -0.01418900      -0.01492300       0.12905200 
Cs      12.66059011      11.72517274       5.73659987       55      -0.23802900       0.64210700      -0.03034300 
Cs      12.74961586      11.27725838      14.25471916       55       0.18105300       0.21709000      -0.09073600 
Cs      11.65438055      11.66434781      20.74101544       55       0.42587900       0.10167000       0.00053200 
Cs      13.85053631      11.44746420      30.29495009       55      -0.11687100      -0.11423900      -0.21322400 
Cs      13.07803797      26.57766863       5.49979439       55      -0.14426700       0.02933700      -0.14647900 
Cs      12.65112914      26.45242210      13.66704211       55       0.00275600      -0.21530800      -0.32248100 
Cs      12.79835584      26.01048108      20.50975393       55      -0.24518000       0.00146600       0.35686900 
Cs      12.95161235      25.80864232      28.95240556       55       0.40372800       0.09486300       0.08495900 
Pb       0.15547157      -0.80525098       3.20927143       82       0.68352800       0.37183000       0.96309300 
Pb       0.02688639      -0.40712522      11.20408463       82       0.21833500       0.35043200       0.06504000 
Pb       0.37358782      -0.75107024      20.26376012       82       0.01216200       0.03520600       0.51604800 
Pb       0.57921019      -0.19259784      27.92643576       82       0.03915900      -0.46887000      -0.11753100 
Pb       0.29095019      14.10252977       3.26453681       82      -0.52192000       0.32484600      -0.10511000 
Pb       0.05297244      14.96662527      11.04634446       82       0.08677600      -0.08431400      -0.04842400 
Pb      -0.28608486      14.30786004      18.95823281       82       0.36122800       0.16850100      -0.07399900 
Pb       0.17403227      13.78325510      26.87105392       82      -0.53486600      -0.36924700       0.38441700 
Pb       8.99954574       0.34494886       4.21977089       82       0.07359400      -0.65796400      -0.08431000 
Pb       7.97572965      -0.37461307      12.31619136       82       0.32869500      -0.27874700      -0.18991500 
Pb       8.95415901      -0.58951044      19.90801542       82      -0.29941800       0.03966400      -0.30513900 
Pb       8.98885895      -0.82516408      28.14613712       82      -0.02981000       0.99841800      -1.44668200 
Pb       9.04348172      14.22873047       3.15458634       82      -0.04961100       0.22775900      -0.41241600 
Pb       8.41708551      14.37425328      10.89151161       82      -0.08895400      -0.24805700       0.13471600 
Pb       8.14762086      14.05175291      18.94260961       82       0.19392600       0.32811400      -0.43798100 
Pb       8.16763912      13.86335345      26.80667419       82       0.17552100      -0.38792400       0.54561100 
Pb       4.25384088       6.88222452       4.49028805       82       0.50843400       0.00085700      -0.47190500 
Pb       4.34632211       6.66889084      12.11983815       82      -0.29342800       0.31328900      -0.38933500 
Pb       4.29939410       7.25364402      20.07434806       82       0.88276800      -0.37353000      -0.48334000 
Pb       4.83748507       6.62566075      28.15685993       82       0.03460400       0.39687900       0.45465500 
Pb       4.05797644      22.23587789       4.22828157       82       0.29213500      -0.28687200      -0.27831100 
Pb       4.39406800      21.94534831      12.00925091       82       1.15156300      -0.01007100       0.08583100 
Pb       4.48241706      21.72543567      19.44931982       82      -0.20499800      -0.27672300       0.41401900 
Pb       4.29777784      21.31724723      27.60334731       82       0.21715700      -0.61694300       0.46391100 
Pb      12.28927284       7.53163492       4.37246269       82      -0.00675600       0.00842000      -0.41763000 
Pb      13.28569234       6.82974085      12.07621568       82      -0.12305400      -0.16074900      -0.52903700 
Pb      12.86062956       7.27800768      19.90886055       82      -0.26955100      -0.49954600       0.14157100 
Pb      12.72229814       6.85208906      28.34270745       82       0.11816900      -0.02410900       0.03978500 
Pb      13.05372104      21.37795533       3.35373198       82      -0.69299100       0.15451900       0.12557900 
Pb      13.07539353      21.60680413      11.27289740       82      -0.03153300      -0.25620100      -0.20498800 
Pb      12.93288710      21.46875020      18.59635412       82       0.43337600      -0.11853700       0.50970000 
Pb      13.13416990      21.41175561      26.89989443       82       0.59954500      -0.33330800       0.51587500 
Pb       4.41187509       6.46946576       7.81843639       82       0.42713700       0.66850100       0.81941800 
Pb       4.68295113       6.41567740      16.13310552       82      -0.58941600       0.34747600       0.22581600 
Pb       4.58711566       6.89217815      24.13298463       82       0.48253900       0.29867400      -0.22763800 
Pb       4.53332536       6.13094787      32.30399551       82       0.19279100       0.02836900      -0.08286400 
Pb       4.53931039      21.87986641       8.12885959       82       0.54843400      -0.25771400       0.17567300 
Pb       4.25887855      20.82869171      15.65862802       82      -0.43191400       1.40396700       0.41747900 
Pb       4.26901814      20.70808755      23.62098361       82       0.05767500      -0.35558000       0.07539300 
Pb       4.35998438      20.94649760      31.71597865       82      -0.11671400      -0.12449100      -0.02238800 
Pb      12.71786998       7.02575231       8.01819543       82       0.32491300       0.25458100       0.59331000 
Pb      13.34873525       7.05750793      15.72604067       82      -0.63426600       0.65593400       0.07648000 
Pb      12.83288928       6.26624636      24.66394556       82       0.50344200      -1.21222600      -1.07208000 
Pb      13.45402389       6.70955341      31.82980523       82      -0.26383900       0.16783500       0.62164600 
Pb      13.10721244      21.69799528       7.52934879       82      -0.04287800      -0.27591200      -0.11774800 
Pb      13.00158497      21.49811161      14.78727590       82       0.03739200       0.31982200       0.24252300 
Pb      12.60745896      21.77840325      23.34409488       82       0.19438900      -0.30306600      -0.90017400 
Pb      13.27504937      21.11954649      31.10307723       82       0.11170100      -0.23905200      -0.11290500 
Pb       8.39899702      14.26416162       7.18908416       82       0.12627300      -0.29692600      -1.12631900 
Pb       9.42974940      14.22543077      14.71521796       82       0.08324700      -0.12484700       0.50791000 
Pb       7.94209586      14.95576517      22.72113857       82       0.61454700      -0.89953100       0.08487900 
Pb       8.69855429      13.19997214      30.76417767       82       0.38204500       0.67372700      -0.17901400 
Pb       8.79382698      28.53243205       7.49171816       82       0.07796100       0.22837400      -0.32622300 
Pb       8.67092792      28.64628979      15.22353469       82      -0.22473900      -0.08924100       0.29319300 
Pb       8.70529292      28.80756918      22.63902671       82       0.42009500      -0.19162900       1.43997900 
Pb       9.10423461      28.69091707      30.91384920       82       0.32775900       0.09753700       0.95976400 
Pb      16.84921197      14.76720896       7.18910266       82      -0.21884500       0.67918800       0.02590100 
Pb      17.43230994      14.36893617      15.03699295       82      -0.38323200       0.48757900       0.67213500 
Pb      16.11610850      13.81428730      23.10899913       82       0.37809700       0.40208000       0.54516800 
Pb      17.72204988      13.55696408      31.08280193       82      -0.44570600      -0.24842100      -0.12556900 
Pb      17.48589675      29.04484396       6.56582213       82      -0.16651600      -0.70952700      -0.75158600 
Pb      16.31969399      28.55841294      15.09275977       82       0.29162900       0.39517500      -0.27004500 
Pb      17.36174850      28.62420934      23.65232250       82       0.73897400       0.58554700      -0.76128400 
Pb      17.50750401      28.23824350      30.90390433       82       0.03285500      -0.32431000      -0.35643000 
I       2.68477749       0.80691105       5.16303199       53      -0.59241000      -0.35194500      -0.02719800 
I       1.85069087       1.07203906      14.01582325       53      -0.74688200      -0.45832800       0.19042500 
I       2.97021779       0.42775590      22.15791086       53      -0.63588900       0.07036800      -0.13351600 
I       2.93478567       0.23281546      29.98662218       53      -0.36465600       0.08164400      -0.02883200 
I       2.25741008      15.71260429       5.02592347       53      -0.16374100       0.33175600       0.31306800 
I       2.45236415      15.93054139      12.89759713       53      -0.02640600       0.15047200       0.07130800 
I       1.70323927      14.77029153      21.21953554       53      -0.00295900       0.06188100       0.37325400 
I       2.47050716      15.02670147      28.62966762       53      -0.12130000      -0.54259400       0.52278800 
I      11.03839850       0.95553396       6.71923442       53      -0.05438900       0.19881400       0.17633900 
I      10.00609607       1.24666817      13.99011401       53       0.18782600       0.06748900       0.26870400 
I      10.79198212       1.21010467      21.66248429       53      -0.12657600      -0.28437600      -0.14857100 
I      11.16458947       1.29285621      29.94856315       53      -0.80222000      -1.08688000       0.16717900 
I      10.92715793      15.51537869       5.82446308       53      -0.22816900      -0.08926300      -0.25671500 
I      10.73425339      16.16929515      12.65715799       53      -0.21727800      -0.61098000      -0.03089900 
I      10.22998802      15.63912580      20.63033083       53      -0.20494300       0.07535500       0.40938500 
I      10.79724080      14.48617734      28.65711873       53      -0.11730800      -0.04292700       0.07890900 
I       6.69540335       8.52297878       6.43284384       53      -0.57007800      -0.19001300      -0.27690100 
I       6.48792715       7.73671496      14.19107064       53       0.85060600       0.23915300      -0.36711100 
I       6.51855236       8.42297707      22.23279336       53      -0.23418100      -0.20505000      -0.53555800 
I       6.59638892       7.82582639      30.99900079       53       0.01640200       0.27600500      -0.43492500 
I       6.56916078      23.31663696       5.88781074       53      -0.38270400      -0.34998100      -0.02671200 
I       6.68039160      22.64321146      14.01942868       53      -0.04542200      -0.00301300       0.54237800 
I       6.73753808      22.22198584      21.70347985       53      -0.19218200      -0.24786600       0.01810100 
I       6.87923054      22.60228503      29.56688527       53      -0.55751500      -0.36022600      -0.47651100 
I      14.77250367       9.18162815       6.47665909       53       0.02690900      -0.84102600       0.42021100 
I      15.32839589       8.50599052      13.72330451       53       0.40770900       0.12225500       0.03427200 
I      15.13560040       7.33902539      22.36873544       53      -0.10019400       0.30444800       0.05624700 
I      15.74056073       7.99685787      30.15142424       53      -0.75736200      -0.36148700      -0.07221900 
I      14.92783892      23.07367411       5.23290603       53      -0.01953400      -0.09385300       0.17315100 
I      15.34626336      22.59735057      13.02589313       53       0.05105300       0.08153000      -0.06354300 
I      15.03161646      23.21605300      20.74596548       53      -0.81436300      -0.52633500       0.33055200 
I      15.26407556      22.85134098      29.28308459       53      -0.51478700      -0.50153200      -0.31332400 
I       2.27181134       5.43812336       2.59387941       53       0.15361700       0.29548400      -0.22373300 
I       2.67931142       5.24221218      10.10376979       53      -0.32399800      -0.54334600       0.23591000 
I       2.35294565       5.41659886      17.96314721       53      -0.17665600       0.07587900       0.25006800 
I       2.79783489       5.68999218      26.20246942       53      -0.54850400      -0.40664700       0.20848600 
I       1.64761363      20.84277752       1.99119548       53       0.97628800      -0.26884900       0.22306200 
I       2.25983252      20.98363751      10.39054302       53      -0.56467300      -0.39602600      -0.94218100 
I       1.86158894      20.19501064      18.68409075       53       0.53737600       0.40185200      -0.34940600 
I       2.08882636      20.01440428      25.93414005       53       0.03568300       0.30199600      -0.05260600 
I      10.74865758       6.28384997       2.02496266       53       0.15940400       0.28574900      -0.08946100 
I      10.93099899       5.71956195      10.45772589       53      -0.20343900      -0.16497600      -0.49829900 
I      11.25358893       5.63325464      17.39873749       53      -0.37225600       0.19627200       0.49883500 
I      11.01533271       4.69907478      26.51449428       53      -0.29190100       0.51303400      -0.08703200 
I      10.99112386      20.17740509       0.80032236       53      -0.01441200       0.06894300       0.14422200 
I      10.94921112      20.07269870       9.42217926       53       0.10266200       0.39743200      -0.31627800 
I      10.64819436      20.16802883      16.78621190       53       0.41342600       0.21830500       0.31452900 
I      10.97799516      19.76466580      24.82738646       53      -0.10450200       0.43336200       0.20406300 
I       6.89658587      12.64487344       1.24514733       53      -0.06565400       0.19013200       0.22345200 
I       6.07485390      13.14306810       8.80523817       53       0.01628600      -0.11846200       0.56478700 
I       7.14528351      11.79984688      17.10090651       53      -0.01395100       0.71640300      -0.57631600 
I       5.48998486      13.30977462      25.57989770       53      -0.00412800      -0.28180000      -0.37425900 
I       6.89022403      28.27369704       1.68727042       53      -0.01174300       0.06873700      -0.61313700 
I       6.46169506      27.39868301       9.20197648       53       0.13293200       0.24435500      -0.03391800 
I       6.69511223      26.98653279      17.43470999       53       0.49336300       0.39683000      -0.14688300 
I       6.99591284      27.21565519      24.91402676       53       0.12622800      -0.08262100       0.24656700 
I      15.35148991      12.42962361       1.70850672       53       0.37058500       0.46050300      -0.46063800 
I      14.63538250      13.85723308       9.63244984       53       0.17065900      -0.15147000      -0.29148600 
I      15.33233139      12.82796650      16.99835188       53      -0.35618900      -0.09999700      -0.71012400 
I      14.57305522      12.48918767      25.76696618       53      -0.07773900       0.12857800      -0.18555000 
I      14.93824530      27.53849828       1.04578651       53      -0.22726200      -0.13414400      -0.16319800 
I      15.15406374      27.47200670       8.51520905       53       0.23021500       0.24618200      -0.07104100 
I      14.97186546      27.26987292      18.19564428       53       0.29327900       0.05717100      -0.57183400 
I      15.11605728      28.00898868      25.23922122       53      -0.21494500      -0.35111000       0.50593300 
I       6.44228533       0.28995901       6.09705703       53       0.31649000       0.88524600       0.46338100 
I       5.67680311       0.72316249      14.24992295       53       0.59313700      -0.32644300       0.06554300 
I       6.35465677      -0.23341620      21.56271333       53       0.23111600       0.66681300      -0.39442000 
I       6.85756000       0.77613980      30.07225768       53       0.01873400      -0.20303000      -0.17488500 
I       6.25034470      16.15562509       4.86160726       53       0.55595200      -0.40975100       0.09004500 
I       6.86659645      15.19757327      13.68551226       53      -0.50322200       0.02391200      -0.37502700 
I       5.79738391      15.57208508      20.76144653       53      -0.07152400      -0.01129300      -0.58633500 
I       6.41065531      15.15221575      29.21836506       53       0.54050300      -0.39462000       0.27926200 
I      15.02813371       0.87049142       5.39640243       53       0.29090900      -0.13986300       0.10748900 
I      14.12464916       0.75328919      13.93331707       53       0.61649100      -0.30765200       0.62029000 
I      15.56832289       1.10912736      22.30186219       53      -0.08237100       0.07570600       0.09546300 
I      15.31308913       0.46447422      29.92629771       53      -0.88178500       1.00831800       0.22203300 
I      14.68461125      15.06486955       4.86788536       53      -0.04314900       0.09726200       0.16496500 
I      14.75534308      15.49765435      13.52613830       53       0.44119800      -0.10277200      -0.05979300 
I      14.35402568      15.46044824      20.67583829       53      -0.03941500       0.15396200       0.13422000 
I      15.15390211      14.72137338      29.60723627       53       0.37666300      -0.17874800       0.09862000 
I       2.04319427       7.86646657       6.16446287       53      -0.40533700       0.26317300       0.07071700 
I       2.60719603       8.37812682      14.36622066       53       0.23520100      -0.46454900      -0.31946100 
I       2.45476128       8.21639273      22.05994018       53      -0.65030500       0.15342900       0.50673400 
I       2.40292314       7.24646432      30.37225309       53       0.14002800      -0.00632200       0.05139600 
I       2.50997701      23.46127277       6.69034329       53      -0.40774900       0.09194100      -0.26543800 
I       2.24035464      22.64877588      13.88761293       53      -0.27994500       0.26763300       0.38687000 
I       2.71078467      22.99682192      21.81244305       53      -0.02900800      -0.48669500      -0.17522800 
I       2.30090111      22.70901272      30.47020234       53       0.02423300       0.02164200      -0.83406400 
I      10.45333667       8.62164854       6.82372661       53       0.22913700      -0.19652600      -0.24482700 
I      10.82233860       8.31580052      14.02544682       53      -0.01711700      -0.39142500       0.04424200 
I      10.16454506       8.10543063      21.16908389       53       0.48533400       0.02551800      -0.21271600 
I      11.06961471       8.95115432      30.41060519       53       0.32856000      -0.75395900      -0.20588100 
I      10.45642217      22.39987376       4.77065953       53       0.39735300      -0.00418600       0.34853700 
I      10.73529617      22.71646894      12.83059731       53      -0.11554400      -0.00089900       0.18621000 
I      10.57145997      22.63041672      19.82546250       53      -0.10723900       0.36212400       0.56238000 
I      10.66755637      21.82754437      28.39301988       53       0.23071200      -0.21146100       0.88405100 
I       6.82604585       6.02571862       2.50887192       53      -0.56955400      -0.23190400       0.05464500 
I       6.95739425       5.51813894       9.29168476       53      -0.16756500       0.07503300       0.31791600 
I       6.46338337       5.44795626      18.41584512       53       0.13622300       0.06778000      -0.04696200 
I       7.28073682       6.11198115      26.52262621       53      -0.18832600      -0.00511400      -0.27436800 
I       5.97536725      20.32426959       1.84490836       53       0.18200000      -0.08044600       0.42991400 
I       6.55546540      20.12330614       9.80824344       53       0.00959500       0.10729100       0.07209800 
I       6.00842074      19.20387612      17.23287707       53       0.20836200      -0.25538700       0.53243700 
I       6.36949326      19.66993543      25.75920521       53      -0.30235500       0.48872000       0.15538200 
I      14.81371246       6.15660064       2.22213958       53       0.14266600      -0.33207000      -0.08467900 
I      14.68325495       4.75449206      10.10340467       53       0.06149200       0.33569800       0.01036400 
I      15.18573270       5.86379662      17.62434404       53       0.69772200      -0.44555700       0.57267200 
I      14.97149158       5.23645985      26.69167631       53       0.06512100       0.33047200      -0.14520000 
I      15.12143281      20.75264862       1.20155894       53       0.08697000      -0.16655500      -0.49521200 
I      15.59077820      21.06219067       9.49721268       53      -0.56297200      -0.54369600      -0.81455300 
I      15.00731608      20.10639480      16.41412253       53       0.29691400      -0.36644700       0.36185400 
I      15.01202271      20.36011161      24.27136571       53       0.09551500       0.13480100       0.10123800 
I       2.51301188      12.88841950       1.79544399       53       0.50554000      -0.10174200      -0.63399600 
I       2.08124454      13.87478314       8.88035434       53       0.20609200      -0.18779200       0.55695600 
I       2.18819228      12.74502217      17.09597400       53       0.23438500       0.06462100       0.08349800 
I       1.39055524      12.23510087      24.67639466       53       0.28726900       0.02809900      -0.54189500 
I       2.26329385      27.17763218       0.43088132       53       0.11036000      -0.01824800       0.24407000 
I       2.67806027      27.55812513       9.48740899       53      -0.34112700      -0.16376800      -0.01107800 
I       2.49592723      27.08681686      17.73850945       53       0.12633100      -0.11355500      -0.36382000 
I       2.44948409      27.09310762      25.57225065       53       0.20402600      -0.29824300      -0.26573500 
I      11.29937777      12.97917056       1.31790825       53      -0.56640800       0.35886600       0.24824000 
I      10.35442934      12.75937086       9.14209014       53       0.09446800       0.37861200      -0.19201600 
I      11.27501898      13.23674498      17.21249564       53      -0.21588100      -0.04734200       0.00189400 
I       9.94884541      12.81207847      24.35453008       53       0.06495800       0.29013700      -0.08661300 
I      10.97155641      28.02079809       1.14241355       53      -0.05849500       0.20502700       0.06392000 
I      10.77022589      27.22913635       9.94064338       53      -0.33950000       0.53405500      -0.06575500 
I      11.40304236      28.23383091      16.54810660       53      -0.29547100      -0.05713500       0.34136300 
I      11.37906037      27.85935610      25.07620678       53      -0.76694100      -0.34023600       0.18102500 
I       3.81488799       4.05957712       6.35446691       53       0.28702800      -0.36341800      -0.43464000 
I       4.26246742       4.21174704      14.02106928       53      -0.00569200      -0.02280400       0.17622400 
I       5.06134488       4.04182260      22.50423549       53      -0.42757400       0.51739600      -0.25054100 