320
Lattice="17.8601195646 0.0178974716402 -0.466366654432 0.0955178531668 30.6763870213 -1.40841561538 -0.753251946444 -1.57322736403 31.4853448985" Properties=species:S:1:pos:R:3:Z:I:1:forces:R:3 energy=-101587.004055 stress="563.836377 894.173727 899.720255 894.173727 44.019548 492.772262 899.720255 492.772262 3912.206677" pbc="T T T"
Cs       4.53919850       2.01810278       2.08710113       55       0.06862700       0.05951800      -0.10707900 
Cs       4.40186827       2.57955302       9.70921350       55      -0.03964500       0.00331000       0.03233400 
Cs       5.28565294       2.55750185      18.39816155       55      -0.05158500      -0.20632000      -0.12593100 
Cs       3.97295321       1.12595242      25.83906755       55      -0.00289700       0.02867400      -0.02181900 
Cs       3.97722653      17.81195100       0.04973676       55       0.10018500       0.16851200       0.28981000 
Cs       5.16541599      17.13892906       9.44887485       55      -0.52786300       0.18308200      -0.16134900 
Cs       3.62320059      16.75100307      17.49158786       55      -0.20707600       0.02639500      -0.04090600 
Cs       3.67634615      16.40309508      24.76213917       55      -0.05749300      -0.07796300       0.04280600 
Cs      14.27104621       2.70609188       0.96627649       55      -0.23491700       0.11096700       0.26132800 
Cs      13.37357406       2.58109507       8.82193559       55      -0.08058300      -0.02345800       0.06610100 
Cs      13.75439996       1.78883741      16.81509581       55      -0.48691900      -0.41512900       0.22357900 
Cs      13.26317147       0.72167604      24.56865668       55      -0.01619100       0.15549400       0.49204200 
Cs      12.70928473      18.22556716       0.73797617       55       0.28615100      -0.52071000       0.04804200 
Cs      13.31497803      17.17892294       8.39751601       55       0.25220500       0.43658700      -0.02226600 
Cs      12.60709603      16.73097749      16.68101556       55       0.02131100      -0.06693200      -0.03683600 
Cs      12.29645869      16.92139999      23.71739085       55      -0.01914600      -0.22178000       0.07155000 
Cs      -0.22671102       9.88770369       1.79004070       55       0.00324900       0.11285700      -0.07659400 
Cs       0.04764885       9.75280617       9.66105197       55       0.17003400      -0.36979300      -0.20486300 
Cs      -0.30793020       8.97866613      17.61433292       55      -0.12728800       0.20434200      -0.10638000 
Cs      -0.36287616       9.45439468      24.83628943       55       0.09464600      -0.15803100       0.08548600 
Cs       0.22927039      25.61587390       1.67352317       55      -0.08653300      -0.34593500      -0.15512200 
Cs       0.44795751      24.55885148       8.49482421       55      -0.10255800      -0.02352000       0.11528200 
Cs      -1.17687235      25.01041281      17.61329248       55       0.58003500      -0.08371300      -0.23890300 
Cs       0.16770184      24.84799255      23.96882700       55      -0.37325300      -0.06029600       0.00321500 
Cs       8.79778345       9.96467367       1.51942337       55       0.09840300       0.29383100      -0.27694900 
Cs       8.04820469       9.84258807       8.83065714       55       0.46828000      -0.21027400      -0.02879400 
Cs       8.36938911       9.22111234      17.57261102       55       0.18906200       0.02502100       0.02674900 
Cs       8.27811342       8.99849972      24.95440329       55       0.07990900       0.22084500       0.02705900 
Cs       8.95923264      24.91352983       1.16298985       55       0.10732300       0.27044600      -0.01983000 
Cs       9.25873985      25.43547374       7.58678186       55       0.46772600       0.05172500       0.42641000 
Cs       8.09728100      25.32911627      17.04512416       55       0.05302400      -0.34945900      -0.41827400 
Cs       8.17796036      24.37358892      24.11872185       55       0.01379500      -0.08400800       0.09455900 
Cs      -0.93658442       4.68521508       6.41647479       55       0.11908800      -0.02716900      -0.06829700 
Cs      -0.15502564       4.87247407      13.68497740       55      -0.09931000      -0.02485700      -0.10762800 
Cs      -0.93773845       4.16198445      21.89241269       55       0.13828100       0.11734300      -0.13680900 
Cs      -0.98849553       4.14959072      29.30487715       55       0.21714600      -0.17497800       0.03386800 
Cs       0.73613455      20.21287812       4.92821015       55      -0.32699700      -0.50032000      -0.01289800 
Cs       0.28333274      18.79295340      13.12473647       55      -0.13093900       0.25600900      -0.19270400 
Cs      -1.02227596      19.71792316      20.22071807       55       0.18067600       0.01780200       0.25818800 
Cs      -1.40090941      18.41282011      27.72242159       55       0.10298900       0.78384100       0.54626200 
Cs       8.30982001       5.24316404       4.17169316       55       0.17576600       0.30617600       0.67802500 
Cs       8.22140425       4.07030665      13.82767163       55       0.14278200       0.66923500      -0.06957500 
Cs       9.20498009       4.10383375      21.90108397       55       0.02740300       0.08285300      -0.10751400 
Cs       9.20146372       3.08868602      28.86186849       55      -0.09988400       0.15037200       0.34873500 
Cs       8.91861853      20.41177086       5.16511039       55      -0.05016600      -0.09591100      -0.12354600 
Cs       9.91671521      19.20689124      12.18282423       55      -0.12389400       0.14513700       0.08674200 
Cs       7.46962499      19.12244119      20.66143577       55       0.14705100       0.07807000       0.04308400 
Cs       7.54456839      19.00110650      28.70316564       55       0.30635500      -0.02964000      -0.09028700 
Cs       4.19921389      11.80806601       5.15924074       55      -0.16921200       0.52861000       0.10499800 
Cs       4.43270130      11.39343555      13.50948386       55      -0.17956400       0.07838700      -0.08950800 
Cs       4.62757204      11.32361289      20.73104632       55      -0.24501200       0.54455500       0.04814100 
Cs       3.59188102      10.79095000      29.13362476       55      -0.19774900       0.22850900      -0.25497800 
Cs       4.68520302      28.01185117       4.36484089       55       0.25469600      -0.25009400       0.27648600 
Cs       5.05524963      28.72976757      12.38053077       55      -0.72091800       0.07821400       0.00749200 
Cs       3.81453184      27.69991404      20.32431009       55      -0.06127300      -0.09129900      -0.10054300 
Cs       3.43855325      26.78265957      28.44744210       55       0.25318400      -0.16010800       0.00847400 
Cs      12.71393803      12.67778723       4.61736674       55       0.10934900       0.35911200      -0.12714800 
Cs      12.39359400      11.62779150      12.93912007       55       0.48725700      -0.24302100       0.15922800 
Cs      12.92646498      11.68850157      19.92234377       55      -0.09351200       0.12043800       0.09991900 
Cs      12.53917028      12.46695915      28.64203438       55      -0.33001400      -0.43166500      -0.24611800 
Cs      14.10778053      27.78758391       3.84598209       55      -0.24829100      -0.23780700      -0.01621000 
Cs      14.20151407      27.59682163      12.69185972       55       0.00607400      -0.50174200      -0.21889900 
Cs      13.21854842      27.65416712      20.21159341       55       0.11244900      -0.21408200       0.12308100 
Cs      12.74775162      25.67426787      29.13459282       55      -0.00309800       0.32829600      -0.42204800 
Pb       0.62756654      -0.11122790       4.96222983       82      -1.17484300       0.27505200      -0.76584300 
Pb      -0.10854991      -0.49789733      12.43451571       82       0.55410900      -0.08130200      -0.11984600 
Pb      -0.09066048      -0.64565601      19.71004602       82       0.07819000      -0.15833800       0.20442800 
Pb      -0.41449274      -1.17207631      27.72261761       82      -0.54479700      -0.28570100      -0.33487000 
Pb      -0.35142033      15.69563127       3.20501155       82      -0.51546300      -0.22748700      -0.56310100 
Pb      -0.02146410      13.98381813      10.89434399       82       0.90477300       0.78161700      -0.60879500 
Pb      -1.03407960      14.73544659      18.47969035       82       0.79278400      -0.96225100       0.92534500 
Pb      -1.33733338      13.96290490      26.44149782       82       0.60163200      -0.07381500       0.88705400 
Pb       8.97422796      -0.46780818       4.02337957       82       0.27455800       0.65229700      -0.83474500 
Pb       9.20909156      -0.65512647      11.57817839       82       0.34831300       0.15165500       0.36668800 
Pb       8.76343104      -1.03794077      19.73446355       82      -0.24153000       0.93678000      -0.73105700 
Pb       9.11854768      -1.64616630      27.35123100       82      -0.46699800      -0.04509000       1.03028900 
Pb       8.70749190      15.68718516       2.91032652       82       0.15891200      -0.85949900       0.47853700 
Pb       8.95770265      14.08366961      10.60905704       82       0.76987800       0.83990800      -0.10838800 
Pb       8.26286679      14.47748536      18.49415187       82       0.38471700      -0.80448000       0.09561000 
Pb       7.97139756      14.18885295      26.31618636       82      -0.58928500      -0.55849900       0.07858000 
Pb       4.41858458       7.44753161       3.16500260       82      -0.16441900      -0.75652900      -0.49223600 
Pb       4.43950182       7.05897432      10.91531953       82      -0.68526900       0.51368100       0.89832100 
Pb       3.45607073       7.24703449      19.29474607       82       0.87070700       0.05759400      -0.65198000 
Pb       4.30049986       6.21839329      26.63393987       82      -0.37969400       0.48491300       0.32457100 
Pb       4.34836484      22.64456187       3.16106805       82       0.07462400      -0.43007400      -0.38519000 
Pb       4.77227778      22.00394719      10.89099550       82      -0.18993000      -0.00929000      -0.11221400 
Pb       4.00538660      22.49373114      18.67683496       82      -1.17380100      -0.01942000      -0.69788700 
Pb       2.89165903      22.05996977      26.77261210       82       1.04466300      -0.54691900      -0.30988400 
Pb      13.49651915       7.74196834       2.97554614       82      -0.03941400      -0.00710200      -0.23403600 
Pb      13.12217510       7.22498634      10.94712967       82      -0.56151200       0.13408400       0.24014000 
Pb      13.07576672       6.90306607      19.05136699       82      -0.70226600      -0.57534300       0.02911800 
Pb      12.98405575       6.30634764      26.93270219       82      -0.18916300       0.28446600      -0.23715300 
Pb      13.64248045      22.35823651       1.97147325       82       0.60577600       0.52212300       0.93733200 
Pb      13.38102396      22.78115625      10.30132990       82       0.13778300      -0.42606700      -0.50518700 
Pb      12.95415559      22.49355020      17.80692776       82       0.40791200       0.57245800       1.07130400 
Pb      12.10703440      21.35348709      25.52351454       82       0.49006100       0.79697600       1.59182600 
Pb       4.06372729       7.37775921       6.86028866       82      -0.18354200      -0.42333600       0.47583800 
Pb       4.16115311       6.85401892      15.22272345       82       0.65795000       0.04116900      -0.38003300 
Pb       3.54249409       6.63368520      22.97956648       82       0.45619900       0.43664800       0.66232800 
Pb       3.75625347       6.20195041      30.63626247       82      -0.50642600       0.18322600      -0.11102900 
Pb       4.66277991      22.24945840       6.58112771       82      -0.25674200      -0.05479600       0.52876600 
Pb       4.47262380      21.90467774      14.66964896       82      -0.23127300      -0.20693200       0.24111900 
Pb       3.82137458      21.33037136      23.35302491       82      -1.32789100       1.05260500      -0.87680400 
Pb       3.71174402      21.51967402      30.57278796       82       0.95144700      -0.64499200       0.16820900 
Pb      12.71012411       8.10616841       6.91282805       82      -0.37301500      -0.55088000      -0.12991000 
Pb      12.19142716       6.39288961      14.85579211       82       0.60778900      -0.00158700       0.40304500 
Pb      13.35535189       6.64658959      23.25616102       82      -1.05347300       0.47791900      -0.60308600 
Pb      12.51627773       6.15722081      30.43743507       82       0.12440000       0.57730700       0.40243200 
Pb      13.38684436      22.42372453       6.45536791       82       0.86923400      -0.03589600      -0.78122200 
Pb      13.71402410      22.09908003      14.17258197       82      -0.54169900       0.02178400      -0.35458500 
Pb      12.15245462      21.65454942      21.64286138       82      -0.12960100       0.91685600       0.15545900 
Pb      12.03131395      21.20187326      29.31756944       82       0.90021700       0.21635800      -0.86253200 
Pb       8.80225280      14.91760092       6.78505474       82       0.39930600       0.26719700      -0.39192100 
Pb       8.48155793      14.16063357      14.70586209       82       0.21690100      -0.11349600      -0.15479000 
Pb       8.60088714      14.57923074      22.36813520       82      -0.17671000      -0.08460900       0.51193000 
Pb       7.55719433      14.00587633      30.71112444       82       0.28293200      -0.33063300      -1.42049100 
Pb       9.02798370      30.70302715       6.32968251       82       0.27281700       0.09436300       0.35826800 
Pb       9.31570838      29.16353799      14.47444146       82      -0.18636600       0.66575800      -0.28637100 
Pb       8.40828425      29.75893854      22.13867180       82       0.19070900       0.30353400       0.35488800 
Pb       8.48226361      28.93132624      30.29801895       82      -0.02466500       0.00080100      -0.37939800 
Pb      17.91997818      14.93559992       6.65408574       82      -0.43325600       0.01363800       0.36601200 
Pb      17.40165619      14.36588753      14.12209328       82       0.51972600      -0.19606500       0.41702000 
Pb      17.25347127      14.20283497      22.10377455       82       0.83384100       0.26235200      -0.35366800 
Pb      16.24552717      14.01948942      30.17612635       82       0.37276500       0.50769100      -0.20341500 
Pb      18.06647629      29.76202868       6.83480055       82      -0.56765800      -0.06948500       0.31305500 
Pb      17.81697926      30.23498877      14.22921977       82       0.36024700      -0.32355900      -0.33592500 
Pb      17.77041005      30.19336036      21.50445453       82       0.14540400      -0.06709300       0.72584700 
Pb      17.55989662      29.13268586      30.09953535       82      -0.76414700      -0.23918800       0.14122900 
I       2.56400381       0.28719491       7.24684449       53       0.65091000       0.33998900       0.11998500 
I       1.80601010       1.59461004      14.41026630       53       0.00075700      -0.43422000      -0.01047500 
I       2.37561392       1.06285488      21.68848565       53      -0.53588300      -0.64917900       0.25555700 
I       1.63357755      -0.39286277      29.95791271       53       0.73103400       0.39337700      -0.14886400 
I       2.05590521      15.83545552       5.06022864       53       0.90456700       0.76085200      -0.19268700 
I       2.23108812      15.48289121      13.27447651       53      -0.34038100      -0.37401000       0.13254900 
I       1.81784591      15.58405957      20.78069360       53      -0.40126100      -0.23201400      -0.11823900 
I       0.76690023      15.42574074      29.16163405       53      -0.12060000       0.08268100      -0.85375200 
I      11.40394443       0.39504819       5.95443976       53       0.28553000       0.23427100      -0.31007100 
I      11.63474984      -0.34536672      14.02916194       53      -0.48148400      -0.01798700       0.00063100 
I      10.83435569       0.35853348      21.71009753       53      -0.03166200      -0.15106700       0.08439800 
I      11.01056094      -0.65560397      29.50859911       53       0.29104700       0.30159200       0.71427300 
I      11.17907804      16.75280247       4.47666491       53      -0.57463600      -0.14638100      -0.00460700 
I      11.44836442      15.12225374      13.11077154       53      -0.43439800       0.21863500       0.00193800 
I      10.51737321      16.10518924      20.13722200       53      -0.02246800      -0.03299900      -0.05363200 
I       9.98779644      15.37632767      27.98834641       53       0.43734700       0.44909000       0.98064000 
I       6.43363240       8.86094532       5.27387041       53       0.34182600      -0.06368800       0.03818400 
I       6.48925288       8.12635584      13.37001145       53       0.00889900       0.15174700      -0.11965200 
I       5.89219568       7.99990243      21.23223483       53       0.32233800      -0.08117000      -0.01310700 
I       6.09686157       7.84099049      28.98992729       53      -0.21853800      -0.33268000      -0.02114700 
I       6.96701606      24.20843036       5.28782127       53      -0.40437900      -0.22086800      -0.48711500 
I       7.36994038      22.58577485      13.31471566       53      -0.55401300      -0.13712600      -0.17090400 
I       5.69613171      22.40045198      21.10293153       53       0.99204800       0.49263700       0.30968100 
I       5.65462595      23.25082817      28.68313704       53      -0.49549500      -0.24840000       0.31460300 
I      14.99937801       9.89562908       4.93605412       53       0.01311000      -0.65143900       0.06102100 
I      14.86752238       8.33815901      13.24638982       53      -0.11565300      -0.01704500       0.00628600 
I      14.94469442       8.50397098      21.06255968       53       0.14128900      -0.16395300       0.02459300 
I      15.06056657       7.36293378      28.88444138       53       0.49421200       0.55404000       0.38241800 
I      15.60627158      24.03413508       4.06396554       53      -0.11797100      -0.15111600      -0.05952600 
I      15.69590973      23.34107449      12.18759012       53       0.74365800       0.44492300       0.12286700 
I      15.01036841      23.63222003      20.03796260       53      -0.14981700      -0.03604900       0.64756000 
I      14.82016404      22.55449147      27.88758317       53      -0.37023500      -0.08006600      -0.13042700 
I       2.33894843       5.99787460       1.23324879       53       0.34448600       0.36197500      -0.08534000 
I       2.34590275       5.44657638       9.12081955       53      -0.39321700       0.49322100      -0.37228700 
I       2.55621714       5.13376167      17.10761854       53      -0.89058600      -0.42416900      -0.16562900 
I       1.67330503       5.24828378      25.02863095       53      -0.17943600      -0.08980200       0.10491000 
I       2.06980279      21.57908831       1.30808161       53       0.35106300       0.22592200      -0.16782200 
I       2.51922595      20.80217881       8.34733493       53       0.01343000       0.13694600       0.30020900 
I       1.55228398      21.19605689      16.51554838       53       0.47220300       0.09288800       0.01340800 
I       0.85084665      20.87039508      24.64717174       53      -0.34362500       0.01443600       0.36214700 
I      11.62347596       5.95317314       0.79044218       53      -0.45385600      -0.28651300       0.39234500 
I      10.54088400       5.91503597       7.79818493       53       0.20786400       0.34205300       0.45987000 
I      10.68321836       4.93681711      17.16342902       53       0.15253700       0.29709900      -0.10208300 
I      10.59239000       5.85722404      25.11178122       53      -0.48178400      -0.65800400      -0.84331300 
I      11.40497079      21.53361181       0.11135858       53      -1.79368000      -0.44670000       0.33195700 
I      11.09607656      21.55516738       8.19764013       53      -0.57232700      -0.31113600       0.40583200 
I      11.07019036      21.40867632      15.98184807       53      -1.20179200      -0.85117300      -1.13873100 
I      10.17677641      20.24178107      23.74046636       53      -1.20107900      -0.44442200      -1.20301500 
I       6.65691250      13.41574932       0.39314424       53      -0.18692600      -0.08697500       0.59482300 
I       6.59183965      13.81941451       8.63381612       53      -0.32664600      -0.84643600       0.16704700 
I       5.49426846      13.71416282      16.28105270       53       0.86569600      -0.12210200      -0.00250600 
I       6.42787734      12.74580043      23.85799618       53      -0.31453200      -0.07255500      -0.17559000 
I       6.68909760      29.22028536       0.47234488       53       0.09302100      -0.02270100       0.06000300 
I       6.67144339      30.45659714       8.46140468       53      -0.32855800      -0.73281000       0.16026400 
I       6.43571628      28.69254719      16.14253930       53       0.21503400       0.12019500       0.17786300 
I       6.63758959      28.13410264      24.47482665       53      -0.55137200      -0.03585200      -0.82799000 
I      14.74688735      14.62284251       0.49750226       53      -0.08727500      -0.06460300       0.71295300 
I      15.97431573      12.80523484       8.40066646       53      -0.66321300       0.02069300      -0.31570700 
I      15.23884767      12.52877600      16.57347190       53      -0.28316100       0.15578800      -0.63493000 
I      15.28959570      12.48132820      23.62620663       53      -0.98502700      -0.33595200       0.11134200 
I      15.99299127      30.08125990       0.77925575       53       0.04501300      -0.24817100       0.00094800 
I      15.99313100      28.28031124       9.15667782       53      -0.15914400      -0.07626900      -0.45725100 
I      15.50169743      28.61861808      16.06268425       53      -0.02362300       0.40167000       0.30409500 
I      15.51761657      27.97189952      23.53700175       53       0.12301700       0.52263200       0.18601600 
I       7.15717921       1.74023960       5.73610247       53      -0.09222600      -0.25099600       0.19575800 
I       7.52890358       0.72435905      14.21745834       53      -0.32789000      -0.69103600      -0.63451700 
I       6.60712046       1.29540541      21.77967993       53       0.10089400      -0.52480700       0.22669900 
I       6.29364932      -0.75861194      29.61261233       53      -0.04747200       0.30505900      -0.02795100 
I       6.24235644      15.82175195       5.30038086       53       0.01651400       0.28034600      -0.53226700 
I       7.35041540      16.03569127      12.35324527       53      -0.35249200      -0.04346900       0.46660000 
I       6.28259157      15.59177085      20.45134756       53      -0.92319600       0.22168000      -0.04352000 
I       4.97538151      14.65380823      28.29180727       53       0.53560400      -0.10590000      -0.04856500 
I      15.43474275       0.30280343       6.39357017       53       0.53800200       0.20477400       0.02659600 
I      15.32304540       0.47660915      13.71597328       53       0.16028300       0.25181900      -0.08752800 
I      15.27755180       0.79874755      21.43411920       53       0.06530100      -0.20360700      -0.22788800 
I      15.32690154      -0.01534615      29.53992371       53       0.34168200      -0.14368100       0.01239200 
I      15.19499464      16.18589573       4.92210527       53       0.25730000       0.06380600      -0.00615000 
I      15.58084780      15.55539185      11.67509555       53      -0.33632800       0.34061000       0.41713500 
I      14.73836383      15.95347087      20.14378427       53       0.12654400      -0.04679400       0.05652200 
I      14.43223102      15.64836341      28.14220395       53      -0.45950900      -0.13746100      -0.52830900 
I       1.58234398       8.88859171       5.76517832       53       0.22263200      -0.24519900      -0.15617700 
I       1.96687222       8.25807979      13.33819830       53      -0.18266700       0.01982600      -0.09690100 
I       1.29222278       8.10400411      21.30029830       53      -0.62876100       0.69239500       0.15566400 
I       1.26206428       7.66893692      28.73773921       53       0.55884800      -0.21357900       0.16859900 
I       1.75752790      23.60076677       4.95204463       53       0.57347100       0.36362300       0.03619300 
I       2.53150408      23.43177217      12.73792933       53       0.17181900      -0.11724200      -0.13947300 
I       1.52937836      23.55353710      20.79909370       53       0.38936900      -0.15207600      -0.43615200 
I       1.43174747      22.83243707      29.19058625       53      -1.32417300       0.67774300       0.22166800 
I      10.60672285       8.47334705       4.54707765       53       0.22935500       0.36817500       0.06494300 
I      10.29454949       7.58598469      12.84574742       53      -0.14288400       0.20545100      -0.09210200 
I      10.44216543       7.64480690      20.92775063       53       0.29379700       0.11698600      -0.12596000 
I      10.31041133       7.36087001      28.62880026       53       0.20362700      -0.18857700       0.20909800 
I      11.13257317      23.44394776       4.26660484       53       0.07330800       0.14302300      -0.20057000 
I      11.27881192      23.63820831      12.34416887       53       0.05157700      -0.00112000      -0.00658000 
I       9.98727371      23.42961290      19.62683343       53       0.39196900      -0.21634000       0.23729500 
I       9.09194173      22.19421891      27.30538557       53       0.79876100      -0.01909000       0.11327700 
I       7.00998044       6.65919543       0.89067164       53      -0.41848600       0.01279100       0.29934100 
I       6.57182412       5.75785206       9.54680531       53       0.86247000      -0.30005900      -0.63414200 
I       6.63184961       5.98584578      17.70546888       53      -0.39170900      -0.01706200      -0.23174500 
I       5.92838468       4.75489701      24.35205043       53       0.04136300      -0.01327500       0.15431500 
I       6.99745603      21.82259908       1.00357629       53      -0.32794000      -0.06626100       0.06250100 
I       6.52080668      20.57483549       8.44706076       53       0.42465400       0.10374500      -0.02719200 
I       5.61368412      19.97998179      17.24477787       53       0.17779900       0.24175900       0.09043000 
I       6.04771188      20.83581146      24.95833382       53       1.08686200      -0.46740000       0.87735200 
I      15.93425049       6.14835249       1.34011591       53      -0.23142400       0.44917400       0.04371000 
I      15.57820098       6.11479322       9.66919953       53       0.51230600      -0.03184400      -0.63403700 
I      14.93683437       4.99559206      17.17693254       53       0.42413700       0.81976400      -0.06097300 
I      15.49350062       5.38473742      24.91984883       53       0.32862100      -0.15813200       0.23438900 
I      15.19311583      21.21837545      -0.64895927       53      -0.10508000       0.17992400      -0.00931500 
I      16.00959297      21.21957873       8.22345596       53      -0.43917400       0.16459400      -0.05789800 
I      15.55673688      21.04438878      16.50330947       53      -0.13689200       0.03409100      -0.10304400 
I      14.11543551      20.15011031      23.54440541       53       0.91592500      -0.16710300      -0.20883900 
I       1.28433157      13.86260407       0.24799016       53       0.60870200      -0.50997600       0.90377500 
I       2.14893205      12.96849046       8.36748215       53       0.27792900      -0.05761600       0.13848900 
I       1.81544538      13.19780508      17.06610573       53      -0.76750100       0.12176400      -0.16871600 
I       1.69870368      12.76784155      24.67145858       53      -0.48236800       0.35087600      -0.19900700 
I       2.39069066      28.77719125       1.70171038       53       0.08176900       0.33876800      -0.64699100 
I       2.51599608      28.46567029       9.33421604       53      -0.31220400       0.24773700      -0.10676300 
I       1.81483217      28.18084275      16.62300157       53       0.16422600       0.36184200       0.45167000 
I       1.92308856      28.28134865      24.38456726       53       0.14985200       0.34685400      -0.11057300 
I      10.90642910      14.33099631       0.34676804       53      -0.33425400       0.36927400       0.60337600 
I      11.50146575      14.10721357       8.28293460       53       0.06259500      -0.61268300       0.09835100 
I      10.70770524      12.71877027      16.75967537       53      -0.28960800       0.15219800      -0.13037500 
I      10.63599071      13.44103438      24.36899292       53       0.24458800      -0.15658600       0.26182000 
I      11.33731948      28.50107721       0.92256118       53      -0.39249200       0.39567100       0.03253200 
I      11.45718951      28.72180700       8.08677111       53      -0.49987700       0.18998400       0.12331800 
I      11.11463046      27.95380200      17.06817152       53      -0.11118000       0.04209800      -0.09612200 
I      11.28274043      28.14935731      24.04730185       53       0.21758400      -0.25449600      -0.72654300 
I       4.23490127       4.53817616       4.95561126       53       0.09080400       0.50216000       0.19598300 
I       4.00304336       4.65768732      12.98719213       53       0.12384500      -0.56207200      -0.26673600 
I       2.90621404       4.72680529      20.77759442       53       0.06798300      -1.38458500       0.10447500 