320
Lattice="17.7576653576 -0.197069984118 -0.360419050217 -0.28013646054 30.9231919305 -1.11267472174 -0.515989251427 -1.2459728152 32.2010983395" Properties=species:S:1:pos:R:3:Z:I:1:forces:R:3 energy=-101589.389657 stress="1615.203594 1214.641191 1068.185815 1214.641191 338.759577 -4.663676 1068.185815 -4.663676 1460.25238" pbc="T T T"
Cs       4.40028580       1.76897856       1.76800024       55       0.29499600       0.33315900       0.06278100 
Cs       3.68316935       2.49834675      10.28847695       55       0.68876700       0.11096700      -0.08418400 
Cs       3.88934729       1.95962512      18.37570038       55       0.46391500       0.92612000       0.15336200 
Cs       4.17721395       1.43905249      25.63873721       55       0.14217400       0.09246400       0.26831900 
Cs       3.65389799      17.07913402       1.74187875       55       0.04849700       0.86263300      -0.37242700 
Cs       4.56620890      17.57785730       9.52067571       55      -0.01831800      -0.31858300      -0.00102100 
Cs       4.34725509      16.94249547      18.11582364       55      -0.17843900      -0.06599000      -0.14837200 
Cs       4.31773839      16.76572778      25.89450706       55      -0.23615000       0.10079300      -0.17594600 
Cs      13.46815108       3.05401804       2.30253792       55      -0.00738200      -0.65575200      -0.80313100 
Cs      12.94750140       2.73202393       9.35964621       55       0.11292100      -0.16955700       0.01187200 
Cs      13.39122517       1.44383052      18.01208179       55      -0.13576000      -0.02449400      -0.01567000 
Cs      12.82911424       1.36353070      25.95095224       55       0.02899400      -0.17477600      -0.00258800 
Cs      11.96897636      18.11873932       1.01025486       55       0.08783900      -0.07057500      -0.04416300 
Cs      13.83124554      17.30044592       9.51933142       55       0.07863400      -0.06685000      -0.16907800 
Cs      12.43814238      16.60469727      17.77197510       55      -0.21194900       0.40295700      -0.08120600 
Cs      12.43684067      17.65612243      25.40941327       55       0.03916700      -0.13495900      -0.12525000 
Cs       0.03563497      10.32556266       1.41864577       55      -0.09119800      -0.12639200      -0.07475700 
Cs       0.33252037       9.75154265       9.34041955       55      -0.10295800       0.26273200       0.01950700 
Cs      -0.47896538       9.94988900      18.16096295       55       0.17811500       0.07722600      -0.06946600 
Cs      -0.22472333       9.51106086      25.54228963       55      -0.02989000       0.39696900      -0.05311700 
Cs       0.34751544      25.68819936       0.94258695       55      -0.27948200       0.25601900      -0.01296600 
Cs      -0.01263799      25.10822532       9.65262748       55      -0.08908500       0.01161500      -0.13719100 
Cs      -0.67427541      25.34865642      17.97499608       55      -0.18378700      -0.02662300       0.00873200 
Cs      -0.56499316      25.00014441      24.68711835       55      -0.03764300       0.03589400       0.30317800 
Cs       7.82804723      10.49915614       0.82222490       55       0.33614200      -0.16493400      -0.05739500 
Cs       8.76364201       9.44636135       9.01228487       55      -0.08937600       0.24349200       0.08190600 
Cs       8.61803642       8.76736366      18.15783134       55      -0.08495700       0.09866400      -0.09400700 
Cs       8.44111566       8.51040666      26.43447464       55      -0.14695000      -0.08295100      -0.27318400 
Cs       7.82844768      25.66203123       1.37327430       55       0.52341100      -0.22540400      -0.04440000 
Cs       9.00050353      25.03901339       8.37532023       55      -0.12979800       0.23095300      -0.07594400 
Cs       8.41886180      23.96947269      16.94355590       55      -0.09219400       0.51768600       0.16293600 
Cs       8.33048505      25.34219447      25.20355772       55      -0.02486400      -0.15850100       0.00652700 
Cs      -0.43328267       4.80095665       5.62064199       55       0.15738700       0.30120000      -0.02345600 
Cs      -0.22891335       4.53342777      14.33272229       55       0.14559300       0.25165400       0.07538600 
Cs       0.04670969       4.42514816      22.26627233       55      -0.24376300      -0.03652900      -0.26153300 
Cs      -0.45923385       3.91186169      30.30806651       55      -0.05339700       0.08578200      -0.24483600 
Cs       0.20844175      19.88953359       5.37650040       55      -0.18851400      -0.06198200      -0.03018700 
Cs       0.12171141      19.43684481      13.04121376       55       0.01261000       0.02473400       0.01865500 
Cs      -0.68828710      19.63146546      22.26175485       55       0.12639800       0.24006100      -0.43626100 
Cs      -0.94927395      20.21990775      28.77209603       55      -0.60240100       0.02209200      -0.08606700 
Cs       9.74436801       5.15340421       5.65002893       55      -0.40816900      -0.00524500      -0.33714300 
Cs       8.37981236       4.73885651      13.36464341       55      -0.12294000      -0.11258900       0.20420900 
Cs       9.12778271       3.84350845      21.76575768       55      -0.15585800       0.07480800       0.14130400 
Cs       9.08948754       3.49880630      29.77241162       55      -0.08552600       0.12312100       0.12408200 
Cs       8.41978638      19.94981396       5.00501676       55      -0.01204200       0.06003400      -0.12085300 
Cs       9.24581302      20.77730858      12.22656395       55      -0.14622100      -0.31206000      -0.06278000 
Cs       7.07750994      19.48346832      21.78495089       55       0.41692900      -0.09027800      -0.06192600 
Cs       8.02744590      19.58976495      29.38835183       55      -0.10990300       0.31907900      -0.05185800 
Cs       4.75159994      12.43806939       5.83326362       55      -0.25286100       0.06484300      -0.02632300 
Cs       3.74990660      12.13724640      14.28159346       55       0.16014000      -0.36349600       0.07284200 
Cs       4.25163679      12.61467183      21.00354247       55      -0.60402800      -0.94660800      -0.09923600 
Cs       3.36614791      11.59517722      29.84020321       55      -0.09219000      -0.14965200      -0.18676800 
Cs       4.58401421      27.73263063       5.96881235       55       0.01062000       0.07097500      -0.09477000 
Cs       4.25985666      28.89025407      13.38879916       55       0.28416600      -0.17178200       0.03446200 
Cs       4.39267016      28.35173014      20.26492541       55      -0.20448400      -0.47980000       0.30029300 
Cs       2.96116335      27.18610480      28.99886519       55       0.16263100      -0.14018600       0.13473600 
Cs      13.02818039      13.14271208       4.61767025       55      -0.05903900      -0.10591600       0.07261300 
Cs      12.32620195      11.03051456      14.28862617       55      -0.02192100       0.41378700      -0.08423500 
Cs      12.31923717      11.90276426      20.28627699       55       0.23533400      -0.05378200       0.23113000 
Cs      12.38331523      11.92406414      29.35630064       55       0.00625700      -0.05989800       0.12484500 
Cs      13.12506695      27.36354970       4.47456063       55      -0.08556600       0.03888400      -0.05503700 
Cs      14.21651174      26.90704296      12.77985891       55      -0.12725800       0.17507900       0.19922600 
Cs      12.61903926      27.15614912      20.91474905       55      -0.13361600       0.17537700       0.10082800 
Cs      12.74303881      27.11296846      29.97264668       55      -0.20656300      -0.03611700      -0.06237900 
Pb       0.30112611       0.06670683       4.99121088       82      -0.23747700      -0.23264700      -1.07671700 
Pb       0.69058538      -0.44481563      12.58819854       82      -0.60123700       0.86344800      -0.09353600 
Pb      -0.23231058      -0.63899224      20.66443749       82       0.01886700       0.01985700       0.24696100 
Pb      -0.19079559      -1.14765173      28.95756310       82      -0.69544100       0.11457500      -0.08760000 
Pb      -0.65668299      15.20057313       3.53366470       82      -0.56666300       0.15490900      -0.27238800 
Pb      -0.05545267      14.30384225      11.54043623       82       0.50880000      -0.13395900      -0.19376300 
Pb      -0.84134106      15.03545803      19.30152216       82      -0.06985200      -0.53979500      -0.25235900 
Pb      -1.03504625      14.49074385      27.12352919       82       0.02198100       0.42340300       0.93422400 
Pb       8.38031926       0.15604364       4.36487894       82       0.22320800      -0.95001100      -0.39131200 
Pb       9.18742440      -0.73631473      12.40686776       82       0.16201100       0.33049900      -0.47816000 
Pb       8.50061237      -1.15936920      20.49118464       82       0.29688500       0.33185400      -0.85655100 
Pb       8.74150677      -1.33095030      28.43743857       82       0.51672700      -0.46467700      -0.56224700 
Pb       8.18902589      14.77959896       3.03249006       82       0.63788000       0.74027900       0.93951300 
Pb       9.34535066      14.83743406      10.94387445       82       0.13980800      -0.16895100       0.71525400 
Pb       8.44456764      14.38632681      19.16917907       82      -0.48692100      -0.35612900       0.47735300 
Pb       8.16710557      14.39191993      27.19060099       82      -0.02151100      -0.18386600       0.20699700 
Pb       4.39875091       7.77580322       3.21568623       82       0.45537600      -0.94629300      -0.75016000 
Pb       4.14929702       7.48295679      11.39721915       82      -0.12142300      -0.05300400      -0.31747400 
Pb       3.88361629       7.20718777      19.72615816       82      -0.27249300      -0.21449700      -0.39674300 
Pb       3.75870838       6.34131687      27.36426645       82       0.16780100       0.43402700       0.44431700 
Pb       4.00237349      23.24558611       2.93037028       82      -0.24150300      -0.42895800       0.24037100 
Pb       4.90598805      22.31747415      10.96401251       82      -0.37011000      -0.02221800       0.39625400 
Pb       3.40985574      22.68988034      19.26685639       82      -0.26823100      -0.10415900       0.17732000 
Pb       3.75924265      22.30462225      27.75179545       82      -0.73364700       0.51668000       0.48191200 
Pb      12.90548965       8.05221803       2.96926562       82       0.32363300      -0.33905600      -0.03386600 
Pb      13.03917299       6.72456258      11.32117322       82      -0.22510400       0.34383500       0.19648800 
Pb      13.23928639       6.02187651      19.73891781       82      -0.04846200       0.68945200      -0.41718700 
Pb      13.04748207       6.66708839      27.50032309       82      -0.29815700       0.48946800      -0.07822000 
Pb      13.06920876      22.17324530       2.80817023       82       0.02890900       0.31736900      -0.35557900 
Pb      13.30525518      22.33729287      10.77930376       82       0.68098600       0.50042500       0.44936800 
Pb      12.65510003      22.51158182      18.82335464       82      -0.49244400       0.48895400      -0.23263600 
Pb      12.35007992      22.32094438      26.20459007       82      -0.36051400      -0.18049200       1.35747500 
Pb       4.15964991       7.07491462       7.27961951       82       0.03024100      -0.49751100      -0.35156500 
Pb       4.13961526       7.18085337      15.27581816       82      -0.11060100       0.22729900       0.86895300 
Pb       3.99035189       7.14279543      23.56955712       82      -0.31632700      -0.10496700       0.25823800 
Pb       3.74646171       6.13858990      31.30714020       82       0.14994300       0.04273900       0.18527000 
Pb       4.14516580      21.97955329       7.12690720       82       0.16898300       0.70971700      -0.43260400 
Pb       3.81620588      22.33148686      15.42259773       82       0.22060000      -0.21822000      -0.77707200 
Pb       3.81468620      22.38443139      23.33787915       82      -0.83811400       0.26513300       1.20033700 
Pb       3.10827950      22.10961230      31.62714524       82       0.04537100      -0.31596500      -0.80126400 
Pb      13.17298609       7.79611161       7.37909733       82      -0.34559300       0.48017200      -0.92405300 
Pb      12.96734445       6.81365709      15.35114227       82      -1.64369300      -0.27702500       0.73017700 
Pb      12.23035555       6.90118630      23.73908427       82       0.83776400       0.42136600      -0.01877700 
Pb      13.16653631       6.42572967      31.29231646       82      -0.84756600       0.40277500       1.26501600 
Pb      13.31771373      22.63099191       6.75466931       82       0.03090600       0.05415200      -0.50484200 
Pb      12.77481932      22.52833989      14.70297922       82       0.53464100       0.07762500       0.11967200 
Pb      12.16479127      22.02128422      22.42240316       82      -0.45028000      -0.05282100       0.07488600 
Pb      12.30865718      21.89645234      30.98833549       82      -0.38276900      -0.64831600      -1.06211600 
Pb       8.82548566      14.74573307       7.10950132       82       0.08176000       0.23758200      -0.53455200 
Pb       8.12592007      14.57615422      14.90097683       82       0.55920400      -0.36755000       0.20615200 
Pb       8.53204717      14.19857666      23.18249954       82       0.02397800      -0.12703400       0.36979300 
Pb       7.49113914      13.87429339      31.15251891       82      -0.01404400       0.26372400      -0.15789900 
Pb       8.50152782      30.81023669       7.33430170       82      -0.02031900      -0.41644000      -0.10195300 
Pb       9.07633961      30.23984810      14.99993863       82      -0.12503300       0.19641800       0.42512700 
Pb       8.21471450      30.06458895      22.84239901       82       0.17853300      -0.39747800       1.33900900 
Pb       8.16487826      29.25523318      31.24839573       82       0.06441800      -0.41020700      -0.10014300 
Pb      17.89727535      14.27709321       6.66064368       82       0.38229700       0.68466100       0.13354100 
Pb      16.78127842      14.50343355      15.16351986       82       1.25832800      -0.78481800       0.83395200 
Pb      16.93065533      14.32817135      23.03789558       82       0.44102700       0.10923600      -0.13618900 
Pb      16.59516961      14.38058263      31.44304578       82      -0.57797800       0.29224500      -0.86553900 
Pb      17.82630347      30.24983704       7.24093707       82      -0.46327300       0.16718400      -0.03588700 
Pb      17.50346183      30.27503497      15.04345689       82       0.10148500       0.35197000       0.28342400 
Pb      16.99867300      29.83746900      23.52503116       82       0.04134600      -0.07747200      -0.00579800 
Pb      16.75347503      29.81505395      31.64471941       82      -0.44857600      -0.22276200      -0.90751300 
I       2.53837449       0.91946933       6.86435809       53       0.54992700       0.29679400       0.07494600 
I       2.58900453       1.18779810      15.01114515       53      -0.52460500      -0.27167300      -0.21962800 
I       2.00053082       0.35939309      22.83319880       53      -0.35545200       0.04708600      -0.24724100 
I       1.77661245       0.19503327      30.86490367       53       0.16195300      -0.00634800       0.01420900 
I       2.12712670      15.98971581       4.73018246       53       0.31189700       0.14041900       0.67286100 
I       2.01822665      15.26224544      13.74305026       53      -0.12927700       0.61102300      -0.09979800 
I       1.66253595      15.78982037      20.68042405       53       0.32261500       0.51486000       0.74923400 
I       0.76173569      15.87830458      29.44639070       53       0.09226200       0.07055000       0.35158700 
I      10.81750566       1.36457491       5.93453181       53       0.15727600       0.03825700       0.23107000 
I      12.06104232       0.02279219      14.09018046       53      -0.55851800      -0.15801700       0.23898400 
I      10.91356293       0.06687614      22.20089155       53       0.47016300       0.42205600      -0.20376200 
I      10.96208731      -0.34124815      30.85730526       53       0.04901300       0.31546500      -0.28632200 
I      10.49077610      16.44291655       5.08820692       53       0.64596800       0.15065800      -0.57668000 
I      11.39159866      15.48745337      13.82717616       53      -0.60812800      -0.20334900      -0.14545800 
I      10.21981754      16.20657714      21.38165633       53       0.34211400      -0.02218900      -0.14437900 
I       9.32447252      16.06184443      29.94544752       53       0.32581000      -0.17466900      -0.22271100 
I       6.62839480       8.25234157       5.46570947       53       0.12027900       0.29382900       0.07904400 
I       6.48249419       8.34003401      13.14801019       53       0.15776000      -0.14654900       0.40491400 
I       6.23838605       8.01600013      21.64629690       53       0.34141500       0.30872200      -0.03017600 
I       6.22634924       7.78052752      29.52135694       53      -0.42096800      -0.19406600       0.04428300 
I       6.36275462      23.71044552       4.73873384       53       0.39981700       0.16857400       0.35382500 
I       6.56414947      23.53557667      13.40577012       53       0.00483700      -0.02711400       0.33750800 
I       6.11968360      23.78090745      22.14286079       53       0.19801500       0.00950900      -0.61715300 
I       5.91386353      23.51880340      29.71947722       53      -0.00378300       0.01619300       0.44938600 
I      15.44302878       8.84459777       4.91744700       53      -0.25040100      -0.15614500       0.50871800 
I      14.85848049       8.11906173      13.55300184       53       0.95720200       0.64750800      -1.01461000 
I      14.36182333       8.28532952      21.59137952       53       0.21684500       0.20251400      -0.18284600 
I      15.17857373       7.93170696      29.70332135       53       0.19499800       0.34990700      -0.43995800 
I      15.70338200      23.39899185       4.38876602       53      -0.37362500       0.03724300       0.06295000 
I      16.07560368      23.20917052      12.51280550       53      -0.29935900       0.07521000       0.10041800 
I      14.48974729      23.77868825      21.06629448       53       0.55783600       0.01553200      -0.70935500 
I      14.44116613      23.53539419      28.22457971       53      -0.01335800      -0.26039400       0.07464200 
I       2.01367673       5.98060078       0.97192522       53       0.72916900       0.56227000       0.31120400 
I       1.45633571       6.22495020       9.06137191       53       0.53066200      -0.12414900      -0.06981000 
I       1.60417266       6.41484352      17.39952634       53       0.15211600      -0.22650200      -0.20680500 
I       1.91395356       5.02127300      25.26262458       53      -0.24267900       0.00081500       0.33133300 
I       1.06676188      22.01530788       0.92851037       53       0.43973200       0.17841300       0.26890900 
I       2.41219833      20.72669780       9.40043735       53      -0.24484900       0.06848800      -0.01942900 
I       0.73266100      21.69581379      17.45211199       53       1.16999300       0.18696600      -0.02664900 
I       1.36910861      21.64879084      25.86925743       53      -0.54881800      -0.32563600      -0.78925600 
I      11.01830135       5.81173159       1.15939556       53       0.17214700       0.16869800      -0.00475800 
I      10.65334454       6.07987280       9.15258425       53       0.20040200      -0.07638100      -0.14041000 
I      10.71898689       5.50351700      17.72488828       53       0.24649300       0.17694900      -0.06666500 
I      10.63533545       4.92949699      25.50040562       53      -0.09826900      -0.20320700       0.39147100 
I       9.99125902      21.92750697       0.64345598       53       0.89492400      -0.03416100      -0.04229200 
I      10.94716929      21.86307105       8.75518796       53      -0.33505900      -0.48044800      -0.29824100 
I      10.29623250      21.14535747      15.80106946       53       0.05371800      -0.33203300       0.26309000 
I       9.56463497      21.16215304      23.96561621       53       0.21414100       0.01578500       0.52210500 
I       5.76661964      14.28221390       1.39988444       53      -0.77096700      -1.21504200      -0.54377600 
I       7.06470062      13.49657998       9.26389105       53      -0.86992500      -0.23595400       0.41398200 
I       6.27846247      12.71153101      17.53589522       53      -0.27091600       0.51389800      -0.28522900 
I       6.03790160      13.17686589      25.14841021       53       0.15339600      -0.10839300      -0.10359800 
I       6.39772758      29.06953800       0.71763754       53      -0.29864100       0.36662700       0.14478200 
I       6.22041751      29.57417577       9.35406627       53       0.29076900       0.11169900      -0.04249800 
I       6.56149332      28.52545339      16.76412092       53      -0.00217900       0.16065300      -0.14955500 
I       6.12289632      28.64691034      24.80114010       53      -0.04213000      -0.02372800       0.24380000 
I      14.52956924      14.20309414       1.27942812       53       0.22557300       0.10930700      -0.32921800 
I      15.84903017      13.35715044       8.62748501       53      -0.80030600      -0.61348000       0.52699600 
I      14.25815346      13.66957025      16.82392987       53       0.08187600      -0.46661800       0.06609900 
I      14.68724712      13.08468741      24.76186662       53      -0.29615400      -0.39058500      -0.42568000 
I      15.06823814      30.09050464       1.60181660       53      -0.08776200      -0.06107200       0.06579200 
I      15.63429782      29.19530257       9.25681982       53      -0.02899900      -0.12857800       0.30228100 
I      14.94394358      28.85737258      16.88894265       53       0.42439900       0.01695600      -0.07011900 
I      14.62090830      28.31123402      25.06514807       53       0.64630400       0.25117200      -0.00461600 
I       6.37153411       1.12192765       6.55448392       53       0.05999300       0.10325500       0.13563400 
I       6.65305034       1.27488631      14.44693261       53       0.66929500      -0.51982200      -0.00671100 
I       6.17963956       0.64654705      22.11081770       53       0.04737700       0.40200400      -0.04663900 
I       6.42096584      -0.20092039      29.92037023       53      -0.41084800       0.16261600       0.42252200 
I       6.53328543      16.46895694       5.37421124       53      -0.53333900      -0.07635000       0.17045200 
I       6.80040879      16.36956529      12.76894842       53       0.16308200       0.04960000      -0.36547700 
I       6.08152123      15.41073529      21.61988749       53       0.24145800       0.89599600      -0.01157400 
I       5.08695793      15.02988113      29.08056000       53       0.30983200      -0.16548000       0.37578900 
I      16.06043626       1.14984660       6.67006389       53      -0.48139300       0.20912100      -0.11374300 
I      16.12017527       0.89197820      13.98170114       53      -0.29262800      -0.33703700       0.17597000 
I      15.17774242       0.07587257      22.43913284       53       0.08673900       0.03582900      -0.26053200 
I      15.29249614       0.49878005      30.29473913       53      -0.11002800      -0.27683700       0.03142800 
I      15.33976746      16.16869458       5.67715814       53      -0.04516300       0.12011300      -0.15641700 
I      15.42082054      15.43403234      12.77125177       53      -0.87637400       0.61274500      -1.07689700 
I      14.79756649      15.96153732      21.15697964       53      -0.08923000       0.09552800      -0.22974400 
I      14.05226344      15.55332483      28.09206731       53       0.30421700      -0.03465000       0.21790800 
I       2.21626582       8.57960541       5.09567861       53      -0.74692600       0.44531500       0.44356200 
I       1.88343016       8.54943176      13.28176348       53      -0.12311100      -0.17854700       0.11016500 
I       1.56334199       8.72970820      21.84084152       53       0.24832700      -0.33421500      -0.06983500 
I       1.33741224       7.92897579      29.29572424       53       0.38881000      -0.37244900       0.10859500 
I       2.33232430      24.63676001       5.80482256       53      -0.21696900      -0.49311900      -0.26101200 
I       2.50097349      23.87971516      12.24535772       53       0.08354000      -0.11216100       0.60674300 
I       0.89644701      23.69256619      21.42529016       53       0.71956800      -0.37281500      -0.17546400 
I       0.94693512      23.70296572      29.37951051       53       0.30262500       0.14251400       0.47964000 
I      11.21826471       9.65147986       5.03320438       53      -0.11795300      -0.39352300       0.37510800 
I      10.58043732       7.79255419      13.17330037       53       0.03730600       0.14854400      -0.29610300 
I      10.18301671       7.79582065      21.69253821       53      -0.13530400      -0.15507000      -0.26830600 
I      10.47218002       7.48965292      29.52499850       53       0.26181200      -0.16182200       0.06405100 
I      10.55562160      23.71650701       4.61631784       53       0.61959800      -0.17208200       0.18880200 
I      11.25185586      24.17207091      12.40922281       53      -0.41289600       0.01628500       0.22873400 
I       9.94881235      23.55482158      20.61006349       53       0.13021400       0.24097300      -0.17436100 
I      10.30329055      23.55350365      28.63059226       53       0.31776600      -0.67713600      -0.11154800 
I       6.66355531       6.19270943       1.18157643       53      -0.36411700       0.34686700      -0.20080000 
I       6.37938191       5.88884099       9.15262480       53       0.00054600      -0.08384000       0.18702300 
I       6.03920636       5.72802845      17.55243532       53      -0.06822200       0.08392500       0.04253400 
I       6.12581200       5.25101564      25.31262911       53       0.01965100       0.17206100       0.13623000 
I       6.17596251      21.60144855       0.89693364       53      -0.67489700       0.34072300       0.08276900 
I       6.79559123      20.83125576       8.65844232       53       0.21798900      -0.25191600      -0.10683100 
I       6.00136030      21.01562693      18.07854734       53      -0.49307000       0.09249300      -0.25119700 
I       5.63422586      20.68472965      26.15710585       53       0.66613600      -0.58424300      -0.89405100 
I      15.85722064       6.69861038       1.28807783       53      -0.24575900      -0.07083200      -0.03767500 
I      15.22187807       5.96963656       8.48614143       53       0.38183400      -0.36554200       0.69978300 
I      15.38580196       6.56191404      16.96549548       53       0.95347600      -1.00555700       1.00664800 
I      15.24918571       6.59548188      25.25243288       53       0.00590000      -0.61484400       0.09317100 
I      15.00157085      21.08440698       0.02284896       53      -0.54113500       0.19407200       0.36147200 
I      15.37061224      21.19435327       8.59935721       53       0.36432200      -0.22207200      -0.11688000 
I      14.74412215      21.30235104      17.04110244       53       0.37602200      -0.35764600      -0.31296400 
I      14.60123658      20.94661776      24.30990271       53       0.23268000      -0.41182000       0.15932200 
I       1.29120134      14.13549922       1.15391295       53       0.50612700      -0.45163700      -0.09449700 
I       2.45924256      13.43914026       8.85597054       53       0.01210000      -0.01808700       0.18152100 
I       1.74312065      13.28952713      17.63642841       53      -0.40364900       0.17391000      -0.10809300 
I       1.70920407      13.49869679      25.33206563       53      -0.22268400      -0.05157200      -0.06258800 
I       1.92473935      29.79128446       0.87925707       53       0.22554500      -0.71537900       0.61480100 
I       2.27773842      29.18914882       9.31073456       53       0.69321700      -0.49665200       0.12666500 
I       2.33026122      29.71823025      17.54713620       53      -0.68468900      -0.75677300      -0.05720400 
I       1.78697751      28.82227898      25.59484994       53      -0.08499000      -0.11912900      -0.00239400 
I      10.45177228      14.15155878       0.99300409       53       0.12318500      -0.26202000      -0.36441900 
I      11.10171049      13.12223237       8.47164514       53       0.32261800       0.03879100       0.34235900 
I      10.09637356      12.79554944      17.21669615       53       0.77482200      -0.14931900      -0.44047300 
I      10.83694724      13.28780064      26.14238551       53      -0.17859400       0.29102600      -0.53727600 
I      10.54273421      29.22621730       1.34395123       53       0.03580700       0.08433000       0.04167100 
I      10.56467785      28.60044193       8.78184778       53      -0.07438700       0.52181000       0.30987500 
I      10.58947735      28.87768705      17.53178833       53       0.34708900      -0.19201700      -0.34005800 
I      10.76044105      28.37787799      24.39063238       53      -0.48181200       0.33950700       0.12395500 
I       4.47749861       4.71355720       4.83655208       53      -0.24428500       0.55238300       0.37429700 
I       4.21128665       4.57999451      13.71221664       53      -0.09348600      -0.03058400      -0.33425100 
I       3.84499569       4.45895728      21.72270070       53       0.03133700      -0.12584300      -0.23233900 