320
Lattice="17.9155379683 0.07771606786 -0.0115694776758 0.180510688946 30.9154111323 -0.716684464172 0.0903732655176 -0.821464428364 32.6991905776" Properties=species:S:1:pos:R:3:Z:I:1:forces:R:3 energy=-101586.54705 stress="-1177.629791 491.216982 632.690052 491.216982 -1694.705655 -129.885484 632.690052 -129.885484 -3016.82696" pbc="T T T"
Cs       5.02284487       2.96235759       1.74436637       55      -0.45508800      -0.24073400      -0.00220100 
Cs       5.05056750       2.58467275       9.90571644       55      -0.38024000      -0.09867800       0.22544500 
Cs       4.37453428       3.03653603      18.20179842       55      -0.01114200      -0.43416400      -0.20105000 
Cs       5.18303756       2.53206065      25.90065910       55      -0.35597400      -0.67942800      -0.10513300 
Cs       4.24270668      18.32655075       2.18262298       55      -0.05926200      -0.22185800      -0.00311400 
Cs       4.47604600      17.21684663       9.59427578       55       0.30496900       0.29480300       0.04864300 
Cs       4.83860137      17.71180497      17.90779584       55      -0.11945500       0.24052300       0.11455000 
Cs       4.56132731      17.04140248      26.06168537       55       0.10158200       0.00430600       0.06542300 
Cs      12.61956458       2.09881365       2.02968650       55       0.63982800       0.37727500       0.12950900 
Cs      13.79733761       2.36708606      10.01347594       55       0.01218900      -0.13913700      -0.04388200 
Cs      13.31249710       1.86314336      19.28931712       55       0.13037900       0.22088600      -0.23197800 
Cs      13.59174125       1.81686138      27.20662553       55      -0.03093600      -0.00826300      -0.01241300 
Cs      12.79149855      18.12923632       1.40725043       55      -0.04646200       0.22000800      -0.27993400 
Cs      14.72404962      17.67819848       9.66814721       55      -0.25921800      -0.15371100       0.04074600 
Cs      12.67733979      17.99178917      18.21295416       55       0.62608300      -0.56978600       0.14739900 
Cs      13.57754498      17.52113782      25.77547168       55      -0.01868300       0.02866400       0.13067700 
Cs       0.24492913      10.50431823       0.81908059       55      -0.13006400      -0.16279200       0.04212500 
Cs       0.32223450      10.22635901       9.16111722       55       0.23568300      -0.17039900       0.03331800 
Cs      -0.11988809      10.03311590      17.62127922       55      -0.00164900       0.01561800       0.09068100 
Cs       0.27887615       9.99102317      26.01311410       55      -0.16250900      -0.14772300      -0.01190700 
Cs      -0.59742359      26.53576254       1.03151129       55       0.66773700      -0.40088100       0.21437800 
Cs       0.52659269      25.76210594      10.44986412       55       0.13073700       0.09441000      -0.14575000 
Cs       0.24574847      25.60313719      17.51159028       55      -0.19085400      -0.34588800      -0.12083300 
Cs      -0.46302918      25.01922776      25.75825318       55       0.19603900      -0.00082800       0.07556700 
Cs       8.21476322      10.17522092       0.45216215       55       0.33466600       0.03802800       0.26182600 
Cs       9.79917071       9.83235125       9.76682171       55      -0.03867700       0.09328900       0.02161000 
Cs       8.53143612       9.57885760      18.42620827       55       0.28011400       0.00582200      -0.00328200 
Cs       9.05136627       9.25810321      26.97133035       55      -0.10834800       0.04555600      -0.12282000 
Cs       9.12369152      25.98363994       1.77965221       55      -0.05640700      -0.05730900      -0.13610300 
Cs      10.04903727      25.09845444       9.70468241       55      -0.07956200       0.10173300      -0.13265300 
Cs       9.68089692      25.10885588      16.49139636       55       0.07918700      -0.45588300       0.46041300 
Cs       8.96854097      25.44909876      25.63095843       55       0.18804700       0.18007100       0.09188600 
Cs       0.89191310       5.49808091       5.72924072       55      -0.26598800      -0.52989600      -0.14097000 
Cs      -0.02843320       4.94971756      14.45769343       55       0.05357000      -0.51238200       0.09528500 
Cs       0.38012662       4.71603057      22.03589750       55      -0.00391800       0.24825600       0.32334600 
Cs       0.39188518       4.15063983      30.50157536       55      -0.18097600      -0.37927300       0.11247200 
Cs      -0.47181532      19.78836610       6.01925025       55       0.21944900      -0.01242600      -0.33602400 
Cs       0.30202731      20.29091408      12.87085229       55       0.33241000      -0.14963700       0.40930700 
Cs       0.94276757      19.98148621      22.57825502       55      -0.15308100       0.18903100       0.02566400 
Cs      -0.32729291      21.05303271      29.57390066       55       0.06879000      -0.03261100       0.01825200 
Cs       8.88529888       5.46665089       6.29155231       55       0.20636900      -0.23323500      -0.03122800 
Cs       9.37763550       5.19556565      13.39151742       55       0.01018400       0.02751500       0.40721200 
Cs       8.88139427       4.29641972      22.04116125       55       0.24019800       0.13757300       0.56155200 
Cs       9.12706955       4.47117464      30.77698097       55       0.08992600       0.08198800      -0.20488000 
Cs       8.45853347      19.82536281       5.16428100       55       0.26365200       0.11883900       0.25441000 
Cs       9.02275110      20.92306440      12.44718536       55       0.06507800      -0.25833900       0.15980000 
Cs       9.32865863      19.82757485      22.29945002       55      -0.58237400      -0.07987800       0.10289400 
Cs       9.14824654      21.11906138      30.00192966       55       0.30673000      -0.42088800       0.04705400 
Cs       4.35367547      13.42274616       6.21122063       55       0.37220700      -0.33894600      -0.12023200 
Cs       4.42467309      12.19038890      14.59001812       55       0.00798200       0.01972500      -0.13405100 
Cs       3.24627386      12.01032753      22.21157241       55       0.69858700       0.00022400      -0.11192300 
Cs       3.63019123      12.47490697      29.97863517       55       0.40323000       0.00192000       0.05859500 
Cs       4.99629230      27.54029430       6.86425517       55      -0.11836000       0.04966300      -0.11862300 
Cs       5.97257486      27.99631938      14.30744474       55      -0.54923200       0.28107400      -0.12609100 
Cs       5.00879600      27.37590119      20.86076651       55       0.31576900       0.53687200       0.56775200 
Cs       5.44351803      27.42224924      30.26891307       55      -0.41910600       0.15592900       0.12816900 
Cs      14.15419007      13.15419420       5.20061288       55      -0.42564500      -0.52005000      -0.11279900 
Cs      13.21217781      12.46062531      14.66704394       55       0.10410700      -0.05149600       0.08434700 
Cs      13.59439346      12.57674094      22.19498926       55       0.08447300      -0.51842800      -0.17994400 
Cs      12.75047320      11.55940661      30.46127482       55      -0.17675500       0.29328600      -0.01828400 
Cs      13.29448873      27.98277879       5.73891838       55       0.25607800       0.34442100      -0.03936600 
Cs      14.23749316      27.56482493      13.60415956       55       0.13522100       0.14671500       0.00230100 
Cs      13.17652194      27.85843512      21.41593777       55       0.26157900      -0.13403200       0.19465800 
Cs      13.35819659      28.63037271      30.78001643       55      -0.18822800      -0.49725600      -0.04566100 
Pb      -0.28590771       0.16468385       4.27074241       82       0.26850700      -0.00216500       0.44721000 
Pb       0.43931282      -0.10968385      12.80608518       82      -0.22171300      -0.89090300       0.42154100 
Pb      -0.03499002      -0.60300146      21.43342567       82       0.29710000       0.11341500       0.14463200 
Pb      -0.45463747      -0.72766739      29.47696753       82       0.88561800       0.42145100       0.33912100 
Pb      -0.31999502      15.05737683       3.38662531       82       0.13754600      -0.20663600       0.39379700 
Pb       0.30947057      14.59663390      11.81686485       82       0.18453900      -0.06601400       0.33593000 
Pb      -0.11596823      15.06803649      20.19191530       82       0.14025800       0.20894300      -0.92305600 
Pb       0.13834070      15.07776396      28.55158823       82      -0.24031200       0.47773500      -0.73888800 
Pb       8.60402466       0.15224217       4.36789512       82       0.26526200      -0.68404900       0.25114500 
Pb       9.52205422      -0.29035618      12.90082254       82      -0.03018100       0.17204600      -0.48486000 
Pb       9.55529067      -0.30118051      20.37670977       82      -0.34576000       0.19680100       0.55410400 
Pb       8.79627967      -0.12849734      28.93358228       82       0.06987600      -0.77774500      -0.79821300 
Pb       8.68226222      15.28719275       3.70755252       82      -0.91364200       0.19412100      -0.03228500 
Pb       9.86518006      15.10847528      11.63088506       82      -0.16989900       0.03513900       0.80649500 
Pb       8.94825143      14.90721963      20.12259805       82       0.35736400      -0.20224600       0.33141700 
Pb       9.00177031      14.94007589      28.35520090       82      -0.23774700       0.18612600       0.27927900 
Pb       4.91262732       7.52612770       3.39340171       82      -0.26543400      -0.21119600      -0.38734700 
Pb       4.42038320       7.07129403      11.78931300       82       0.32571800       0.16991100       0.37021900 
Pb       4.68896566       6.80820202      19.91469207       82      -0.36051500       0.16003500       0.17558400 
Pb       4.26910880       6.91894208      28.36975500       82       0.28752300       0.10935700      -0.08744400 
Pb       4.24231429      23.13300542       3.69579599       82      -0.85311100       0.07327500      -0.36230700 
Pb       5.01891688      22.60498040      11.65984281       82      -0.64942800      -0.24806000       0.49846500 
Pb       4.53740866      22.91170320      20.05098237       82      -0.66645300      -1.11018000      -0.35581500 
Pb       4.89270578      22.47004619      28.06944974       82      -0.51754400       0.43814300       0.63032500 
Pb      13.56383259       8.00338060       4.07982519       82       0.02870000       0.06177200      -1.05237600 
Pb      13.99754518       6.96096873      11.70462028       82      -0.64279000       0.50966500       1.03412900 
Pb      13.87964650       7.19332707      20.08365971       82      -0.27129300       0.34236100      -0.78857400 
Pb      13.71438320       7.11346097      28.18249740       82      -0.04135900       0.43635700      -0.17624800 
Pb      13.45157684      23.39541431       3.48916274       82       0.29333400      -0.71628500      -0.02861600 
Pb      14.47895276      22.50401050      11.26123003       82      -0.20925700       0.57663100       0.23066700 
Pb      13.09937108      22.69526624      19.17518073       82      -0.09767600      -0.12461300       0.10410000 
Pb      13.64584465      23.21263059      27.83357817       82       0.04276200       0.07951000       0.30398900 
Pb       4.67163127       7.60775549       7.32871161       82       0.49583500       0.04061800       0.40834800 
Pb       4.25988351       7.50332726      15.83728324       82       0.37621200      -0.42324000       0.80398600 
Pb       4.76665835       6.99306562      24.31826136       82      -0.28372300       0.32586000      -0.34722900 
Pb       4.68436064       6.38930072      31.97201622       82      -0.07516800       0.24390900       0.43550300 
Pb       5.23148176      22.62617264       7.50725118       82      -0.26452300       0.07713100       0.17053300 
Pb       4.87210416      23.09993975      15.85780456       82      -0.98059300      -0.48515800      -0.22790400 
Pb       4.45637758      23.28755315      24.56471329       82      -1.24418100       0.30773300       0.22495200 
Pb       3.66726215      22.54101941      31.99539712       82       0.25766200       0.26108100       0.45479500 
Pb      13.91277418       7.95654968       7.72012510       82      -0.02817400      -0.27345000      -0.52640300 
Pb      13.87657242       7.20654235      15.96285492       82      -0.44929800       0.06702000       0.23632600 
Pb      13.39454169       7.52501558      23.81493876       82      -0.14703300      -0.23524100       1.10900300 
Pb      13.56299190       7.09736780      32.47958906       82       0.26692700      -0.01261100       0.23386600 
Pb      14.12274683      22.59037649       7.33286324       82       0.07653900       0.32547600      -0.55457700 
Pb      13.69473614      22.45593226      15.30717122       82       0.25066400       0.47753200      -0.28543500 
Pb      13.46432350      22.85420754      23.67295369       82       0.15401100      -0.31621600       0.18025400 
Pb      13.79335168      22.58122642      31.90625186       82      -0.60478400      -0.37716000       0.03081700 
Pb       9.50298558      15.10454729       7.90117660       82       0.44573300       0.12499800      -1.43046300 
Pb       8.79758798      15.28805581      15.93280742       82       0.94428600       0.08775200      -0.65455600 
Pb       9.34505982      14.56463765      24.27892960       82      -0.93100700      -0.19267400      -0.09488200 
Pb       8.37349918      14.26882661      32.51260187       82       0.49027600       0.59125600      -0.76636300 
Pb       9.19820949      30.53096921       8.02805050       82       0.27336400      -0.12849200      -0.13685600 
Pb       9.61369717      30.40688476      15.98865219       82       0.06663900       0.97071800       0.16085900 
Pb       9.30805091      30.33057561      24.07234617       82       0.10390200      -0.23827400       0.52753200 
Pb       8.89019463      30.28835683      32.25764641       82       0.71277900      -0.96644800       0.08802700 
Pb      18.27702798      14.77620935       8.06009147       82      -0.05001600       0.26952700      -0.65320000 
Pb      18.15279816      15.12160721      15.86519394       82      -0.36734800      -0.06751900       0.35404900 
Pb      17.77418520      15.24417393      23.96179417       82       0.06902000       0.03694800       0.35666600 
Pb      17.36382098      15.21595116      32.00019834       82      -0.09223000      -0.06777500       0.30912000 
Pb      18.47426008      31.31969937       7.66136077       82      -0.11715600      -0.14425300      -0.33252400 
Pb      18.72768867      30.80701323      16.59985119       82      -0.28641800      -0.10253600      -0.50609800 
Pb      18.00481030      29.77896434      24.75064428       82       0.04263400       0.17570800       0.26902100 
Pb      17.82528262      30.64743962      32.70445636       82       0.14635000      -0.07059100      -0.11518900 
I       2.26630728       1.60538117       5.80816650       53       0.11406100      -0.25471100       0.49513000 
I       3.04646986       0.28087370      14.80528299       53      -0.07959400       0.05291200       0.36710400 
I       2.13477753       1.21907894      23.12896256       53      -0.29533100      -0.47677400      -0.12981600 
I       2.22378048       0.60148679      31.70525951       53      -0.03367200       0.08291300      -0.15254100 
I       2.24014202      16.36533876       5.81932020       53      -0.37518400      -0.00410200       0.00660200 
I       2.21174643      16.56369823      13.57732947       53       0.31308700      -0.18676700       0.33046200 
I       2.21847200      16.59227782      21.90549106       53       0.16833700      -0.48425500      -0.04967100 
I       2.38966896      16.26464029      30.39299041       53      -0.49309300      -0.11905000      -0.12673700 
I      10.90611487       1.12495355       6.37711927       53       0.09352200       0.11979000       0.22526600 
I      11.72659527       0.89198731      14.83224523       53      -0.01026100      -0.07366500       0.08612200 
I      11.44254990       0.59911210      22.98115565       53       0.23407600       0.25063800      -0.16725500 
I      10.91781447       1.18428410      30.80722162       53       0.39080300      -0.04598500       0.39000700 
I      11.41306964      16.20514099       4.30891630       53       0.64705100       0.20513800       0.74092600 
I      11.81216630      15.97936794      14.20337738       53      -0.27316700       0.06936000      -0.11676300 
I      11.56109918      15.41503543      22.28592468       53      -0.10984100       0.90890000      -0.21078700 
I      10.64345896      16.98599992      30.42766936       53      -0.13902100      -0.37646600      -0.03777400 
I       7.19427247       8.77130176       5.47309385       53      -0.11385100      -0.05422100       0.00108300 
I       6.75233794       8.27204134      14.14975482       53       0.12815600       0.15738000      -0.56020200 
I       6.17299184       8.77342942      21.68346911       53       0.57817500       0.17890200       0.45757100 
I       7.11701995       7.67432701      29.96411157       53      -0.51104800      -0.04558100       0.33751400 
I       7.10041545      23.38751462       4.91738787       53       0.35077600       0.35536700       0.13425400 
I       6.97361983      24.41066368      13.79326018       53       0.50665000      -0.09522500       0.14272700 
I       6.22373957      24.27744238      22.29164893       53       1.00957800       0.17856900      -0.16141300 
I       6.90097436      23.90667116      30.63001882       53      -0.51857200      -0.18692700      -0.00276100 
I      16.53314244       8.46736636       5.66774896       53      -0.64806000       0.29374400       0.50119800 
I      16.21772906       8.05424523      13.53892584       53       0.10135200       0.70745300       0.48897400 
I      15.59971808       9.22715097      22.33767474       53      -0.11440400      -0.34100900      -0.25123100 
I      15.38647312       9.05362304      30.64077810       53       0.24483400      -0.26947400      -0.26543500 
I      16.42963115      23.77583268       4.89204502       53      -0.75933700      -0.20817900      -0.00153100 
I      16.56025310      23.70198260      14.08793064       53      -0.38491500      -0.02287200      -0.41681200 
I      15.57057532      23.47579275      20.53799628       53       0.50514700       0.30249500       0.89728900 
I      15.87363444      25.09924837      29.23742415       53      -0.28159000      -0.65708900       0.25147200 
I       2.03651372       6.30698776       1.84181795       53       0.94864800       0.27068500      -0.31961400 
I       2.60182213       6.30755297       9.32951864       53      -0.67663100      -0.46931500      -0.13094500 
I       2.00579021       6.34445006      18.03504586       53      -0.07359300      -0.08225900      -0.09063200 
I       2.38247069       5.79385027      26.22553362       53      -0.28584500      -0.22065900      -0.48809400 
I       1.32841920      22.59502420       1.54070656       53       0.31601600       0.00674200      -0.29903400 
I       2.96693720      21.52926701       9.53408623       53      -0.08707600       0.00091000       0.47141000 
I       2.42861238      21.36195535      17.55861740       53       0.39294900       0.29575800       0.17354900 
I       1.96614942      21.67961940      26.33541976       53       0.52030900       0.19876700      -0.05009500 
I      11.23172537       6.73368506       1.86518156       53       0.12494500      -0.03884600       0.34399900 
I      11.40195660       5.95506054      10.27371447       53      -0.37022700      -0.02485600      -0.67815300 
I      11.46033565       5.52716980      17.66034361       53       0.57693700       0.52006800       0.16964800 
I      11.56326039       5.66956962      26.47081447       53       0.03446900      -0.01643000      -0.13030000 
I      10.84535199      21.94201304       1.05175508       53       0.60319800       0.49629600      -0.04960200 
I      12.19241796      21.16948991       9.43922485       53      -0.03650000       0.23017300       0.04516700 
I      11.36568470      20.88999467      16.68280763       53      -0.71369300       0.41084600      -0.18227600 
I      11.12322073      22.15562904      26.20438509       53      -0.24640400      -0.31447000      -0.52401900 
I       6.25866860      13.60985840       1.26545038       53      -0.99397000      -0.06282600       0.46250200 
I       7.35858426      13.99219807       9.48516425       53      -0.57313900      -0.42519600       0.85964600 
I       6.79804861      14.15982385      17.89910730       53      -0.76387200      -0.29846600       0.05993000 
I       6.72674500      13.15182358      26.52205523       53       0.32011800       0.36603300      -0.19901800 
I       6.57139216      29.84271185       1.49532932       53       0.03476400       0.02944100      -0.08619400 
I       7.80724537      28.44178443      10.26482668       53       0.07576500       0.35634300      -0.10962500 
I       7.40416989      29.09975844      18.04753330       53      -0.23343500      -0.15884900      -0.25021100 
I       6.73709868      29.18817483      26.44062872       53       0.24873500       0.37855400      -0.26816800 
I      15.14314203      14.58992561       1.14622712       53       0.04681500      -0.08115200       0.24176100 
I      15.90834897      13.26469435       9.98742759       53       0.27342000       0.47410700      -0.29085000 
I      15.73189843      13.79128297      17.65503310       53       0.10186300       0.06019700       0.05406100 
I      15.38639383      13.88368123      25.26625303       53       0.07428500       0.00440300       0.50457200 
I      15.33637091      29.75387664       1.93758610       53      -0.25425200       0.15351800       0.04457000 
I      16.42428912      29.52534871       9.94207983       53      -0.04667200       0.21416400      -0.08865200 
I      16.50520431      28.95323748      17.85092537       53      -0.32742300       0.31455400       0.18260200 
I      15.43664039      28.85346407      27.51696017       53      -0.60328000      -0.20438000      -1.06610500 
I       6.54140769       0.75052475       7.03852215       53       0.04147300      -0.10616500      -0.07814200 
I       7.30399698       1.46910714      14.75694858       53       0.30338000      -0.57308200       0.16166800 
I       7.20815462       0.55556162      22.68038684       53      -0.46272300       0.30049700      -0.35485500 
I       6.62255160       0.57208378      31.22840916       53      -0.66239400       0.37277300      -0.43422000 
I       6.72481354      16.60713078       6.34433519       53       0.13148900       0.05456900      -0.05588800 
I       7.57210573      17.06180485      13.01230672       53       0.31140500      -0.44619900       0.13113700 
I       7.21000781      16.32943689      22.30583199       53      -0.27653300       0.11721700       0.27633500 
I       6.22341529      15.59541295      30.33171823       53       0.34803400      -0.03285800      -0.06083400 
I      16.11148627       2.21895690       6.12710938       53      -0.50327800       0.15896700       0.86451300 
I      16.01324686       1.04370595      14.94967731       53       0.59976200      -0.15172700       0.16368400 
I      15.46311875       0.21885434      23.68014687       53       0.02933100      -0.20965100      -0.39487600 
I      15.02060987       0.86999097      31.60263160       53       0.36986200       0.30647400      -0.14456400 
I      15.70577586      16.21595822       5.96658325       53       0.32918800       0.38467900       0.44233400 
I      16.04096643      16.17658987      13.23637195       53      -0.48923600       0.22434700       0.42337300 
I      15.72765022      16.71151531      21.96039550       53      -0.19760500       0.12182200       0.28085600 
I      14.83892810      16.02471671      30.11643303       53       0.52641100      -0.09183700      -0.06362200 
I       2.84966472       9.06729375       5.25195631       53      -0.19666800       0.16481300       0.23898400 
I       2.11325898       8.34147447      13.91725620       53      -0.23256300       0.52248300      -0.57595300 
I       2.13886919       8.34680836      21.94923773       53       0.03983800      -0.30113700       0.21747800 
I       1.56708631       7.60953753      30.19103639       53       0.52571600       0.22473900       0.04555800 
I       2.33204724      24.34325248       6.21810783       53       0.55272100       0.10419200       0.13434800 
I       2.66393501      24.32607261      13.42067746       53       0.58576300      -0.45286400      -0.24180400 
I       1.72307044      23.75267645      22.38972265       53       0.65984500      -0.25252200      -0.27261800 
I       2.17846220      24.74195472      29.49944267       53       0.40266900      -0.72182400       0.46502000 
I      11.68813166      10.23839001       6.01792669       53       0.48245000      -0.74441400       0.24012700 
I      11.70187760       8.86610215      14.29494815       53       0.05787500      -0.27150600      -0.14444000 
I      10.66325953       7.59941156      22.36387659       53       0.00705800       0.37787500      -0.23754200 
I      10.99418054       7.97396337      30.60420326       53       0.23310700       0.06979300      -0.19107200 
I      11.50713811      24.74630967       6.00241702       53       0.38496400      -0.65077700      -0.12879100 
I      11.76736139      24.07735171      12.97524190       53      -0.00326000       0.08922200      -0.11289700 
I      11.28980759      24.29941127      22.12713179       53      -0.29932400      -0.04080000      -0.55851400 
I      11.48956380      24.56531103      30.36922627       53       0.50379400      -0.54244800      -0.03135300 
I       7.14812976       6.15053398       1.28957540       53      -0.46906700       0.26398700      -0.17825900 
I       6.91640372       5.93374834       9.92434593       53      -0.02738600       0.20887600      -0.15382900 
I       6.73928631       5.85381821      17.64670238       53       0.02885300       0.30235600       0.10917000 
I       6.72609339       5.67328312      26.35541348       53       0.33695900       0.55659600      -0.20615800 
I       5.66968246      21.64908394       1.22504310       53       0.08123100       0.12013900      -0.25227300 
I       7.54714408      20.64381517       8.80270434       53      -0.27401500       0.27746300       0.21143700 
I       6.86380484      21.66646307      17.66449220       53       0.23758300       0.10878200       0.58234600 
I       6.26551615      21.05641989      25.48982727       53       0.57146400      -0.32748000       0.22418800 
I      16.03164966       7.07076339       1.79654948       53      -0.41162000      -0.13875900       0.01258200 
I      15.95196858       5.58362958      10.09277988       53       0.63786300      -0.36360600      -0.86847600 
I      16.09673394       5.47603882      18.67684538       53      -0.37845700       0.72399600      -0.40523700 
I      15.98323188       6.36637728      25.98138622       53      -0.13359100       0.12769800       0.05799700 
I      15.42949296      21.13657977       0.92161193       53      -0.34910600       0.46098000      -0.00184400 
I      16.74346174      21.15389587       9.52250354       53      -0.32056700       0.21139300      -0.23842100 
I      15.49809352      21.14848675      17.31778908       53       0.01686800      -0.21366900       0.42443500 
I      15.68660861      21.20212252      26.07237451       53      -0.27585100       0.39304100      -0.24270400 
I       1.75604665      14.44424128       1.08943492       53       0.21888100      -0.30642600      -0.02972400 
I       2.98541319      13.68214603      10.00684593       53      -0.11283500      -0.20209700      -0.39465900 
I       2.16132603      13.50919245      18.10764863       53      -0.09112900       0.28431700      -0.13916100 
I       2.09081738      13.68805225      26.24555986       53      -0.05635300      -0.02177600       0.02232100 
I       1.78555436      29.31254595       1.72298708       53       0.41300800       0.12751200      -0.23409600 
I       2.66760378      29.62382904       9.48100245       53       0.30951500      -0.06708500       0.02566500 
I       2.62062342      28.90268290      18.80789531       53      -0.57122100       0.84046700      -0.33152500 
I       1.85409088      28.25728272      27.21076598       53      -0.20230400       0.24633000      -0.17915000 
I      10.07941414      13.26300584       1.91307174       53       0.81149900      -0.32482800      -0.76559500 
I      11.78627145      13.26325185       9.23997997       53      -0.16748200       0.10384600       0.14995600 
I      11.16666345      13.58426546      18.24550342       53      -0.04797100       0.11102400      -0.49387600 
I      11.55826501      13.89144775      26.27112738       53       0.06505200      -0.00890800       0.54164000 
I      11.25417815      29.72969470       1.78082227       53      -0.50907500      -0.21767900       0.06923200 
I      12.18649548      29.72262858       9.98947901       53      -0.48093300       0.03686400      -0.02224300 
I      12.16516498      29.09441032      17.88529935       53      -0.36171400       0.36232900      -0.07172300 
I      11.44539424      28.82204015      26.33674943       53      -0.46287700       0.48188600       0.01062100 
I       4.52869368       4.69329418       5.11674865       53       0.49565000       0.73379500       0.27123500 
I       3.80401193       4.59267093      14.26917732       53       0.34673100       0.16257500      -0.10776000 
I       5.13415014       4.19861133      21.92500292       53      -0.33751600       0.39318100       0.05008700 