320
Lattice="17.4139675946 0.159354966098 -0.475812851848 0.323843082775 30.0994112618 -1.65038716611 -0.761649286219 -1.75334028193 32.3619054498" Properties=species:S:1:pos:R:3:Z:I:1:forces:R:3 energy=-101586.333321 stress="3990.314083 -1608.329935 -76.135252 -1608.329935 2017.055056 119.072093 -76.135252 119.072093 190.358643" pbc="T T T"
Cs       4.48120855       2.44212854       2.16522652       55      -0.00950500      -0.24093200      -0.22794900 
Cs       4.53859835       2.61485522       9.27998058       55       0.03992100      -0.07694000       0.05507200 
Cs       5.70969241       2.16928798      18.75671963       55      -0.51370200       0.29929000       0.07348200 
Cs       4.10157573       1.25336204      27.03398725       55       0.04443800      -0.35892800      -0.40631000 
Cs       4.22987060      18.37949637      -0.43855190       55       0.14017700      -0.77765800       0.01613900 
Cs       4.45312925      16.78114055       9.32558377       55       0.29892900       0.00465300      -0.02354600 
Cs       2.89941459      16.78456298      17.39911944       55       0.52440700      -0.09317100      -0.05215000 
Cs       3.00580410      16.01156873      24.94566328       55       0.28842800       0.19824300       0.08942500 
Cs      13.56956480       2.80849831       0.84468789       55       0.21499200       0.21011300       0.50341400 
Cs      13.48855593       2.43799630       9.08700343       55      -0.35888600       0.11781500       0.12228500 
Cs      12.50256434       1.39652301      17.41924630       55       1.07080700       0.02297900       0.12813300 
Cs      13.17717038       1.02311696      25.69244248       55      -0.33646100       0.08352000      -0.02157200 
Cs      13.27596932      17.66016841       0.59148868       55      -0.24602100       0.28793700      -0.24979500 
Cs      13.06457404      17.75741116       7.71892359       55       0.03746400      -0.17196600       0.30972700 
Cs      12.58107592      16.61601241      16.51499631       55       0.26223700       0.00228900       0.13465700 
Cs      12.23867713      16.10551366      23.71123876       55       0.33637400       0.40432700       0.27796900 
Cs      -0.26567369       9.80924240       1.98188561       55       0.00505400      -0.00263900      -0.05518600 
Cs       0.19987884       8.87842445       9.81593872       55       0.13695800       0.81496600      -0.09462300 
Cs      -0.39736407       8.38077801      17.36594088       55      -0.03396800       0.25767100      -0.03363200 
Cs      -0.21905065       8.50272947      25.67486974       55      -0.04523800       0.43148000      -0.05540500 
Cs      -0.04347576      24.62696830       1.85916254       55       0.41300100       0.07263400      -0.35978400 
Cs       0.53673375      23.93856187       8.50847373       55      -0.04198800       0.31126300       0.08982200 
Cs      -0.18161324      24.12478089      17.25133176       55       0.08629300       0.18437500      -0.06778900 
Cs      -0.37581860      24.32733248      24.27832978       55       0.11858200      -0.06563800       0.07208000 
Cs       9.24623677      10.10513379       1.38450811       55      -0.33343300       0.04457400      -0.05154400 
Cs       8.27956053       9.39418695       9.00320417       55      -0.25507300      -0.08896600      -0.01419400 
Cs       7.89031340       9.75442565      18.07434059       55       0.03038200      -0.16502600      -0.31984800 
Cs       8.19345540       9.56076063      24.98294118       55       0.35636800      -0.55957300       0.01611200 
Cs       9.75081381      24.64380233       1.18948627       55      -0.32019800       0.09848400      -0.09179400 
Cs       9.85184286      25.10621356       8.32607093       55      -0.57853600      -0.08779100       0.01453400 
Cs       8.09030290      25.17645667      16.66130755       55      -0.07039000      -0.34493600       0.20151600 
Cs       7.12133574      23.26619591      24.64366375       55       0.44800300       0.37804500       0.19442200 
Cs      -0.50416730       4.59040240       7.34061767       55      -0.17393400      -0.21525200      -0.54119100 
Cs      -0.62925906       4.82440289      13.39933840       55       0.06547400      -0.39239700      -0.01457500 
Cs      -1.18076919       4.29658262      22.13234186       55       0.30312600      -0.41972200      -0.01596300 
Cs      -0.78139831       3.88817464      29.70165141       55       0.07939900      -0.02309100       0.05328700 
Cs       0.37245997      19.32425727       4.88679424       55      -0.33509600       0.90585700      -0.01487400 
Cs      -0.01908607      18.94742679      13.18097065       55      -0.00195600      -0.05672100      -0.04917700 
Cs      -0.66597769      19.40757501      20.26949370       55       0.07306600      -0.11413100       0.03520700 
Cs      -1.51009933      18.50403484      28.91117912       55       0.43144100      -0.36564800      -0.16950500 
Cs       7.45556376       4.98944728       4.47314844       55       0.79461000       0.11459900       0.36339600 
Cs       8.61515733       4.56054060      14.42551691       55      -0.24526700      -0.30351600      -0.30468500 
Cs       8.86599084       4.35231653      22.49136332       55      -0.44707000      -0.32388200      -0.28643900 
Cs       8.82723151       3.08128504      30.10445668       55      -0.22063300      -0.09293600      -0.01908900 
Cs       8.72316683      20.14348278       5.26723956       55      -0.02916000      -0.02624500       0.13384500 
Cs       9.40938602      18.31229088      13.05742013       55      -0.29891500       0.31559900      -0.47149900 
Cs       8.32684454      18.78154598      20.53673754       55      -0.18399400       0.13653200      -0.25358300 
Cs       7.96664870      18.30634125      29.51803735       55      -0.75107100       0.26282800      -0.52134600 
Cs       3.44464212      12.47709199       4.93936093       55       0.58802000      -0.09788200       0.08839300 
Cs       4.51562030      11.36127026      13.36869003       55      -0.05149500       0.18446700      -0.13101500 
Cs       3.70554454      11.40740681      21.79054521       55      -0.09906000      -0.02811900      -0.22411400 
Cs       3.41254024      10.95070096      29.72317096       55       0.09805700      -0.11797100       0.08218000 
Cs       4.75220481      27.30549991       4.16503280       55      -0.13811200       0.00937500       0.11820400 
Cs       4.72967537      27.88552698      12.51916408       55      -0.31451600      -0.28428900      -0.16814800 
Cs       3.62672391      26.47962194      21.12224270       55       0.43482900       0.11551300      -0.04124100 
Cs       4.78407839      25.81768378      29.51439659       55      -0.37152300       0.22914900      -0.14798200 
Cs      12.63906587      12.83205099       4.78957941       55       0.11657100      -0.09384400       0.09784700 
Cs      13.03395060      11.82068973      12.68198036       55      -0.09787400       0.19507400       0.02146900 
Cs      13.02440706      11.83131293      21.25483630       55      -0.26371800      -0.09734300      -0.35621700 
Cs      11.74155408      11.59963328      29.08926924       55       0.32423000      -0.09071400      -0.02748900 
Cs      13.85703918      27.29081226       4.13132487       55      -0.09235100       0.21704700       0.11781700 
Cs      13.63251344      26.67452814      12.73539145       55      -0.32317400       0.19048600       0.00999500 
Cs      13.44301255      27.11697501      20.60303584       55      -0.05574300      -0.05556700      -0.26774700 
Cs      12.23639119      25.23078393      29.14235333       55       0.41522500       0.13673900      -0.15486000 
Pb       0.00427580      -0.23129584       4.64518126       82       0.09832200      -0.87263800       0.79792700 
Pb      -0.32655371      -0.76652722      12.63108451       82      -0.16512300       0.00761000       0.33337200 
Pb      -0.04227447      -0.63368839      20.33232071       82      -0.22062100      -0.66068200       0.46504500 
Pb      -0.40779287      -1.33014696      28.49966872       82       0.49334400       0.20210500      -0.29177600 
Pb      -0.10865850      14.96571596       3.04176407       82       0.09617100       0.43898500       0.16088800 
Pb       0.22136051      13.75782950      10.79882291       82      -0.62050600       0.46584300       0.91594100 
Pb      -0.39694337      13.60257787      19.44660052       82      -1.58623800       0.16479800      -1.25274600 
Pb      -0.94494334      13.46374055      27.44666803       82      -0.97064400      -0.28165600      -1.21956600 
Pb       9.14399147      -0.14615572       3.67800258       82      -0.03746400       0.25634200       0.83697100 
Pb       9.10500285      -0.68713536      11.97520664       82      -0.66564800       0.09566400      -0.08641200 
Pb       8.48106934      -0.61451259      20.18535549       82      -0.06441300      -1.00019500       1.29484500 
Pb       8.73314402      -1.83311995      28.58933686       82      -0.08087600       0.39741600      -0.87888100 
Pb       8.36015469      15.43414461       2.86914007       82      -0.24728800      -0.48730700      -0.36827000 
Pb       8.71751428      14.22261241      10.62009576       82      -0.10141300      -0.40323200       0.16251300 
Pb       8.30400007      14.22878137      18.92976931       82      -0.28778200       0.17493100      -0.49198600 
Pb       7.78191310      13.66131351      27.05497544       82       0.13281300       0.24086900      -0.91731600 
Pb       4.26368818       6.94346195       3.25916780       82      -0.36984800       0.98178400       0.62198100 
Pb       4.16527405       6.60587630      11.85630178       82       0.06675200       0.17023100      -0.67341800 
Pb       3.63811574       6.58782604      19.52858837       82      -0.30215200       0.26226200       0.34789200 
Pb       4.07653006       6.17749899      27.84872362       82       0.06510700      -0.14641500      -0.33673800 
Pb       4.78189912      21.89173976       3.20026367       82      -0.36196100       0.19860200       0.07861900 
Pb       4.35420470      21.39722465      11.06172017       82       0.40117700       0.08467400      -0.24677600 
Pb       3.77816232      21.46315608      18.90738742       82       1.04325400      -0.66220700       0.95043400 
Pb       3.33161311      21.14790945      27.51039626       82      -1.28164000       0.57565700      -0.66986200 
Pb      13.20934504       7.30712010       3.24873402       82      -0.08906900      -0.51400300       0.37986800 
Pb      12.49570751       7.19516179      11.39356854       82      -0.35706900      -0.34436500      -0.48324600 
Pb      12.44666992       6.79272438      19.36476121       82      -0.08755600       0.42085000      -0.28308100 
Pb      12.66144477       6.19979913      27.53025195       82       0.29488000      -0.17901900       0.00685700 
Pb      13.61641913      22.23053567       2.04362299       82      -0.44224500       0.33336700      -0.43997400 
Pb      13.54805821      22.33461232      10.32712236       82      -0.25521300       0.08677100       0.27830600 
Pb      12.50609643      21.76408890      18.66986581       82       0.63979400      -0.19723200      -0.79093400 
Pb      11.94033730      20.83475238      26.36170503       82       0.10900200      -0.25484000      -1.07107600 
Pb       4.24028644       7.01739667       7.27055201       82      -0.01993800       0.73528800       0.54520900 
Pb       4.33682536       6.48116337      15.91084074       82      -0.70042900       0.52418200      -0.66181100 
Pb       3.48803513       6.25942503      23.50069286       82       0.36745100       0.52740600       0.98628600 
Pb       3.51903841       6.27029746      31.64665988       82       0.65876400      -0.55711200       0.12245400 
Pb       4.80329307      22.38245859       7.10457449       82      -0.09093000      -0.65453000       0.43108300 
Pb       4.84469623      21.44393144      15.29249996       82      -0.25452800      -0.51000600      -0.07799700 
Pb       3.18778022      21.17688997      23.51335476       82       0.63102800      -0.06138100       0.66421000 
Pb       4.05461672      20.64909263      31.42109535       82      -1.04975500       0.67763500       0.11272100 
Pb      12.18018573       7.59622544       6.81862441       82       0.46190000      -0.60640900       1.11895800 
Pb      12.69755527       6.17069101      15.34662485       82      -0.77243200       0.12455500       0.21642400 
Pb      12.90518418       6.85486750      23.49767617       82      -0.12243800      -0.14147700      -0.10983900 
Pb      12.08194806       5.96604189      31.53169785       82       0.73626900      -0.56999500      -0.01025600 
Pb      13.35414096      22.12292294       6.09450425       82      -0.15588600      -0.31119100       0.71410200 
Pb      13.13679305      21.68955603      14.36080472       82      -0.11317800      -0.06028300      -0.21016700 
Pb      12.45147708      21.39581002      22.82873663       82      -0.34236300      -0.61946000      -0.37191100 
Pb      11.71202426      20.38181090      29.87213800       82       0.36632300      -0.31123500       1.17575900 
Pb       8.75844490      14.96477487       6.69067049       82      -0.15600600      -0.61035100       0.77826000 
Pb       8.69049870      14.03667552      15.02857787       82       0.44917600       0.13269100      -0.45070000 
Pb       7.99513175      14.50007072      22.99573300       82      -0.16899500      -0.26843700      -0.12187300 
Pb       7.98228941      13.72891578      31.00167837       82      -0.77381100      -0.76212500       1.00087800 
Pb       9.26356925      30.19766888       6.27489526       82       0.03584300      -0.45711300      -0.08152300 
Pb       8.76510235      28.61753978      14.42394676       82      -0.06072100      -0.09948500      -0.05943200 
Pb       8.55987901      29.05982316      22.76599037       82      -0.03605500       0.12120200      -0.40852900 
Pb       8.58010256      28.06955277      30.43045710       82      -0.30000500       0.68982700       0.59796800 
Pb      17.22954403      14.89665819       6.70802590       82       0.28927200      -0.12455800       0.17614200 
Pb      17.32426158      14.03439756      14.56139636       82      -0.53700000       0.54438900      -0.67974400 
Pb      16.84323084      14.00000076      22.67538812       82      -0.76881300       0.46503600       0.46405700 
Pb      16.39852793      13.70584402      30.53206537       82      -0.19401200      -0.28612300       0.62599700 
Pb      17.35696061      29.17062205       6.86248997       82       0.64611400       0.26865800      -0.41895000 
Pb      17.92970019      29.60266604      14.54720319       82      -0.82772300      -0.28725800       0.13540500 
Pb      17.67802328      29.53145891      22.02360460       82      -0.87261000       0.18367900       0.04721400 
Pb      17.41572616      28.49467813      30.74865263       82      -0.21794300       0.13213700      -0.25594400 
I       2.37645432       0.14320284       7.34246596       53      -0.31011400       0.05414500      -0.33890200 
I       1.68920332       0.91333792      14.61722598       53       0.38700600       0.00653300      -0.35821100 
I       2.13766163       0.27530794      22.35855938       53       0.69292000       0.30642300       0.12574500 
I       2.17059494      -0.43560400      30.37719656       53      -0.47305300      -0.20657900       0.12602900 
I       2.02248027      16.52579497       5.33780966       53       0.31244800      -1.24937100      -0.00726500 
I       2.33566028      14.93317245      13.09046410       53       0.06079600      -0.19474000      -0.10887900 
I       1.57035627      14.96605591      20.97041151       53       0.86267000       0.60640800       0.85830400 
I       1.18948926      14.87192057      28.90063468       53       0.44705300       0.28539500       0.79904800 
I      11.62010906       0.27880315       5.66775789       53      -0.52814400       0.19513700       0.20701600 
I      10.84571213      -0.44252364      14.68122338       53       0.53217500       0.09460000      -0.24898500 
I      10.78545120      -0.00220021      22.56952200       53      -0.12557300       0.15423400      -0.10329000 
I      10.77508122      -0.41034101      30.76651946       53      -0.33981300      -0.48421100      -0.46946800 
I      10.74309797      16.38253431       4.71868531       53       0.11930000       0.44394500      -0.00436300 
I      11.10995225      15.20066652      13.36751167       53       0.33819800      -0.28992900      -0.44773000 
I      10.49250771      15.50890478      20.62613452       53      -0.10772900       0.21899100       0.08678400 
I       9.59332109      15.28231740      29.00340934       53       0.83031600      -0.08895500      -0.27598700 
I       6.27155657       8.86696284       5.30445565       53      -0.31539300      -0.36179300       0.00361900 
I       6.20618342       8.01499143      13.96890378       53       0.22658300      -0.08656900      -0.13726800 
I       5.81240128       7.72396303      21.66377065       53      -0.13825300      -0.09569000       0.00523600 
I       6.21183297       7.28962113      30.12064869       53      -0.25324600       0.08980300      -0.05331000 
I       6.78196759      23.59314440       4.92551568       53       0.28950300       0.14893500       0.25184000 
I       6.88592660      21.57941212      13.19661734       53       0.66606300       0.37351900      -0.16842900 
I       5.97943055      22.26607494      21.52636890       53      -0.08917100      -0.32943500      -0.19746300 
I       5.41144929      22.27050626      29.27397293       53       1.28425900       0.57212300       0.29745600 
I      14.51974796       9.25314643       5.28603253       53       0.55955900       0.22965800       0.04793000 
I      14.32157485       8.02540428      13.68547391       53       0.84401300       0.60632400      -0.29511300 
I      14.98787355       7.80661682      21.23163593       53      -0.24039800       0.42931400      -0.07361300 
I      14.65931004       7.59125778      30.14876188       53      -0.52014200      -0.42545600      -0.12887600 
I      15.18940927      23.97302645       4.22844500       53       0.45839900      -0.59127400      -0.17384500 
I      15.68037434      23.79312293      12.17270782       53       0.03505000      -0.72654000      -0.34985200 
I      14.29480551      23.17552188      21.16561279       53       0.57724400       0.11737700      -0.41997300 
I      14.12750906      21.65289722      28.30577440       53       0.06188200       0.70762800      -0.06759500 
I       2.41741684       6.16460480       1.06134293       53      -0.67033700      -0.65741400      -0.24066800 
I       2.05578444       5.86858082       9.35190151       53       0.57442500      -0.47148600       0.41844000 
I       2.26935201       4.61800417      17.28710929       53      -0.07885400       0.12290100       0.23158900 
I       1.44205542       5.46697484      26.16807389       53       0.29020300      -0.37318400      -0.36683800 
I       2.65131763      21.02049188       1.02991398       53      -0.62431000       0.20144900       0.22232300 
I       2.19832233      20.68742328       8.85856477       53       0.27682200      -0.07973300      -0.08414200 
I       1.77206646      20.73403336      16.88976615       53      -0.59266500      -0.51090100      -0.28218900 
I       0.49236475      20.25726646      25.80641258       53       0.61610500       0.24485200      -0.26177700 
I      10.98515558       5.79945426       1.41403195       53       0.06308200       0.26205300      -0.46793200 
I      10.11575898       5.71071924       8.17241536       53       0.51503900       0.15271400      -0.10289600 
I      10.67001861       4.72773536      17.46985204       53      -0.06889300       0.26540600       0.15600300 
I      10.61119723       5.66563445      25.13746008       53      -0.09013000       0.06410400       0.78369100 
I      10.64492410      20.80227964      -0.12001045       53       0.79648500       0.32318300       0.41123200 
I      11.08202946      20.77789493       8.53875124       53       0.16250600       0.34416800      -0.55386400 
I      10.64153955      20.28177877      15.75120963       53       0.53835700       0.53892500       0.51532600 
I       9.80649089      19.38268985      23.69103216       53       0.37827800       0.28062700       0.48133300 
I       6.99998343      13.09178801       0.25799739       53      -0.26999500       0.38274200      -0.03105800 
I       6.62934982      12.70853936       8.58277830       53       0.35876100       0.73646900       0.05687700 
I       6.01389913      13.63702750      16.23747321       53      -0.63587800      -0.42959400       0.83098800 
I       6.21300635      12.29629722      24.30553179       53      -0.34424800       0.45914000       0.10086700 
I       7.09617343      28.87248659       0.41773518       53      -0.48403700      -0.12363300      -0.43716600 
I       6.97401462      28.65971655       8.17515191       53       0.33742400       0.34059900       0.11244300 
I       6.27423530      28.76153218      16.80634772       53      -0.11983200      -0.50641500      -0.35202200 
I       6.36994378      27.90444258      24.54760336       53       0.11511700      -0.12463000       0.48807500 
I      14.80408303      14.54635780       0.85737771       53       0.10737300      -0.55580300      -0.39240400 
I      15.09034615      12.92490629       8.36423409       53       0.48646800       0.31813000      -0.06781800 
I      15.28752333      12.40287813      16.09542182       53      -0.82073900      -0.21626800       0.36062000 
I      14.09752963      12.80514009      24.53836588       53       0.78590300       0.13904900       0.05780100 
I      15.80336160      28.61490392       0.16663848       53       0.05509900       0.31497300      -0.06558500 
I      15.66899647      27.27412778       8.58037472       53      -0.23631200       0.33020600       0.25669100 
I      15.34340479      28.60290397      16.51386082       53      -0.35437100      -0.28724900      -0.30293000 
I      15.28067747      27.90682024      23.69993866       53       0.08139000      -0.11741900       0.40906300 
I       7.13239360       1.54034693       5.76222820       53      -0.12582500      -0.00194700       0.00682700 
I       6.88968201       0.39422078      14.18708511       53      -0.11788700       0.36318300       0.26428900 
I       6.21504406       0.73071081      22.53523088       53       0.42799400       0.25175400       0.07958000 
I       6.28691913      -0.22791727      30.28293959       53       0.03047800      -0.04665000       0.01293100 
I       6.18641645      15.66107892       5.02887156       53      -0.50864600       0.31169500       0.22987800 
I       6.83203500      15.40329487      12.94495239       53      -0.12181700       0.12804600      -0.46985800 
I       5.38316562      15.02738256      20.47997082       53       0.65928300      -0.09805600       0.24387500 
I       5.47483358      14.22533999      28.92687864       53      -0.36422000       0.24827300       0.42708000 
I      15.25899741       0.88778383       6.34575746       53       0.30000300      -0.12454200      -0.12912100 
I      14.86943524       0.81822859      14.36214259       53       0.32321900      -0.08795700       0.01786300 
I      15.09625889       0.81890151      21.86075642       53      -0.29033400       0.10790700      -0.09735400 
I      15.13707885      -0.20912130      30.19859103       53      -0.56026900       0.69893000       0.22886900 
I      15.23241249      16.41888507       4.81181276       53      -0.32690600       0.09725300      -0.05197100 
I      15.36477082      15.74684211      12.52107817       53       0.20599600      -0.30423900      -0.07611200 
I      14.67294693      15.56639328      20.59469260       53       0.19034200      -0.30419600       0.24369400 
I      13.84039457      14.85658193      28.47494107       53       0.50344200      -0.20175500       0.44815800 
I       1.55649507       8.20784796       6.07257894       53       0.22797100      -0.05977200      -0.33010000 
I       1.72075489       7.74220271      13.46380834       53       0.18246400       0.04466500       0.17904300 
I       1.51725224       8.12833646      21.75691505       53       0.26904500      -0.28449400      -0.10196800 
I       1.49620423       7.27779963      29.78447169       53      -0.46062900       0.52659200      -0.45578300 
I       2.30525416      22.98459240       4.91652245       53      -0.04819200       0.12268200       0.03569600 
I       2.78299705      22.64417150      13.44839493       53      -0.53443600       0.55639000      -0.20231700 
I       2.29283750      22.93884964      21.22410818       53      -1.21425400       0.40893000      -0.19328000 
I       1.16715722      22.22289327      29.87132950       53       0.34009800      -0.31045200       0.14487900 
I      10.58680654       8.90828226       4.83675076       53      -0.71413800       0.21558000      -0.44763500 
I      10.17047404       7.67468518      13.73892687       53       0.54419700      -0.07047600      -0.17372900 
I      10.05334370       8.03890859      21.70157592       53       0.55121500      -0.08200700      -0.02923200 
I      10.06011878       6.84842340      29.44916699       53      -0.09297200       0.29200600      -0.04680100 
I      11.28760272      23.59564667       4.40486228       53      -0.54449300       0.05037800      -0.47295500 
I      11.22008719      23.05720919      12.45472006       53      -0.32338900       0.37941000      -0.43816700 
I      10.41391936      23.20154253      19.93954846       53      -0.91962100       0.33714800       0.53610100 
I       9.50083266      21.54543503      28.14460604       53      -0.42632200       0.34163900       0.09404500 
I       6.50397295       6.68330323       1.32359519       53       0.52392500      -0.26904900      -0.11941100 
I       6.72602732       5.92879390       9.43686218       53      -0.87200700      -0.09688200       0.23148200 
I       6.45535506       5.96680254      18.04606689       53       0.28671600      -0.17880400       0.09776700 
I       5.69985678       4.66776154      25.46472858       53      -0.06932400      -0.06736900      -0.00546600 
I       6.98637844      21.58531888       0.98305965       53       0.77976900      -0.48800100       0.03230600 
I       6.87596536      20.28604958       8.92532763       53      -0.62707400       0.78378700      -0.14168000 
I       6.12078011      19.46342557      17.58261188       53      -0.41305600       0.22760500       0.04068800 
I       5.60816689      20.20485628      25.69042072       53       0.05667200      -0.32074400      -0.38546800 
I      15.56412528       6.59374875       1.47215249       53       0.05529100      -0.36254700      -0.32328700 
I      15.25840923       6.49345741       9.75713230       53      -0.57450400      -0.28190200       0.01761900 
I      14.80279800       5.43853864      17.70122863       53       0.12361400      -0.05229600      -0.05345400 
I      14.80691628       4.65247873      25.65522938       53      -0.50107900       0.79750900      -0.38259800 
I      15.21851441      21.04474100      -0.41199390       53      -0.04971900      -0.12545600       0.21273700 
I      15.49216347      21.02343279       8.21043298       53       0.30974900      -0.28150600      -0.30096700 
I      15.04478383      21.01157740      16.67626038       53       0.72836700      -0.64733200       0.45931000 
I      14.26746094      19.39712328      24.44545874       53      -0.33819100       0.36577400      -0.09888500 
I       1.56033322      13.47395701       0.99126830       53       0.20990700      -0.10734700      -0.58551000 
I       2.11308750      12.89035597       8.67156815       53       0.30938700      -0.15463500      -0.40665900 
I       1.48763070      12.69161162      17.36741533       53       1.33951600      -0.22775300       0.15991800 
I       1.29251216      12.58526299      25.38406066       53       0.37190000      -0.48161500      -0.08645000 
I       2.42114732      28.59289587       0.96089309       53       0.61562800      -0.33588500       0.04670000 
I       2.25195373      27.83881920       9.33744614       53       0.05754900       0.15383900       0.03871100 
I       2.23427233      27.36161166      17.15739680       53       0.00285100       0.29795500      -0.38377600 
I       2.07892000      28.01317884      24.32815394       53       0.71160700      -0.52634800       0.80831400 
I      10.59531727      14.04443457       1.37427471       53       0.81668000       0.07217400      -0.85874400 
I      11.21539966      13.70816884       8.54262030       53      -0.26062000       0.27316400      -0.19188700 
I      10.59766601      12.65552405      17.36818496       53      -0.04706900       0.13967900      -0.07589000 
I      10.32119367      13.08062349      24.62983944       53      -0.44887300       0.01750300       0.18082900 
I      11.18646700      28.33165350       0.05216394       53       0.59301400      -0.39395400       0.08284400 
I      11.40840274      28.62408158       8.29184461       53       0.65318700      -0.52017500      -0.48897400 
I      10.88063231      27.38076950      17.44541649       53      -0.13866300       0.24229300      -0.27131300 
I      11.18065095      27.16625884      25.04545217       53      -0.31262700       0.39181700       0.07603800 
I       3.92703665       4.31477744       5.42110747       53      -0.06279100       0.10786200      -0.11636400 
I       3.67946207       3.84979215      13.19645484       53       0.32877400       0.32981600       0.03721600 
I       2.89776868       4.18299633      21.47942883       53       0.08342200      -0.53382900      -0.63854900 