320
Lattice="17.1918505788 0.00534827849226 0.36604795253 -0.0135288416819 28.8957252872 -0.152910884561 0.732957821658 -0.190626902444 30.7148595125" Properties=species:S:1:pos:R:3:Z:I:1:forces:R:3 energy=-101587.185491 stress="-1436.168445 187.714135 879.125126 187.714135 265.180356 118.086264 879.125126 118.086264 223.571523" pbc="T T T"
Cs       5.39836234       2.17436426       2.51018111       55      -0.53331500      -0.25802500       0.06243000 
Cs       4.02878643       1.91725034      10.95614581       55       0.75712000       0.14185200      -0.64191100 
Cs       4.77578431       2.28581906      18.17004278       55       0.19185400       0.09422500      -0.23764800 
Cs       4.36086321       2.14431663      24.74597336       55       0.23439300       0.27404900       0.02060300 
Cs       4.08349997      17.26646752       1.60040999       55       0.11050100      -0.19739700       0.23966200 
Cs       4.29352764      17.42994692       9.52618700       55       0.02320300      -0.09711500      -0.12163200 
Cs       4.17811204      16.99704596      16.44911545       55       0.04207000      -0.08946700       0.26268200 
Cs       5.44445482      16.85127026      25.70623063       55      -0.14144700       0.16329800       0.05112300 
Cs      12.86684196       2.84220343       1.46172359       55      -0.10055400      -0.17546200       0.42659100 
Cs      12.81537158       2.10955425      10.50019767       55      -0.12003900      -0.08480300      -0.13491500 
Cs      13.55970441       2.31930385      17.15611257       55      -0.25484100       0.22979200       0.07991000 
Cs      14.40342138       2.53226128      25.90219912       55      -0.62101800      -0.10461800      -0.10189500 
Cs      13.36693896      16.32922973       2.49430159       55       0.14605000       0.20185200      -0.10569000 
Cs      12.76540718      16.73239934       9.09976762       55       0.04227400       0.09425500       0.07309500 
Cs      13.53406478      16.75313312      16.68651518       55      -0.13878900      -0.05519300       0.00712000 
Cs      13.19322837      16.64602039      25.27485857       55      -0.03976600       0.03601400      -0.04270500 
Cs       1.05908050       9.23383674       2.99207467       55      -0.27620000       0.10442800      -0.13313300 
Cs       0.02783455      10.08498320       9.47817672       55       0.38732700      -0.00183500      -0.13226500 
Cs       0.60698135       9.42405848      17.35108441       55       0.11652800      -0.19506600      -0.34792200 
Cs      -0.55637099       9.74555720      24.99854550       55       0.10603600      -0.06893800      -0.03245800 
Cs      -1.10048689      24.00992429       1.84383549       55       1.10800800       0.07823000       0.09553100 
Cs       0.44236293      24.39979822       9.54831972       55      -0.25023700      -0.35371900       0.05994800 
Cs       0.45854250      23.66113665      17.28970200       55      -0.04010600      -0.17676100      -0.01302600 
Cs       1.08368143      23.95979362      24.92466147       55      -0.15696700       0.04883100       0.03746400 
Cs       8.27893348       9.27761388       2.54166783       55      -0.02602300       0.08809600       0.05423600 
Cs       8.49038494       9.32705942       9.65232305       55       0.01722600       0.18316100      -0.17672000 
Cs       9.27734251       9.51371979      17.94545044       55      -0.20385400       0.01535600       0.02116700 
Cs       8.31867147       9.88221398      25.38617290       55       0.13323700      -0.18663900      -0.20908600 
Cs       9.49950008      23.96192739       2.48774739       55      -0.38853900      -0.06782400      -0.00331200 
Cs       9.16123794      23.61639439       9.65687057       55      -0.06100500       0.48980800      -0.02408900 
Cs       9.02336569      24.25791834      16.41782558       55       0.36208800      -0.25091000       0.23208900 
Cs       8.72125532      24.25569570      24.87574532       55       0.33560600      -0.08836000       0.02490800 
Cs      -0.56223718       5.23538175       5.71003884       55       0.63683500      -0.82504700       0.01845900 
Cs       0.46595097       4.84272714      14.53000463       55       0.13997000       0.28800200      -0.33359900 
Cs       0.76000882       4.37557026      21.31980232       55      -0.27942300       0.48778300      -0.00863900 
Cs       0.27092084       4.29916928      29.28811807       55       0.04933700       0.22237200      -0.02978900 
Cs       0.27573878      19.13261729       5.38276376       55      -0.01487000      -0.02573700      -0.05808900 
Cs      -0.06580475      19.04325317      12.95033798       55      -0.06142400       0.19965900      -0.04395800 
Cs       0.47080426      18.87369257      21.50999540       55       0.23335300       0.12720500      -0.33876500 
Cs       0.92896740      18.77039349      29.09477929       55      -0.01166900       0.02727000      -0.06669500 
Cs       8.36129047       4.24766833       6.45363015       55       0.56323500       0.36603200      -0.06262600 
Cs       9.06423028       5.00963318      13.66681523       55      -0.09117000       0.11702200       0.01226400 
Cs       9.25797518       4.90621943      20.95171903       55      -0.25033300      -0.05779000       0.30489600 
Cs       9.54919406       5.48005618      28.82523542       55       0.02038500      -0.05811200       0.09190400 
Cs       8.14376642      18.84350543       5.14840366       55       0.13781000       0.12040700       0.05385400 
Cs       9.18738593      18.98457021      13.25583294       55       0.03343700       0.16148400      -0.05646300 
Cs       9.17281648      19.14728134      20.61850322       55      -0.36051000      -0.00154600      -0.12607300 
Cs       9.71996248      18.89791702      29.70117201       55       0.01219600       0.18377200      -0.22203500 
Cs       4.31153998      12.48245582       6.44453798       55       0.10019600      -0.19986100      -0.63128700 
Cs       4.62418542      11.97202824      13.25022189       55      -0.03034900      -0.32875000       0.01815400 
Cs       4.11541287      12.26461070      20.45230047       55       0.00845100      -0.03995900      -0.03779400 
Cs       4.78915549      11.68088007      28.48066371       55       0.14758800       0.34014600       0.56211400 
Cs       4.95869601      25.90021060       6.03667179       55      -0.03509500       0.15296600       0.03081900 
Cs       5.12196423      25.89994208      14.24759030       55       0.33460800       0.53408600      -0.06967400 
Cs       4.67659702      26.66025668      21.34613474       55      -0.01933900      -0.01189200      -0.06755000 
Cs       5.15724452      26.15253907      28.48823272       55      -0.16892500       0.15816100       0.12602900 
Cs      13.01137925      12.37282806       6.83297379       55       0.25887800      -0.33465200      -0.41121500 
Cs      13.28656572      11.17146730      14.08044537       55       0.01716700       0.11718600       0.04393300 
Cs      13.17605119      12.06693844      20.39534708       55      -0.02168900       0.02881000       0.01001700 
Cs      14.07649508      11.49800946      29.34790279       55       0.09543800      -0.00465000      -0.02267800 
Cs      12.57233499      27.25401497       4.97069882       55       0.40890700      -0.12912400       0.91026600 
Cs      13.23948137      25.79287809      13.47379178       55      -0.00077000       0.01894700      -0.07773400 
Cs      13.04736379      26.41826069      21.49809293       55       0.28217800       0.09860100       0.06214500 
Cs      14.10296414      26.58868033      29.84734810       55      -0.23392800      -0.26426100      -0.29417400 
Pb       0.13409492      -0.17323090       3.16633376       82       0.26103500      -1.57753800       1.59731800 
Pb      -0.04441355      -0.02129182      10.72080436       82       0.52478100       0.16114900       0.15792000 
Pb       0.34664527      -0.13389139      18.75782404       82       0.19988200       0.69469700       1.69424500 
Pb       0.33139547      -0.02665253      26.65663701       82       0.39955800      -0.53609700      -0.08786300 
Pb       0.33836342      14.32173711       3.42593214       82       0.20654500      -1.10024000       0.32731400 
Pb       0.52153599      14.81368508      11.12850047       82      -0.40470200       0.83831500      -0.60122900 
Pb       0.24909199      14.41988762      18.65809685       82       0.45938400      -0.37022300      -0.00693300 
Pb       0.36211199      14.01811600      26.23333372       82      -0.22566600      -0.18229600       0.53637500 
Pb       8.49001418      -0.41906347       4.09028924       82       0.12283800      -0.34808800       0.60361000 
Pb       8.26759765       0.06585922      11.81328078       82       0.36406800       0.00557100      -0.17303400 
Pb       9.55220790       0.03431517      19.45220010       82      -0.67974100      -0.23561300      -1.07714500 
Pb       9.15038945       0.51133059      26.83233231       82       0.17349000      -0.99980700       0.03355200 
Pb       8.84889829      14.33310829       3.24792534       82      -0.31916500      -0.16047000       0.40938200 
Pb       8.22336471      14.40130195      11.11664099       82       0.16132100      -0.40589600      -0.29690500 
Pb       8.51786594      14.35216123      18.39472017       82      -0.03110600      -0.31097500       0.08449200 
Pb       8.76187242      14.35191852      26.37629243       82       0.91933600       0.62550500       0.53208900 
Pb       4.59415594       6.79530937       4.18885924       82       0.70404200       0.54116900       0.94596300 
Pb       4.65800465       7.21684488      12.06623802       82      -0.69103600       0.36691100       0.76512600 
Pb       4.76328079       7.41914396      19.83187436       82       0.47187400       0.22071100       0.12487500 
Pb       4.87510444       7.11653384      27.54836331       82       0.42017300       0.32830900       0.02525600 
Pb       4.09912627      21.78652347       4.27436481       82       0.43241600      -0.46133900      -0.37125400 
Pb       4.46303568      21.35589580      11.87277883       82       0.01355100       1.25455300       0.26614400 
Pb       4.75347768      21.93671101      19.91993128       82      -0.57762700      -0.18815400      -0.07885000 
Pb       5.15466642      21.79627020      27.57842432       82       0.16049700      -0.74259500       0.02034800 
Pb      12.99306018       7.21275603       4.55504384       82      -0.48090100       0.55180500      -0.62895100 
Pb      13.46529206       6.92675165      12.01809586       82       0.03468200       0.17000700       0.02760400 
Pb      13.22537442       6.77270747      19.91731113       82      -0.19888900       0.26920500      -0.31975200 
Pb      13.32324686       7.22996856      27.45441727       82       0.03849200       0.33049500       0.46875700 
Pb      13.09411465      21.54472338       4.02678452       82      -0.54147300      -0.07570900      -1.52771800 
Pb      13.35519989      21.77143707      11.39648964       82      -0.33566500       0.29972400      -0.13535400 
Pb      13.25797340      21.94825897      19.26614652       82       0.05192700      -0.62682700      -0.81099800 
Pb      13.66646645      21.79690565      26.54514877       82       0.50248500       0.14837600       0.77111000 
Pb       4.68399784       6.85228378       8.50305282       82      -0.25918300       0.06347400      -1.03295300 
Pb       4.88189943       6.83070433      16.02908304       82      -0.16799500       0.48686900      -0.22377600 
Pb       4.58978615       7.59043794      23.76538938       82       0.72235800      -0.51636900      -0.10510600 
Pb       5.45550111       6.58767156      31.13549966       82      -0.15166700       0.47959800       0.10208100 
Pb       4.56093106      21.79592620       8.20724247       82       0.82382500      -0.31197700       0.25739500 
Pb       4.66335198      21.73219406      15.55485978       82      -0.01194000       0.26600300       0.37934900 
Pb       5.15695881      20.83525135      23.99751250       82      -0.34262700       0.09943500      -0.81824400 
Pb       4.77238251      22.00580098      31.03781164       82      -0.05532800      -0.41553400       0.55919000 
Pb      13.30298800       7.27708539       8.23293466       82      -0.83194700       0.03031200       0.64715700 
Pb      13.72300798       6.68554592      16.13634006       82      -0.19149100       0.45792200      -0.45749200 
Pb      13.74815454       6.41269294      23.65453659       82      -0.49206000       0.53161200       0.04566500 
Pb      13.90220159       7.21060410      31.79985293       82      -0.10494200       0.49080200      -0.39776700 
Pb      12.75882431      21.34264407       7.42541245       82       0.19991700       0.43714700       1.71988300 
Pb      13.28925753      21.72626862      15.49920787       82      -0.03697300       0.21197300      -0.43535800 
Pb      13.11013751      21.82704598      22.97001810       82       0.22413400       0.02053000       0.00359800 
Pb      13.72401706      21.43105168      30.42610025       82       0.36010200      -0.05324100       0.18741600 
Pb       8.96451265      14.04391807       7.37741268       82      -0.40267800      -0.15136600      -0.60232000 
Pb       9.30447090      14.16397101      14.69005070       82      -0.15931200      -0.39732800       0.04301000 
Pb       8.78843417      14.81453840      22.45517200       82       0.69600100      -0.20369300      -0.15443900 
Pb      10.06058102      14.00660243      30.28597956       82      -0.96001300      -0.07307100       0.93988200 
Pb       8.51342735      28.68065416       7.74982467       82       0.37421400       0.34275400       0.27686800 
Pb       8.91419755      28.76809856      15.41854031       82      -0.13769000      -0.23012300       0.18991500 
Pb       9.16078119      28.72083840      23.07600708       82      -0.19617800       0.15500800       0.16733000 
Pb       9.09466110      28.74415410      30.66157548       82       0.40353000       0.76018600       0.39337000 
Pb      17.47168012      14.71689529       7.83752516       82       0.20119700       0.23002600      -0.77642600 
Pb      17.90267759      14.65473409      15.17869243       82      -0.25545400      -0.63139100      -0.11250700 
Pb      16.91323938      14.15914352      22.91044170       82       0.39252700      -0.14898400      -0.42202800 
Pb      18.38993949      13.99020977      30.60396563       82      -0.70536800      -0.47470900       0.39273900 
Pb      17.79465899      28.54329313       7.13756671       82      -0.27753700       0.04569600      -0.31738000 
Pb      16.82646292      28.38346303      15.67501783       82      -0.09300300       0.20623200      -1.22978000 
Pb      17.95305480      29.22657704      22.94696899       82      -0.92747800      -0.17291900       0.17358400 
Pb      17.57694956      28.83504330      30.67239435       82       0.33570600      -0.24878900      -0.55008900 
I       2.58032985       0.65756688       4.46972365       53       0.47196700       0.01759900       0.63730900 
I       1.59748597       1.32746241      12.90019201       53      -0.63778500       0.02543100       0.85650700 
I       2.65977238       1.63463438      20.87983499       53       0.26655000      -0.38867200      -0.11659100 
I       2.64886751       1.14491573      28.62066400       53      -0.28243200       0.01667200      -0.01264200 
I       2.21206213      15.92343997       5.46887228       53       0.32514700      -0.08342600      -0.35280600 
I       2.83660097      15.99818209      12.62423632       53      -0.35241400       0.05513900       0.18819100 
I       2.19796568      15.50144102      20.85845048       53      -0.37028000      -0.23194500      -0.02283200 
I       3.19358542      15.06751379      28.52519002       53       0.33361100       0.56502100      -0.89535200 
I      11.14245549       1.34057940       6.87896306       53      -0.46629900      -0.24238000      -0.06907700 
I      10.49772181       1.72253650      13.47633644       53      -0.11547700      -0.13924600       0.14496600 
I      11.06042435       1.37529496      21.39836860       53       0.43966700       0.22451900       0.55055500 
I      11.21739541       1.14031661      28.86689504       53       0.24896700       0.28518900       0.29999300 
I      11.36849742      15.31920204       5.24989769       53      -0.47499800      -0.13481000       0.33072700 
I      10.81245610      15.59862068      12.33378954       53      -0.06554000       0.04017300       0.35719900 
I      10.79413129      15.31319537      20.20842872       53       0.03293400       0.32919700       0.12837000 
I      11.43421235      15.26814447      28.32135056       53       0.74000400       0.78281000      -0.92749600 
I       6.84767224       7.82109046       6.29781149       53       0.05908000       0.19486100       0.20103100 
I       6.93977787       8.46002006      13.45507901       53       0.16340900      -0.02812900       0.68377000 
I       6.94415243       9.09532521      21.17132811       53      -0.30334300      -0.44085600       0.23406900 
I       7.28911783       8.43644540      29.34379674       53      -0.10171400      -0.04482800       0.08124500 
I       6.70792326      22.52344879       6.08481776       53      -0.38162700      -0.02354900      -0.04859900 
I       7.03901486      22.77927748      13.92826645       53      -0.52795800      -0.32547300       0.06958600 
I       7.06311125      22.11786447      22.10396487       53       0.39340200       0.18238600      -0.27869900 
I       7.61680762      22.21331552      29.74925683       53      -0.34321500       0.28094300      -0.25281900 
I      15.14839730       8.14910610       6.30431887       53       0.69149900       1.26613700      -0.35853300 
I      15.79931347       8.48140935      14.26916688       53      -0.40298600      -0.39075600       0.11599900 
I      15.83208541       7.75317869      22.12581283       53       0.01556400      -0.00444600      -0.32693800 
I      15.69869187       8.18843128      28.98208417       53       0.25538900       0.05846200       0.40021300 
I      15.19781704      22.13824182       5.73263118       53       1.16573200       0.86415400       0.51600600 
I      15.71973238      22.66263112      13.23852963       53      -0.18450000      -0.04160700       0.06000100 
I      15.10752793      23.22641631      20.97845277       53       0.50647700       0.20678600       0.19911400 
I      15.75793956      23.36357858      28.65784682       53      -0.34084600      -0.48988400       0.20800700 
I       2.57740870       5.73240758       2.54801658       53      -0.60279000      -0.46136300      -0.55773600 
I       2.92140324       5.35112798      10.49297744       53      -0.40856500      -0.08845900      -0.31533100 
I       2.76414646       5.85456085      17.97940824       53      -0.10579100      -0.08972000      -0.11112300 
I       2.89348555       6.10235805      25.70407870       53      -0.56380700      -0.32246600      -0.27820000 
I       1.84139308      20.41989451       1.92415045       53       0.36821400       0.42644200       0.51774100 
I       2.27344741      20.72661833      10.02092331       53      -0.24498100      -0.31711400       0.01661200 
I       2.43814897      20.67396210      18.09787017       53       0.05945100      -0.01753000       0.00331200 
I       2.79497862      20.67100751      25.79297365       53      -0.16501300      -0.35369800       0.27787900 
I      10.59703906       6.22323086       2.50274015       53       0.46352800       0.00735100       0.11728400 
I      11.09654649       5.75032054      10.32627207       53       0.39549000       0.14321200       0.24110000 
I      11.04026104       5.35568505      17.97624246       53       0.76285400       0.22434100      -0.11861400 
I      11.68241184       5.38224393      25.83582963       53      -0.38146800      -0.47436200      -0.36780400 
I      11.11755164      20.08624487       2.16257932       53      -0.08751900       0.02886300      -0.49821900 
I      10.80452876      20.61947502       9.94606174       53       0.16819700      -0.30579400      -0.16129000 
I      11.34481764      20.22651750      17.25003950       53      -0.23121800       0.06498100      -0.17041700 
I      11.32897157      20.73660299      25.19361576       53      -0.31453200      -0.06142600      -0.26499600 
I       6.76380833      13.03475038       1.50145107       53       0.41706200       0.09993400       0.16869900 
I       6.32334123      12.69915331       9.23589980       53       0.59352400       0.40554500       0.05533000 
I       7.02842341      12.63659078      16.23956078       53       0.32493400       0.03143900       0.13794200 
I       6.75061680      13.67939042      24.45720741       53      -0.63136800      -0.42824700       0.06383800 
I       6.42696138      27.60508832       2.03592441       53      -0.08462800      -0.18545900      -0.00851300 
I       6.18504375      27.80490008       9.79386466       53       0.12436800      -0.18163900      -0.09190800 
I       7.08338349      26.81687323      17.43303720       53       0.21310400       0.83410900      -0.00678100 
I       6.87860759      27.26643631      25.53741442       53       0.31903000       0.45108000      -0.40147200 
I      15.60540326      12.76051566       1.81364548       53       0.61734400       0.78990700       0.06560200 
I      15.37557062      13.76158974       9.49203045       53      -0.68472900      -0.41660100       0.63457000 
I      15.68994371      13.24882008      16.70504448       53      -0.00633700      -0.10489100      -0.19801900 
I      14.86303506      13.06500920      25.37960915       53       0.57028600       0.15865400      -0.01736900 
I      14.78240477      27.97193130       2.17017222       53      -0.69265500      -0.15508500      -0.65572400 
I      15.33151349      27.62727263       9.06541900       53      -0.28445900      -0.18645400      -0.37961800 
I      14.97139862      28.15857542      17.99235323       53      -0.48242600      -0.60870700       0.08228700 
I      15.60895508      27.67707746      24.88000234       53       0.31050500       0.33509600       0.16928300 
I       6.50780954       1.41358718       6.11364896       53       0.19724400      -1.12622100      -0.29310800 
I       6.29168634       0.73149581      14.47618454       53      -0.09694000       0.06581000      -0.33721700 
I       6.87161097       1.32567933      21.52042727       53       0.24580700      -0.45031200      -0.11415700 
I       7.19330939       1.09808461      28.90257380       53      -0.56857400       0.25659300       0.38347800 
I       6.78249051      15.53818714       5.39606231       53       0.18120000      -0.29783400      -0.30182100 
I       6.27180206      15.06353196      13.24044362       53       0.52796300       0.36324700       0.12152000 
I       6.24000479      15.79943196      19.31007464       53      -0.05998100       0.24541800       0.16300400 
I       7.37306869      15.72537975      28.77577650       53       0.10478400      -0.18188200      -0.36555100 
I      15.43200418       1.03731089       5.63681606       53       0.19007000       0.01626200       0.13425000 
I      14.24985785       0.20983465      14.37535080       53       0.43812000       0.18527600      -0.02244800 
I      15.41564400       1.42520967      21.69396300       53       0.42673000      -0.18888100      -0.07444800 
I      15.16292948       1.19731969      29.19146301       53       0.26376300      -0.05477200      -0.24672400 
I      15.41992683      15.12269078       5.58594101       53      -0.48755600       0.35127500      -0.12249400 
I      15.37468863      15.93382979      13.29774388       53       0.35276900      -0.24939500       0.12540400 
I      15.40605303      15.71964638      20.66220583       53      -0.63005200       0.19495200       0.18434900 
I      15.90949546      15.33737682      28.84708529       53       0.22729100      -0.08055300      -0.28786500 
I       2.58271780       7.85899185       6.36980446       53      -0.18439400       0.07397400      -0.11100900 
I       2.64296023       8.54741381      13.99721309       53       0.09940500      -0.14454200       0.39396500 
I       2.74040076       8.66381842      21.85492544       53      -0.54940600       0.25948000      -0.49389000 
I       2.91656046       7.98338209      29.82841365       53       0.34395500      -0.31212300      -0.09994400 
I       2.63465066      22.97813655       6.63808030       53      -0.96811000       0.70795600      -0.32943500 
I       2.72512419      23.62767479      14.09396561       53      -0.35669200      -0.64799100      -0.05720400 
I       2.84473758      22.87615041      22.01651665       53      -0.05244900       0.12848200       0.19305500 
I       2.71230056      22.89215225      28.86471062       53       0.13266200       0.26077500       0.46593300 
I      11.08260484       8.57908590       6.42064225       53       0.19974200      -0.05456400      -0.13207700 
I      11.64787020       7.77061674      14.44114982       53      -0.77389300       0.28156400      -0.78601400 
I      11.65065184       8.58018002      21.54171336       53      -0.25360700      -0.02896000       0.25932000 
I      11.79672472       8.53601587      30.04089520       53      -0.18836100       0.11248900      -0.18228900 
I      10.69498317      22.19171505       5.63643288       53      -0.63890200       0.31506100      -0.40637900 
I      10.93979520      23.03205985      13.56065997       53       0.31071400      -0.24356000      -0.04659300 
I      11.05552231      23.45107745      20.00620703       53      -0.37825200       0.10042700       0.35211100 
I      11.74237333      22.85743478      28.69031585       53      -0.35127200       0.18141400      -0.18437000 
I       6.73823176       5.18577950       2.51241999       53       0.06706200       0.81617000      -0.31442400 
I       6.78188182       6.25805917      10.44574403       53       1.05894100      -0.70949900      -0.43137900 
I       7.34383520       6.31882429      18.10788541       53      -0.59406500      -0.00147000      -0.25527100 
I       6.95512228       6.12825377      25.11758650       53       0.05577400       0.29265000       0.27597000 
I       6.34983418      20.58133760       2.48493804       53      -0.34827300       0.06670000      -0.06710900 
I       6.83505405      20.82544920      10.39742892       53       0.21711000      -0.58081100      -0.25723800 
I       6.29298973      20.61513295      17.90183192       53       0.92945600      -0.72668700      -0.45917700 
I       7.33298766      20.09153486      25.87698376       53      -0.11399900       0.00613900       0.15961400 
I      15.56096200       5.78583972       2.43137021       53      -0.23937400       0.01650700       0.07971300 
I      15.61920157       6.35280980       9.83475696       53       0.30872000      -0.52840600       0.27499300 
I      15.49182138       5.76259951      18.16932325       53       1.05359300      -0.48868400       0.38318800 
I      15.69637368       6.11706605      25.84542920       53       0.10516500      -0.18849900      -0.08211900 
I      15.35999018      20.51466138       1.24853970       53      -0.22645700      -0.00277300       0.24010000 
I      14.92725550      20.33817201       9.43822468       53       0.22074600      -0.02287600      -0.00771700 
I      15.19613907      20.09702552      16.95568543       53       0.44263600       0.00924300       0.07817100 
I      15.54910443      20.61041630      24.18906535       53      -0.18577900      -0.34249400       0.04921900 
I       2.72801286      12.84152626       0.75286217       53      -0.25741400       0.10650500       0.62729300 
I       2.47665906      13.56031310       9.08926122       53       0.12123000       0.02571700       0.50527700 
I       2.62093262      13.24611870      16.92991202       53      -0.00164600       0.21608000      -0.35845900 
I       2.06181248      12.60249730      23.64757914       53      -0.27919900       0.04126800       0.43053500 
I       1.34267686      26.97007652       0.71090919       53       0.31837900      -0.14555000       0.16975200 
I       2.20610611      27.26908513       9.11566052       53       0.09180000       0.48902000       0.09970000 
I       1.99560544      26.93232132      17.31316486       53       0.35829000      -0.18896900      -0.61297400 
I       2.77449042      27.87581899      24.43270108       53      -0.07685900      -0.10102600       0.23915000 
I      11.66107319      13.44372790       1.23698027       53      -0.42489700       0.00190000       0.13984200 
I      10.77569182      12.98934878       9.35158869       53       0.07867200      -0.09791600       0.30780800 
I      11.71815653      13.35100784      16.92524506       53      -0.43607400      -0.08942200      -0.38502100 
I      11.22162568      13.36964702      23.83518647       53      -0.65137800       0.19459600      -0.00937800 
I      10.90657223      27.61752399       2.20660778       53      -0.64579200      -0.06426600      -0.65063700 
I      10.78940509      27.78709032      10.17281938       53      -0.51438200       0.22084000      -0.15164500 
I      11.43323385      27.61098413      16.96939678       53      -0.33319300       0.26147400       0.28437600 
I      11.44122330      27.60355082      24.99559473       53      -0.42488200       0.18577200      -0.25456400 
I       4.94285280       4.55872180       6.17318045       53      -0.63799400       0.07425200       0.15807000 
I       4.08599208       4.43466696      14.40958571       53       0.35205200       0.13864400       0.01424400 
I       4.93270474       4.94628804      21.72284676       53      -0.10997800       0.25789500       0.06615200 