320
Lattice="17.4753334524 -0.113714582979 -0.596881321611 -0.137308042867 30.0062852848 -1.60854491267 -0.973903608239 -1.70337309806 32.0692410825" Properties=species:S:1:pos:R:3:Z:I:1:forces:R:3 energy=-101587.62832 stress="-1204.294896 714.296975 1385.827819 714.296975 -2290.39565 442.157784 1385.827819 442.157784 -2919.803739" pbc="T T T"
Cs       4.42437147       2.34951596       1.89445755       55      -0.03492100       0.04014900      -0.04010900 
Cs       4.63677273       2.46799772       8.86351757       55      -0.11114900      -0.16559800       0.04778900 
Cs       5.31670473       2.10308212      18.54206849       55      -0.23679700       0.11586900      -0.04790100 
Cs       4.06792485       1.07589686      26.73308523       55      -0.09781500       0.12202300      -0.18072900 
Cs       4.13113707      18.20740582      -0.47994000       55       0.03426900      -0.58732600       0.41111400 
Cs       3.86505007      16.63393128       8.99752101       55      -0.01721500       0.00283900       0.02638800 
Cs       2.49147685      16.81493439      16.95494288       55       0.20171400      -0.20916400      -0.06332600 
Cs       2.44590035      16.13631615      24.63620231       55       0.16646000       0.02138100       0.24059800 
Cs      13.41561936       2.84931609       1.21617638       55       0.08686400      -0.13315800       0.06054800 
Cs      13.37861924       2.19137404       9.02976971       55      -0.26535600      -0.00909400       0.02160500 
Cs      12.56405206       0.91136256      17.37527487       55      -0.05129700       0.45408000       0.07186700 
Cs      12.86030230       1.06282727      25.67595650       55      -0.13196200       0.10565500      -0.02048800 
Cs      13.27029373      17.39323483       0.25337517       55      -0.13305100      -0.37071200       0.01905500 
Cs      12.79112347      17.84320673       7.42029442       55       0.23251700      -0.75492100       0.10755800 
Cs      12.53824502      16.50071432      16.20343121       55      -0.10031500      -0.07590800       0.01274300 
Cs      12.19548494      15.97275066      23.36886620       55      -0.14830200       0.48417700       0.29089900 
Cs      -0.47516789       9.88535811       2.04042478       55      -0.12607100      -0.12572600      -0.24067400 
Cs       0.19310684       9.04946230       9.51335334       55      -0.18835600       0.17147800      -0.08066800 
Cs      -0.79402602       8.51142714      16.83339403       55       0.44729900       0.50769700      -0.14455000 
Cs      -0.53172557       8.53544932      25.55601905       55       0.58391600       0.09180600      -0.10878800 
Cs      -0.21553634      24.35994920       1.56595664       55       0.09274300       0.05186000      -0.11690800 
Cs       0.00847784      24.10446590       8.51676595       55      -0.00682200       0.10223200       0.07321100 
Cs      -0.12244078      24.03730157      16.71641920       55       0.00005100       0.14654600      -0.02316800 
Cs      -1.28710262      24.32608812      24.09379518       55       0.24145300      -0.02625900       0.19947000 
Cs       9.11848837      10.14703175       1.09750834       55       0.08280700       0.00488000       0.00234900 
Cs       8.04175871       8.95041392       8.78671439       55       0.25034900       0.28133700       0.02714700 
Cs       7.54850175       9.90836713      17.67903512       55      -0.07456000      -0.26434800      -0.15778200 
Cs       8.32356548       9.50396287      24.43759306       55      -0.48216200      -0.52623700       0.10341800 
Cs       9.56372068      24.62178348       1.12905729       55      -0.51020700       0.21195900      -0.59664800 
Cs       9.41127237      24.85742636       8.50440400       55      -0.37600200      -0.07251800      -0.04915600 
Cs       7.55231589      24.75644331      16.28172554       55       0.03449900      -0.02464100       0.15616700 
Cs       6.47085157      23.17943848      24.61252114       55       0.16357900       0.03759700       0.13627200 
Cs      -0.46740064       4.48252183       7.19586433       55       0.26393600       0.09350400      -0.19112900 
Cs      -1.06422480       4.53962945      12.98560221       55       0.21210600       0.01554000       0.16434700 
Cs      -1.28655859       4.31725821      21.65818513       55       0.18678600      -0.22642900       0.06235300 
Cs      -0.84709283       3.86736319      29.36004880       55       0.02666500       0.04912000       0.00289100 
Cs      -0.38996671      19.45227399       4.84357499       55       0.18265600       0.19517400       0.02992300 
Cs      -0.62566280      19.23341334      12.93140200       55       0.27928300       0.03226000      -0.03043900 
Cs      -0.87332366      19.31041855      20.14968697       55       0.03003900       0.04116800      -0.00123100 
Cs      -1.88499514      18.68704719      28.87653711       55       0.10380800       0.00964300      -0.09864800 
Cs       7.73591990       4.99140789       4.82268100       55       0.20146300      -0.04737900       0.08305900 
Cs       8.55483244       4.53943431      14.12058374       55      -0.19217100      -0.20652300      -0.13161300 
Cs       8.25990976       4.13556127      21.96642675       55      -0.02874700      -0.00587800       0.13791700 
Cs       8.31294798       3.00217735      30.04671714       55      -0.04157200       0.14528800      -0.30082900 
Cs       8.31250546      20.01249424       5.26038161       55       0.04166800      -0.19171500       0.00792800 
Cs       8.64516842      18.13604297      12.92723306       55      -0.20371500       0.24388300      -0.29536600 
Cs       8.25582952      18.77339557      19.90012988       55       0.01519400       0.10496700       0.13537000 
Cs       7.47391216      18.17680203      28.95591163       55      -0.35117800       0.12768200      -0.19160000 
Cs       3.19650530      12.80824077       4.75441972       55       0.40734900      -0.12513100       0.08834300 
Cs       4.20519149      11.61014263      12.91755579       55       0.15335900      -0.04047600       0.14668600 
Cs       2.61908792      11.68258763      21.47203441       55       1.06824400      -0.12733000       0.14756000 
Cs       2.98643392      11.11843793      29.44817809       55       0.04819100      -0.07868300      -0.14066100 
Cs       4.31661759      26.98980837       4.23159973       55      -0.01037000       0.04299300       0.09295700 
Cs       3.63857887      27.38313684      12.26068111       55       0.09865200      -0.20121100       0.32753800 
Cs       3.23621473      26.14260910      21.08100329       55      -0.02981000       0.22693400      -0.04715300 
Cs       4.51476067      25.86696211      29.38246648       55      -0.62389000      -0.41015300      -0.64827900 
Cs      12.71086391      12.71210080       4.76579118       55      -0.12993000      -0.05430000      -0.07096900 
Cs      13.27173069      11.87745863      12.27925114       55      -0.34008900      -0.03004900      -0.29587300 
Cs      12.67083023      11.78301481      21.15523020       55      -0.28795200      -0.31588500      -0.30881400 
Cs      11.26493046      11.04108974      28.57180016       55       0.35887300      -0.12934000       0.17807400 
Cs      13.20220395      26.89150212       4.24324419       55      -0.00686600       0.04314500       0.12079700 
Cs      12.75203494      26.25842786      12.38398623       55       0.06949600       0.15912100       0.10624400 
Cs      13.08556125      26.74850736      20.19807727       55      -0.18027000       0.01779700      -0.19056900 
Cs      11.73981549      25.25967420      28.28905612       55       0.08912300      -0.07178300       0.01978000 
Pb      -0.09721720      -0.61643100       4.50539484       82       0.19952800       0.60648500      -0.02336500 
Pb      -0.58867846      -0.70764118      12.49892587       82       0.24449000      -0.23132200       0.51327300 
Pb      -0.36504963      -0.66730690      20.37831754       82       0.84721200       0.21912200      -0.06627600 
Pb      -0.44024633      -1.46367068      28.29417022       82       0.51919300       0.65115800      -0.00708300 
Pb      -0.25162185      14.68028656       3.10434307       82      -0.33168500       0.76279900      -0.50521300 
Pb      -0.22159067      13.98770286      10.89894553       82      -0.22201700       0.08465500      -0.35091800 
Pb      -0.90924951      13.17947187      19.08092955       82       0.44885400       0.30414200      -0.20490600 
Pb      -1.53301903      13.41890720      27.00497327       82       1.38313900      -0.18510000       0.37309600 
Pb       9.25699585      -0.19974659       3.61299358       82      -0.03664400      -0.09802500       0.08656600 
Pb       8.85317208      -0.76429741      11.75846831       82       0.56608400       0.08977000       0.54815200 
Pb       8.23637642      -0.82002131      20.33060827       82       0.17688200       0.03408100      -0.59417200 
Pb       8.42809164      -1.91026406      28.19304032       82      -0.90610100       0.77108600      -0.10309700 
Pb       7.78197637      14.91881517       2.64582829       82       0.62852300       0.03669400       0.13842000 
Pb       8.36726054      14.21286128      10.59241386       82       0.22937300      -1.02666000       0.03820800 
Pb       7.80775976      14.17126744      18.58873306       82       0.25487200      -0.05024900       0.25766900 
Pb       7.56479512      13.50929640      26.48621873       82      -0.74359900       0.16699000       1.18708200 
Pb       3.90537646       7.20004116       3.31788660       82      -0.78302600      -0.40307900       0.08813600 
Pb       3.97975514       6.54366517      11.73502367       82       0.03515100      -0.08960100       0.24126700 
Pb       3.35436929       6.28875843      19.30450516       82       0.18108400       0.52266400       0.13054200 
Pb       3.71301964       6.12883559      27.81155638       82      -0.12755600       0.62961100      -1.06945600 
Pb       4.45621609      21.72623549       3.13601521       82       0.23868600      -0.07644400       0.12164500 
Pb       3.87734796      21.28492770      10.90025041       82       0.16188800       0.20927200       0.54692400 
Pb       3.50708567      20.91511384      19.04156113       82      -0.35041100       0.49715100       0.56934600 
Pb       2.68971356      21.09455975      27.27315164       82       0.12224300       0.16962100       0.13797600 
Pb      13.13417428       6.81159912       3.37893254       82       0.14446800       0.63335600      -0.57409200 
Pb      12.08996337       6.85425244      11.23985471       82       0.30949900      -0.39085900      -0.48595800 
Pb      12.00863941       6.63157074      19.00621184       82       0.52818500       0.16547700       0.44225100 
Pb      12.45033058       6.10431964      27.14132531       82      -0.13821500      -0.07850200       0.56114100 
Pb      12.99665730      22.00915201       1.84699862       82       0.03367000       0.18568600       0.19416500 
Pb      13.25040502      22.10701771      10.23382954       82      -0.74708800      -0.57167500      -0.80177100 
Pb      12.04959558      21.38427668      18.36913323       82       0.25162700       0.71717100       0.08869900 
Pb      11.46840446      20.57405485      25.68307031       82      -0.48782700       0.17170100       1.69365500 
Pb       4.23614417       7.07217878       7.47032864       82      -1.42365100       0.30812100      -0.59849000 
Pb       3.96850787       6.48948468      15.55354222       82      -0.41415300      -0.15226000      -0.05809500 
Pb       3.40267187       6.23855864      23.43168616       82       0.22175100       0.28952900       0.60009400 
Pb       3.17534224       6.17876633      31.57942473       82       0.04064900      -0.33437000      -0.28757200 
Pb       4.37615464      22.36404637       7.26491603       82       0.25898900      -0.17657700      -0.00436800 
Pb       4.39562745      21.14337581      15.10309725       82      -0.94110000       0.07964700      -0.69126300 
Pb       2.69575212      21.21227080      23.20855012       82       0.08920300       0.33116000       0.19105600 
Pb       3.27131763      20.74483468      31.27670425       82       0.46297400       0.22993900      -0.70669200 
Pb      12.18991748       7.06980061       6.75054430       82      -0.00782000       0.39077200       0.55261100 
Pb      12.84021746       6.13125811      15.27153636       82      -0.54662000       0.40293300      -0.44804300 
Pb      12.40999827       6.84299038      22.92846907       82       0.59861300      -0.85884300       0.66612000 
Pb      11.97723238       5.47668670      31.36343503       82       0.10863800       0.69350300      -0.39794100 
Pb      12.88575552      21.85023544       5.88511503       82       0.11456700      -0.62760900       0.18303900 
Pb      12.50197324      21.55967585      14.07827143       82       0.59452500       0.60212100      -0.05353800 
Pb      12.05399120      20.97323759      22.57989218       82      -0.07006200       0.97557700      -0.99538100 
Pb      11.36423509      19.86637918      30.17984737       82       0.76465700       0.78507100      -1.66306000 
Pb       8.42472889      14.75590213       6.75994857       82       0.15224200      -0.57888700      -0.79159500 
Pb       8.66355809      14.00014365      14.62276598       82      -0.46126000      -0.60848100       0.08507600 
Pb       7.33220652      14.40138918      22.73805086       82      -0.58396800      -0.05465800      -0.54860500 
Pb       7.54746887      13.22752215      30.64665963       82       0.10285400      -0.30957300      -0.18719600 
Pb       8.92066166      29.66966036       6.20947952       82       0.35812800       0.63676900       0.17812200 
Pb       7.87197233      28.54128902      14.08497032       82       0.85687700       0.22020000       0.68853300 
Pb       8.05526195      28.65554271      22.58606675       82      -0.18543500       0.54132100       0.05573400 
Pb       7.86250794      27.88107524      29.98846428       82       0.11115900       0.13910400       0.76579100 
Pb      17.01795404      14.60230071       6.36395217       82      -0.06397000      -0.06052900       0.55548500 
Pb      16.94233946      13.72158925      14.42149669       82       0.02107600       0.22891900      -0.27887800 
Pb      16.21892825      13.99330186      22.49355958       82       1.19696500      -0.99929900       0.52390000 
Pb      16.24098915      13.22250365      30.12768827       82       0.14496900       0.30799300       0.62093100 
Pb      16.95431507      28.87497302       6.54032115       82       0.47446700       0.10212000      -0.05434600 
Pb      17.17860620      29.22372238      14.42559172       82       0.06456500       0.14406900      -0.18450700 
Pb      16.85580087      29.07156087      21.97188284       82       1.22331300       0.51141000      -0.40967800 
Pb      16.78041494      28.24442674      30.21580968       82      -0.25475400      -0.03391000      -0.26651000 
I       2.00788928       0.19926859       6.83345601       53      -0.00808600      -0.05977200      -0.00244800 
I       1.75012046       0.39035404      14.15891929       53      -0.19906800       0.12708000       0.14848400 
I       2.26013204      -0.10963335      22.33986453       53      -0.50820100       0.07135300      -0.08988000 
I       2.09808333      -0.39993866      29.85602986       53      -0.46369900      -0.19365500       0.39512700 
I       1.73496442      16.24272966       5.27970166       53       0.08833900       0.02623600       0.07321500 
I       2.16698227      14.65204616      12.59358947       53       0.01921300       0.24393200       0.46639600 
I       1.20876295      14.98347026      21.18101753       53      -0.46723600       0.04607200      -0.26390200 
I       1.04995479      14.89426669      28.50457768       53      -0.65653900      -0.35813700       0.30328400 
I      11.56324053       0.28741267       5.51483401       53       0.00319700       0.11249600       0.29187100 
I      10.84145649      -0.56198539      14.34616497       53      -0.11781400       0.18287800       0.00920800 
I      10.87336319      -0.08773408      22.25272967       53      -0.43540800      -0.20570700       0.10571600 
I      10.34351119      -0.68001577      30.39226242       53       0.43267500       0.01215000      -0.26518300 
I      10.34172929      16.46127099       4.84071389       53      -0.26413300      -0.01479200      -0.02114600 
I      10.80995386      15.02113365      12.82297400       53       0.36481000       0.22776800      -0.12589300 
I      10.10522404      15.44499298      20.49501050       53      -0.19824800       0.09403600       0.02471800 
I       9.32962219      15.01779160      28.82822665       53       0.23921800      -0.26722500      -0.22509600 
I       5.87415652       8.53382708       5.13550254       53       0.35065600       0.15856900       0.48123200 
I       6.00495884       7.80198829      13.80232680       53       0.78739800       0.46636000      -0.25325500 
I       5.64888180       7.47155862      21.48972433       53       0.12617500      -0.16653500       0.07939900 
I       5.83124301       7.22405743      29.70786286       53      -0.08581500       0.14156800       0.57512300 
I       6.43493065      23.31884183       4.88232547       53       0.12160700       0.30462300       0.43529200 
I       6.37205451      21.40262298      12.86537994       53       0.68309400       0.31958500       0.34737600 
I       5.51355277      22.07672634      21.07281226       53      -0.02756700       0.06217500       0.36216600 
I       5.55762235      22.00495547      29.30268788       53      -0.51342600      -0.04402100      -0.02417600 
I      14.61102395       8.69479067       5.32510076       53       0.11550800      -0.11850600       0.04101600 
I      14.41122808       7.97880865      13.12553087       53       0.08431600      -0.15331000       0.19731400 
I      14.64346188       7.50008287      20.75222544       53      -0.10920400       0.48393600       0.33617700 
I      14.04785095       7.39520388      29.91196762       53      -0.04408400      -0.26046400      -0.12436400 
I      15.10186726      23.43212572       4.37704953       53      -0.01864800      -0.25156500      -0.67984700 
I      15.39098004      23.35332185      11.60124001       53       0.43827600       0.07033500       0.43112200 
I      13.91996295      22.94737617      21.00219647       53       0.13122700      -0.20555500      -0.59925900 
I      13.29049685      21.67445288      27.70502559       53       0.61551700      -0.06377300       0.44925000 
I       1.96134692       5.75419443       0.85290569       53       0.37640500       0.31823200       0.00474500 
I       1.96399316       5.75722505       9.65028095       53      -0.27640800      -0.30925900      -0.57226100 
I       1.91580984       4.73407567      16.95354830       53      -0.26898200      -0.08367800       0.26061100 
I       1.18519216       5.40309450      25.92328720       53      -0.01850800      -0.20236300      -0.31297100 
I       2.30362210      20.95321385       1.06207627       53      -0.59451500      -0.10112000       0.19549200 
I       1.60368903      20.54374181       9.15084449       53       0.06938800       0.02332500      -0.34197100 
I       1.42214091      20.36480938      16.70525077       53      -0.19158300      -0.24391700       0.03198000 
I       0.14673991      20.37308714      25.61310303       53       0.40806500       0.04481800      -0.25743800 
I      10.70810450       5.72127161       1.15808418       53       0.31475400       0.26440400       0.23887300 
I      10.08443156       5.44740160       8.32399125       53       0.05389100       0.06323300       0.01962800 
I      10.44471204       4.73514896      17.38087387       53      -0.03374800      -0.19682100      -0.46662100 
I      10.36109664       5.47057521      24.97303520       53      -0.51080600       0.22941800      -0.16853100 
I      10.44664375      20.60048871       0.00391368       53      -0.18870300      -0.18678900       0.92773800 
I      10.91470571      20.59130324       8.08037712       53      -0.46262700       0.38367700      -0.05832500 
I      10.54465827      20.01845297      15.65298285       53      -0.25133100       0.03368100       0.35681000 
I       9.60456351      19.33411549      23.40328314       53      -0.57794500      -0.42577700      -0.17416800 
I       6.64780104      13.19898805       0.31339219       53      -0.41624900      -0.37087900       0.25653900 
I       6.74372912      12.56848021       8.47257416       53      -0.21615200       0.22024900       0.08413800 
I       5.88915289      13.27792497      16.40726889       53      -0.06184300      -0.22081200      -0.14194100 
I       5.55288572      12.41644190      24.40380491       53      -0.17431300      -0.29043100      -0.37253300 
I       6.67215240      28.78674221       0.19997327       53      -0.07012700       0.16859000       0.41283700 
I       6.97809667      28.05871658       8.01814258       53      -0.60424800      -0.15433500      -0.34204200 
I       5.64493067      28.62186592      16.54509238       53       0.23894700      -0.43720400      -0.09096200 
I       5.60941876      27.82609545      24.35949486       53       0.63577200      -0.19882600      -0.00785400 
I      14.83296253      13.81737934       0.80953587       53       0.19842400       0.09998700      -0.33818000 
I      14.83562947      13.01751187       8.20351075       53       0.16167000       0.00826500      -0.08527100 
I      14.61220367      12.14228311      15.68193089       53       0.29418500       0.12031900       0.48240500 
I      13.83858675      12.96802169      24.41918368       53      -0.73434000      -0.51172500      -0.55239100 
I      15.23224086      27.90418577       0.07794150       53       0.45848600       0.33024900       0.05791000 
I      14.91642714      27.06029800       8.29721638       53       0.41306000       0.45436900      -0.06614100 
I      14.71051386      28.45854584      16.24865882       53       0.04987300      -0.90067400      -0.06065100 
I      14.80205617      27.89654074      23.68814221       53      -0.90253600      -0.74024900       0.34998200 
I       7.03080177       1.27527386       5.67296410       53       0.05397500       0.12691900      -0.01415600 
I       6.52705444       0.26346934      13.84484016       53      -0.20260400       0.27343800      -0.28220900 
I       6.07419090       0.82587261      22.25339394       53       0.61864300      -0.07112600       0.10340500 
I       6.22614051       0.02874600      29.88329751       53      -0.16453600      -0.34376500       0.32180300 
I       5.70421146      15.89964927       4.81701794       53       0.24181500      -0.13433200      -0.04015600 
I       6.15210480      15.15148952      12.50429523       53       0.20715200       0.10402600       0.24420100 
I       5.10034938      14.80413966      20.37456352       53       0.46664300       0.08372800      -0.04564900 
I       5.03103454      14.30471404      29.05686806       53       0.36514600      -0.22634800      -0.29880000 
I      15.34052695       1.10626313       6.08020975       53       0.49477500      -0.98194300      -0.07112200 
I      14.87058749       0.81564934      14.45640937       53       0.53340500      -0.24835700      -0.48771800 
I      14.92618917       0.56949245      21.43316468       53      -0.07794700      -0.03235300       0.30531200 
I      14.92383170      -0.00760463      29.72016863       53       0.26028900      -0.22844600       0.01401400 
I      15.03095383      16.38231633       4.62971904       53      -0.07664500      -0.37564300      -0.05689600 
I      15.25689676      15.49063651      12.44382190       53       0.01010000      -0.28227600      -0.05216100 
I      14.57638131      15.01898216      20.43201314       53      -0.83459100       0.42034700      -0.95991200 
I      13.79207593      14.13896848      28.31991812       53      -0.30848800       0.41700600       0.48469500 
I       1.46942047       7.83781853       5.68582179       53       0.24929200       0.06703900      -0.01609000 
I       1.67254460       7.55094891      13.35478826       53      -0.42824500       0.23051500       0.40970600 
I       1.70919976       8.03451579      21.48142390       53      -0.41936500      -0.10142600      -0.12570700 
I       1.27346042       7.55237108      29.40062159       53       0.04194900      -0.03049000       0.41482700 
I       2.26318532      22.98871967       4.87361208       53      -0.36677700       0.24640700       0.07420300 
I       2.23131409      22.70523644      13.43976670       53       0.07265700       0.05064600      -0.26901500 
I       1.28977154      22.97442108      20.87465045       53      -0.13461400      -0.47113200      -0.05318300 
I       0.72146374      21.89688325      29.70143204       53       0.06279700      -0.03192200       0.13452800 
I      10.30444040       8.99275678       4.87754843       53       0.29835700      -0.63434700       0.31076500 
I      10.44505798       7.65428154      13.60027102       53      -0.47815600       0.05686300       0.20079000 
I      10.23266460       8.18542365      21.42609719       53      -0.31809300       0.27252300      -0.46694000 
I       9.88816007       6.70589127      29.17621909       53       0.09390500       0.07310400       0.21725300 
I      10.82759352      23.56956879       4.12795960       53       0.19394000      -0.29345900       0.08014900 
I      10.52522981      23.07013824      11.92906581       53       0.55059100      -0.33139500       0.13250800 
I       9.91436430      23.11428765      19.99608851       53       0.19975800      -0.54365900      -0.26157800 
I       9.28329370      21.49712002      28.04141497       53       0.25603500      -0.43321300       0.01712400 
I       6.36564045       6.36269755       1.59776874       53      -0.09233600       0.01417900      -0.17612000 
I       5.98285753       5.90860500       9.43351660       53       1.23947000      -0.66400400       0.17194000 
I       6.17102767       5.83358176      17.69738833       53       0.14012900      -0.17123100      -0.00379200 
I       5.22854094       4.69607817      25.48455568       53       0.38737000      -0.29155700      -0.15575700 
I       6.85761519      21.35309436       0.96726089       53      -0.31685700      -0.11458500       0.08251200 
I       6.52674399      20.63209581       9.02399429       53      -0.26718400       0.25265600      -0.02824500 
I       5.60947691      19.57810217      17.42889261       53       0.56902800      -0.70851800       0.14169300 
I       4.65944272      19.79739056      25.20462936       53       0.09866700       0.16600900       0.00238100 
I      15.43410051       6.33190650       1.14292420       53      -0.30422800      -0.31886500       0.36026800 
I      14.64441788       6.27060726       9.41468933       53       0.24298300      -0.27266100      -0.46917000 
I      14.88860659       5.75032806      17.45543882       53      -0.20880500      -0.64494400       0.08329900 
I      14.11046198       4.70822231      25.03154922       53       0.57818000      -0.28214000      -0.25421300 
I      15.03941491      20.65482887      -0.17166979       53      -0.08942400       0.23978300       0.16679400 
I      15.34607766      20.48182166       7.73843900       53      -0.38917200       0.36289600      -0.12764600 
I      14.65121335      20.56891808      16.48846473       53      -0.11001100      -0.15635900      -0.05395400 
I      13.87320672      19.36561911      24.22974610       53       0.53175600      -0.28095700      -0.10902200 
I       1.53272238      13.38557143       1.04264682       53       0.21559900      -0.08006300      -0.27268400 
I       1.81522102      12.95850901       8.62306612       53      -0.06467400       0.03220000      -0.11006300 
I       1.64752897      12.58068940      17.22938156       53      -0.47230900       0.19453300       0.30026800 
I       0.95951336      12.18325900      25.18013214       53      -0.27578700       0.19177400      -0.10145900 
I       2.18565874      28.56698469       0.56059673       53       0.02453700      -0.08368700       0.28476900 
I       2.01887637      27.66207562       9.18704728       53      -1.06750000       0.57362800      -0.49217700 
I       1.91846298      27.42010837      16.75570385       53      -0.58861000       0.23897300      -0.09938700 
I       1.82895291      27.96138407      24.26085253       53      -0.73907800      -0.13644000       0.24287500 
I      10.92594806      14.00587669       1.23171875       53      -0.52756200       0.15569600      -0.26394300 
I      10.79920725      13.54700021       8.35220997       53      -0.08010300       0.10265200      -0.00932700 
I      10.52578666      12.52681738      16.97627447       53      -0.53259900       0.43517700      -0.10151700 
I       9.44298591      12.86758169      24.28748843       53       1.27720300       0.08600300       0.08260800 
I      11.02073189      28.10891736      -0.14657630       53      -0.33548500       0.14084200       0.05392700 
I      11.16870573      28.33346177       8.00766602       53      -0.16567600      -0.03582300       0.00998900 
I      10.08817573      27.34921761      16.88016603       53      -0.13367000      -0.10799900       0.11974700 
I      10.31712759      27.05716686      24.96917868       53       0.65387500      -0.17180300      -0.91022500 
I       3.68922513       4.20520234       5.36358120       53       0.34973200       0.54570300       0.19118900 
I       3.74300154       3.69145546      13.03901889       53       0.25014600       0.37535200      -0.00199700 
I       3.00376706       3.99668322      21.14213104       53      -0.05073200      -0.47193900       0.23598400 