320
Lattice="18.1035392594 0.259806951704 0.0866860837973 0.492264291651 31.3086855093 -0.503397380685 0.259087926882 -0.617742841569 32.2169677159" Properties=species:S:1:pos:R:3:Z:I:1:forces:R:3 energy=-101586.939548 stress="1229.327379 -1214.593442 17.572878 -1214.593442 2489.636957 -300.129631 17.572878 -300.129631 3635.401012" pbc="T T T"
Cs       4.91907344       3.23035697       1.72995423       55      -0.48596200       0.00175700       0.53012700 
Cs       5.29826415       2.66567118       9.82039178       55      -0.60894200      -0.11559800       0.06092500 
Cs       4.63303387       3.06928002      17.64253973       55       0.33312800      -0.47364300      -0.10344400 
Cs       5.15244571       2.39160067      25.38381225       55      -0.04533800       0.04969300       0.19520100 
Cs       4.51383679      18.76630680       2.08498941       55      -0.26154700      -0.48163200       0.05678900 
Cs       4.84481284      17.69382333       9.54822498       55      -0.00297900       0.08727300       0.11089600 
Cs       4.91699637      18.43640262      17.67987465       55       0.43410100      -0.66890300       0.14666700 
Cs       4.73173926      17.26360852      25.67486960       55       0.22157800       0.05852200       0.10416800 
Cs      12.86392538       2.06327711       2.06464541       55       0.02465600       0.48480400       0.34805700 
Cs      14.15496470       2.08601614       9.97822337       55       0.21875900       0.90742500       0.00394700 
Cs      13.71757606       2.33538544      19.12939895       55       0.07452100      -0.02589700      -0.30873900 
Cs      14.04285530       1.88297625      26.98471640       55      -0.23129700       0.10192800       0.04072600 
Cs      13.33198079      18.45770360       1.28025908       55      -0.25887500       0.13087800       0.17897300 
Cs      14.69767151      17.94316185       9.54946917       55       0.09099300      -0.15967100       0.27314900 
Cs      13.36201777      18.45596707      18.11719253       55       0.00471600      -0.27206000      -0.02628200 
Cs      13.96706844      17.56167867      25.28310878       55      -0.20502300       0.18787200       0.27155000 
Cs       0.20031457      10.64087398       0.68412494       55      -0.01484700      -0.00405500       0.35324100 
Cs       0.48545151      10.42379413       9.01896835       55       0.16487200      -0.18727900       0.12773000 
Cs      -0.11737131      10.06981544      17.22460988       55       0.36759000       0.04130300      -0.03543000 
Cs       0.33483991      10.25677112      25.67056264       55      -0.18928000      -0.14666800       0.10593800 
Cs      -0.37993538      26.92074166       1.38125591       55       0.18399100      -0.30182200       0.17168200 
Cs       1.07376356      26.52726891      10.36433252       55      -0.05415600       0.06093900      -0.46494600 
Cs       0.50422000      25.90028132      16.97428154       55      -0.11944100      -0.05933100       0.21857500 
Cs      -0.01968856      25.38171570      25.75284738       55       0.00032000       0.14401500      -0.03737000 
Cs       8.57838153       9.84692800       0.75840810       55       0.38230200       0.55511800       0.30162900 
Cs      10.11027469      10.17897900       9.89918705       55       0.16249800       0.14025900      -0.06198900 
Cs       8.90221452      10.09528389      18.05521587       55       0.15888400       0.04239300      -0.03472000 
Cs       9.55599681      10.14246669      26.39992254       55      -0.34118400      -0.00621300      -0.01430200 
Cs       9.72235926      26.42227590       1.82616919       55      -0.13269800      -0.23189000      -0.02270200 
Cs      10.74011889      25.67592506       9.91480969       55      -0.29760500       0.20395000      -0.43508300 
Cs      10.33024602      25.80377506      16.64055556       55      -0.77511600      -0.42686500       0.24280200 
Cs       9.75229572      25.96655879      25.20863278       55      -0.01493200      -0.03444300       0.05600700 
Cs       0.84495981       5.17871730       5.65093095       55      -0.07569000       0.21773800       0.05144200 
Cs       0.12603038       4.79869781      14.24591263       55      -0.03987300       0.00929700      -0.18722700 
Cs       0.36152383       5.06552576      21.87702563       55      -0.53875700      -0.76861500       0.06299400 
Cs       0.51610596       4.10929763      30.12439521       55      -0.09699100       0.21900000       0.03186900 
Cs      -0.39098847      20.28593550       5.94663683       55       0.46609600      -0.36870600      -0.41444900 
Cs       0.69195933      20.69397952      12.97535064       55       0.10919100      -0.16466600       0.18893500 
Cs       1.44080573      20.51319760      22.26448769       55      -0.18409600      -0.14838800      -0.07038400 
Cs       0.35784460      21.16086049      29.38950159       55      -0.04899100      -0.01600500       0.09899000 
Cs       8.54196667       5.68268395       6.32607782       55       0.75119500      -0.39287700      -0.05545300 
Cs       9.70791106       5.38812482      13.54862061       55       0.06301300      -0.08930900       0.09045900 
Cs       9.02115825       4.72436233      22.24992052       55       0.34798200      -0.00841400       0.03101000 
Cs       9.20447163       4.92982598      30.33582954       55       0.22379200      -0.17373900      -0.26815400 
Cs       8.88862792      20.33086378       5.58214151       55       0.32860600       0.00284300      -0.28990300 
Cs       9.33206110      20.87725187      12.42568744       55       0.22848800       0.12030900       0.24893500 
Cs       9.80104786      20.28947524      22.15290858       55      -0.12388100       0.11807600       0.01476300 
Cs       9.79669781      21.66059403      29.58870223       55       0.08057700      -0.22533300       0.02206100 
Cs       4.48376186      13.51488696       6.01280455       55       0.34729700      -0.06268300       0.02339000 
Cs       4.82426473      12.36269636      14.13022758       55      -0.05571300       0.12777700      -0.07357000 
Cs       3.61008105      12.16836990      22.11539723       55       0.32184400       0.01458000      -0.14758000 
Cs       4.08152645      12.98631346      29.48464057       55       0.66168600      -0.15922600       0.05708900 
Cs       5.31733318      27.89386226       6.71879667       55      -0.03457800       0.16118000      -0.09300800 
Cs       6.15696031      28.26106854      14.15348050       55      -0.12099500       0.30620600      -0.04038100 
Cs       5.27848430      28.07976967      20.95403983       55       0.17965300      -0.02096000       0.33054000 
Cs       6.03931513      28.33068676      30.37038684       55      -1.17444800      -0.19154900      -0.00450000 
Cs      14.48787115      12.91360066       5.26222880       55      -0.21328300      -0.02276300       0.22088100 
Cs      13.84136629      13.17528980      14.42256913       55       0.15724400      -0.08495600      -0.04320600 
Cs      14.22144322      12.78402336      22.33714920       55      -0.33984500       0.05829700      -0.04261400 
Cs      12.78515575      12.14084694      30.25251087       55       0.19115900       0.17540200       0.06010700 
Cs      13.89844003      29.05968459       6.00140375       55       0.24062300      -0.20751800      -0.04377300 
Cs      14.40749525      28.68556193      13.73218119       55      -0.02392300       0.11812600      -0.03499200 
Cs      13.93513697      28.74130533      21.28486510       55       0.21397400      -0.27102800       0.16438200 
Cs      13.71918951      29.15854384      30.45738166       55       0.09381400      -0.11819200      -0.02437700 
Pb      -0.43480795       0.42592220       4.33392468       82      -0.04172200      -0.32310500      -0.18568900 
Pb       0.17545949      -0.30432495      12.71731612       82       0.57257000       0.87509200      -1.32601800 
Pb       0.05382634      -0.60258280      21.13679522       82      -0.42992300      -0.42519500       0.80652300 
Pb      -0.20637859      -0.54091694      28.96486768       82      -0.66945400       0.80920300      -0.05276900 
Pb      -0.02978773      15.30919443       3.25891795       82       0.18116700       0.26397100       0.56954300 
Pb       0.58738686      15.18876341      11.71120140       82      -0.12658400      -0.34378700       0.37568300 
Pb       0.27949449      15.36057547      19.86039692       82      -0.12357000      -0.01077800      -0.40558500 
Pb       0.45158246      15.60044872      28.18660999       82      -0.57966100      -0.56596200      -0.52377300 
Pb       8.81387293       0.06404552       4.23597831       82      -0.78488800       0.46075300       1.10491200 
Pb       9.76133430       0.01397739      12.54601281       82       0.00225400      -0.29754000       0.55371800 
Pb       9.84398625       0.10590897      20.32160775       82      -0.52009200       0.08734300       0.03644100 
Pb       8.83902239       0.20501336      28.35885284       82       0.43906900       0.16793600       0.30676800 
Pb       8.71552347      15.75761667       3.82101483       82       0.56741200      -0.63527600      -0.22397700 
Pb      10.05513646      15.36492449      11.86874271       82       0.38075600       0.00487900      -0.20925300 
Pb       9.39079445      15.39975873      20.25544721       82      -0.59270000      -0.33071800      -0.80964600 
Pb       9.24455957      15.52517266      28.29947432       82       0.13662000      -0.36715800      -0.03951100 
Pb       5.15628701       7.73962934       3.36843640       82      -0.70821300      -0.14916200       0.27903900 
Pb       4.73122435       7.18412676      11.83359050       82      -0.57010700      -0.10950300      -0.18372700 
Pb       4.86720928       7.14010008      19.81377108       82      -0.06531000       0.25778400      -0.18436900 
Pb       4.75065649       7.31052948      27.82727913       82      -0.54654100      -0.66310700       0.15760600 
Pb       4.09253543      23.34516661       3.84021618       82       0.14688800       0.00436300       0.06615100 
Pb       4.97825297      23.07489534      11.98059364       82       0.95301400      -0.30039600      -0.57355500 
Pb       4.96640496      23.21682427      19.81548813       82       0.27246500      -0.81131100       0.38234300 
Pb       5.16472042      22.95341297      27.73132983       82       0.27837800       0.05045400       0.47226800 
Pb      14.09734425       8.15237112       4.05312138       82      -0.90835900       0.12396100      -0.08972800 
Pb      14.35968984       7.32494793      11.85061529       82       0.27610600       0.46111100      -0.69493700 
Pb      13.87720162       7.87926170      19.82403129       82      -0.16657000      -0.55978500      -0.22553200 
Pb      14.07886090       7.50610013      27.71126073       82      -0.24097600       0.18161000       0.24896200 
Pb      13.73846265      23.96052775       3.60518020       82       0.24150800      -0.79237100       0.15330600 
Pb      14.77617651      23.18850229      11.19670068       82       0.17401000       0.36449100       0.25336300 
Pb      13.65134987      23.10827717      19.08124788       82       0.07862200      -0.73916200       0.70992000 
Pb      14.34554218      24.04543114      27.85600217       82      -0.82180900      -0.09534100       0.06373500 
Pb       5.26368736       8.14657277       7.48765678       82      -0.31399200      -2.13707400      -1.32473600 
Pb       4.52740184       7.54223702      15.84769068       82       0.31379200       0.31160800      -0.26967100 
Pb       4.92504411       7.14547071      23.85405669       82      -0.19482000       0.15530000       0.19676300 
Pb       4.87492777       6.79062530      31.75704416       82      -0.84867700      -0.42621700      -0.40747300 
Pb       5.73100016      23.15004318       7.63825812       82      -0.29865500      -0.02344400      -0.09540500 
Pb       5.04020194      23.51686174      15.89699363       82       0.91649000      -0.33135500      -0.60355000 
Pb       4.60074443      23.87181793      24.39720968       82       0.52516600       0.03808200      -0.76112000 
Pb       4.29087448      23.30971387      31.75656412       82      -0.16692300      -0.51108700       0.56389700 
Pb      14.28263007       7.83751313       7.93908231       82      -0.37041000      -0.08729300       0.16400000 
Pb      14.23802182       7.53240248      15.79748101       82      -0.05178700      -0.12488600       0.27954700 
Pb      13.88385542       7.64466267      23.64251774       82      -0.18829300      -0.20785900       0.86518600 
Pb      13.81690200       7.57699638      32.08211415       82       0.24816100       0.23370100       0.44029400 
Pb      14.76794106      22.77715547       7.30637329       82      -0.38735600       0.92890200      -0.00693500 
Pb      14.33224894      22.80587748      15.08181437       82      -1.40703400      -0.67102700       0.65724600 
Pb      14.13629160      23.55214114      23.59149159       82      -0.52451300      -0.13653300      -0.41605600 
Pb      14.47927875      23.23906378      31.81890491       82      -0.68490700       0.18011000      -0.45370000 
Pb       9.87964106      15.48733616       7.67528431       82       0.27071100      -0.51785300       0.28260000 
Pb       9.21906650      15.81185535      15.99595545       82       0.12836300      -0.06504600       0.01266000 
Pb       9.48060075      15.28655387      24.12513828       82      -0.15911900      -0.51687500       0.59651600 
Pb       8.91502875      14.98591123      32.31990007       82      -0.03452900      -0.36392900      -0.45406200 
Pb       9.92337234      30.73588428       8.03672608       82      -0.57738200      -0.10807700       0.06172200 
Pb      10.07582714      30.91337777      16.28953913       82      -0.57611500       0.38242400      -0.91311300 
Pb       9.85724770      30.86797561      23.99517223       82      -0.00830700       0.16887000       0.41070700 
Pb       9.51546063      31.13945415      32.11177264       82      -0.26265700       1.02071900       0.03468300 
Pb      18.39842252      15.29887576       8.10036337       82      -0.07840700       0.49178300       0.35854400 
Pb      18.55934356      15.89028136      15.73546332       82      -0.18356600      -0.46184300       0.03045600 
Pb      18.41185115      15.96668057      24.02211669       82      -0.73415200      -0.02715700      -0.03403000 
Pb      17.91187965      15.76933852      31.82472993       82       0.75743700      -0.48814900       0.85569200 
Pb      18.94204836      32.23603367       7.64917478       82       0.06253700      -0.17939400       0.63385100 
Pb      19.24071548      31.35853414      16.30443453       82       0.05718000      -0.52866400       0.04701100 
Pb      18.76520826      30.58235864      24.59115355       82      -0.18143900       0.08663900       0.00392200 
Pb      18.60797364      31.27862802      32.46859563       82      -0.08351500       0.41205100       0.08047600 
I       2.25836978       1.60763283       5.65302341       53       0.29540000      -0.09560400       0.14197200 
I       3.39638195       0.06029757      14.74538665       53      -0.60957800       0.26336900       0.21626100 
I       2.11269186       1.46733170      22.95562338       53      -0.05697700      -0.51810100      -0.05652900 
I       2.39145399       0.93280290      30.99901044       53      -0.29256700      -0.27366000      -0.02662000 
I       1.98740204      16.58230121       5.86952681       53       0.71742500       0.79010600      -0.40774700 
I       2.53117354      16.99132992      13.63176593       53       0.52056300       0.00431800       0.33321000 
I       2.51505549      16.61070116      21.84209395       53       0.81444300       0.27890000      -0.05229400 
I       2.70062646      16.58636919      29.95571876       53      -0.04680000       0.35388700       0.09631800 
I      11.27956085       0.98188635       6.68371523       53       0.28685300       0.47623900      -0.60249100 
I      11.91836774       1.48582120      14.44750216       53      -0.05196700      -0.19308700       0.36877700 
I      11.62174076       1.15945881      22.77669287       53       0.32812500       0.12369900      -0.22462100 
I      11.12307397       1.71650919      30.37998649       53       0.02238700      -0.38131500       0.12286300 
I      11.80971601      16.53230796       4.50157131       53      -0.42372900      -0.00267500       0.34151800 
I      12.46137302      16.67647500      13.78585880       53      -0.73320300      -0.14269800      -0.00382300 
I      11.93734240      15.87220420      21.88720275       53       0.43508900       0.61868800       0.41765900 
I      11.39413812      17.21526051      30.07969772       53      -0.14549800      -0.10045600       0.19286900 
I       7.39339888       9.04578562       5.28040136       53       0.56240000       0.44819000      -0.19751200 
I       7.01377121       8.57406328      13.75230773       53      -0.02527100       0.05805100      -0.04325100 
I       6.34653567       9.18140847      21.69273372       53       0.48935300       0.21705400       0.11234200 
I       7.16073230       7.93868023      29.66005083       53       0.23737000       0.52585500       0.18838500 
I       7.51476227      23.85858213       5.10187191       53      -0.00331700       0.36145500      -0.29199800 
I       7.64645151      24.97156794      13.70553214       53      -0.11525100      -0.57256200       0.08397800 
I       6.97490490      24.33632541      22.04568567       53      -0.08050000       0.39213700      -0.30779900 
I       6.81111494      24.25854046      30.28577269       53       0.89517200       0.39598000      -0.02906800 
I      16.54054649       8.87953498       6.02730814       53       0.66294700       0.18168100      -0.00101800 
I      16.51633864       8.64587140      13.88993790       53       0.52389400       0.28820300      -0.01992500 
I      16.08537711       9.54616330      22.22261911       53      -0.02199400      -0.36184800      -0.34538900 
I      15.96584564       9.41107382      30.47308635       53      -0.31638700      -0.07259000      -0.68937100 
I      16.81956299      24.31176676       5.26530799       53      -0.51233300      -0.20857400      -0.38634600 
I      16.74475980      24.14671723      14.11931605       53       1.21985800       0.83386300      -0.62879500 
I      16.35272305      23.78326608      20.80103627       53      -0.16329100       0.32493900       0.16606000 
I      16.41450893      25.91576651      29.43356211       53      -0.18252600      -0.73254800       0.02612600 
I       2.18104333       6.20578938       1.86103523       53       0.70896000       0.30979800      -0.17625500 
I       2.69348237       5.95447533       9.39505321       53       0.38681200       0.32631300      -0.05127600 
I       2.43080752       6.09588731      17.92420770       53      -0.51463200       0.01248900      -0.07930000 
I       2.46902456       6.14554002      25.66258361       53       0.07388200      -0.15957100      -0.05058200 
I       1.58636569      23.04702774       1.80313475       53      -0.20826600      -0.33602800      -0.03313200 
I       3.28456385      22.21541861       9.49875279       53      -0.52077900      -0.29854000       0.66950600 
I       3.25242518      21.38623323      17.16720893       53      -1.01859500       0.79014600       0.38793500 
I       2.51375898      22.17881194      26.12887583       53      -0.59413500      -0.37072500      -0.28408500 
I      11.49495033       7.17813865       2.21707560       53      -0.21872900      -0.08723400      -0.14026400 
I      11.88549158       6.34069526       9.98031582       53      -0.28397000       0.01718400       0.09768700 
I      11.97256641       6.02705171      17.50126827       53      -0.39883000       0.16190800       0.46460100 
I      11.56059904       6.26484583      25.90436161       53       0.42851500      -0.05009500       0.18920300 
I      11.39089174      22.63184271       1.09128582       53       0.37097000       0.15855600       0.23587000 
I      12.76689908      21.47861715       9.68314727       53      -0.56914100       0.15069100      -0.79422800 
I      11.50603316      21.69044228      16.68314316       53       0.10282000       0.10579300       0.14126200 
I      11.68227219      22.60576806      26.03798124       53       0.15104300       0.02530300      -0.15476100 
I       6.34930304      13.93875671       1.57537415       53       0.10604100       0.39374800       0.10241700 
I       7.40475968      14.42173009       9.68926976       53       0.40852200       0.10554800       0.13637000 
I       6.66124493      15.04278189      17.73750434       53       0.24756000      -0.33818000      -0.09573300 
I       7.21653006      13.62726511      26.45418789       53      -0.05551400       0.37100600      -0.71330800 
I       6.85785976      30.53617899       1.67776698       53       0.10078700      -0.20107700       0.39254100 
I       8.54295854      28.95350381      10.50889651       53      -0.33151800      -0.12272500      -0.26923200 
I       7.57158370      29.53360196      18.15618603       53       0.47348200       0.18422100      -0.33886900 
I       7.17227670      29.95051122      26.24042827       53      -0.17686400      -0.05450800      -0.45311600 
I      15.34960239      14.81690655       1.78697054       53       0.38259100       0.22023000      -0.21262600 
I      16.36979399      13.77871984      10.09585008       53      -0.01570800       0.34333000       0.02446000 
I      16.69698824      13.97637371      17.75548509       53      -0.75379500      -0.02908600       0.02946900 
I      16.01872423      14.32865792      25.30980809       53      -0.13062700      -0.03582300       0.72303700 
I      15.59719310      30.31732363       2.12185148       53       0.12379000       0.11514100       0.16777300 
I      16.76966411      30.23468501       9.94645191       53       0.26916800       0.00030600       0.36008900 
I      16.84840502      29.65238978      18.15262681       53      -0.34249400      -0.14899100      -0.03134600 
I      15.73702856      29.57664087      27.21860564       53       0.54217700       0.29708800      -0.27241400 
I       6.72677056       0.61374461       6.81596041       53       0.07389800      -0.09198400       0.26252900 
I       7.43463255       1.42689399      14.35414791       53       0.14284600      -0.37542800       0.45624600 
I       7.54298374       0.94720391      22.24500530       53      -0.79100500       0.25695000       0.02043000 
I       6.35365822       0.95681997      31.14008188       53       0.76578900      -0.21680200      -0.92287800 
I       7.26516527      16.95898816       6.35534962       53      -0.51574100       0.39970900      -0.07553600 
I       8.12812635      17.39851234      13.27557068       53      -0.42168200       0.01067500      -0.03406000 
I       7.34763977      16.80476606      22.26672067       53      -0.28461100       0.12699600       0.15338100 
I       6.64460479      16.28712973      30.00814500       53       0.04082800       0.00243700       0.23664200 
I      15.94837057       2.43300562       6.51673531       53      -0.06837500      -0.00225300       0.05016500 
I      16.27144145       1.07145879      15.07058691       53      -0.25420800       0.41021200       0.01379500 
I      15.54974670       0.29947435      23.40155211       53       0.17589100      -0.10551600       0.00005700 
I      15.32273794       1.40003262      31.39975549       53       0.50725000      -0.16185100      -0.47038600 
I      15.99620675      16.40280554       6.27567941       53      -0.08938100       0.20732800      -0.10089300 
I      16.23516095      16.83155153      13.51979910       53       0.39336200      -0.11752900       0.15127600 
I      16.06907032      17.45598509      22.19853742       53       0.59545900      -0.24412300      -0.20736300 
I      15.52025745      16.63872569      30.45944437       53      -0.76338400       0.43259100      -1.12350800 
I       3.31845751       9.61178432       5.30715708       53      -0.30795500      -0.01790500       0.24160900 
I       2.50022573       8.97411905      13.71918745       53       0.14638100      -0.09658400      -0.04265400 
I       2.07104791       8.03643068      21.80295274       53       0.89299100       0.80346100      -0.08921700 
I       1.92067326       7.91894859      30.14326833       53       0.70063800      -0.14405400      -0.36885500 
I       2.53766733      24.94425730       6.37145947       53       0.45760700      -0.03079600      -0.21644400 
I       2.83132691      24.73748587      13.18989595       53      -0.46461700       0.27439000       0.67989200 
I       2.20917351      24.24749763      22.04429686       53       0.52019300      -0.19759700      -0.24200300 
I       2.81119319      24.95021875      29.29938962       53      -0.17637000      -0.26530100       0.27874400 
I      12.18422024       9.92557147       6.22116072       53      -0.07426000      -0.16631800       0.43695900 
I      12.16489068       9.31601997      14.30128472       53      -0.32589400      -0.13148300      -0.46073400 
I      11.21393676       8.02673256      22.01639131       53      -0.25462500       0.54721500      -0.29304300 
I      11.26474648       8.59489449      30.20689536       53       0.36272800      -0.23773100      -0.24593100 
I      12.12157174      25.03979734       6.07203230       53       0.22812500      -0.14329300       0.04720600 
I      12.15234723      24.31961039      12.88366933       53       0.08996600       0.07603600       0.42345400 
I      11.54396710      24.56416396      21.91632377       53       0.09908700      -0.00686300      -0.37919300 
I      12.04247593      24.99544243      30.39637122       53      -0.18341800       0.25749900      -0.56448700 
I       7.13657265       6.35905860       1.28251052       53       0.26414800      -0.22799200       0.01027200 
I       7.05946365       6.11808066       9.90647679       53       0.37232300       0.11146800      -0.08372800 
I       7.23016794       6.31914708      17.32297986       53      -0.27772000       0.07953800       0.40832800 
I       7.24593212       6.00921558      25.85004087       53      -0.28946900       0.07624100      -0.23408300 
I       6.17828899      21.81475562       1.40449139       53      -0.19588500       0.71525200      -0.07477800 
I       7.69768998      21.06259924       9.01381312       53      -0.08173400       0.02039000       0.24482600 
I       7.54149543      22.14921191      17.51812176       53      -0.66538300       0.50336000       0.21940300 
I       7.07735004      21.77529849      25.14611557       53      -0.27752900       0.12909000       0.31756300 
I      16.10866079       6.99107937       2.17058208       53       0.32155300      -0.23664700      -0.81761000 
I      16.65213381       5.71244296      10.14937384       53      -0.71146500       0.55036200      -0.04498100 
I      15.86328255       5.71826696      18.47817581       53       0.62925200       0.30677800      -0.33986800 
I      16.52654243       6.52110792      25.99905646       53      -0.24645600       0.11887300      -0.14725100 
I      15.67209682      21.64227172       0.97904307       53       0.63072700      -0.38265500       0.75462800 
I      17.15105087      21.83455290       9.52385609       53       0.02029300      -0.00437600      -0.15635700 
I      15.86580683      21.24022401      17.40637136       53      -0.00298500       0.32431100       0.06824700 
I      15.95400276      22.10943784      25.81000422       53       0.61765500      -0.16923000       0.12862000 
I       2.05448983      14.54182160       0.93313934       53       0.32305200      -0.39834000       0.60925000 
I       3.09009789      13.49061141      10.20892469       53      -0.18143500       0.27143500      -0.26029100 
I       2.54721774      14.06702520      17.84683714       53       0.13803100       0.14585600       0.20507000 
I       2.14599676      13.79834480      25.93965024       53       0.42523800       0.11287500       0.16132200 
I       2.22395506      29.68392943       1.75459596       53       0.09557500       0.24625700       0.20068300 
I       2.94535133      30.37433891       9.55234630       53       0.33597100      -0.56039300       0.00209800 
I       2.58484808      29.46302059      18.80653116       53       0.96738700      -0.29829000      -0.59129700 
I       1.87887750      28.54242675      27.27278380       53       0.74663800      -0.21908600      -0.90102100 
I      10.64317363      13.47153418       1.69021093       53      -0.12190300       0.34745700      -0.13080900 
I      12.22617601      13.80215943       9.39629740       53      -0.39321500       0.00775500       0.01484400 
I      11.38193111      14.41454497      17.89414508       53       0.39086700      -0.40057800      -0.10647700 
I      11.84407842      14.25667338      26.29586703       53      -0.19638600       0.06807800      -0.00907100 
I      11.27005967      30.06273858       1.96567642       53       1.08172800      -0.66608000      -0.77558800 
I      12.85408366      30.44314169      10.00505192       53      -0.74600000      -0.72263400      -0.04238600 
I      12.64835538      29.74397057      17.71534894       53       0.09517000       0.04102400       0.06285600 
I      11.84678117      29.66140169      26.31789422       53      -0.48494400       0.29959500       0.14877800 
I       5.11930390       4.96525719       5.15662139       53      -0.19770500       0.22439900       0.09315100 
I       4.02642002       4.56396749      14.01356811       53       0.28633100       0.45813200      -0.15139300 
I       5.26185647       4.44083679      21.51602286       53      -0.21565600       0.27542800       0.12927700 