320
Lattice="17.6792397255 -0.0444599969248 -0.275756780363 -0.0251912386064 30.6574748806 -1.28863619981 -0.37064468778 -1.41435008203 32.3531276319" Properties=species:S:1:pos:R:3:Z:I:1:forces:R:3 energy=-101589.665387 stress="-519.091481 118.772697 -856.977642 118.772697 268.757765 439.605135 -856.977642 439.605135 -510.376416" pbc="T T T"
Cs       4.41950300       1.63427239       1.86525013       55       0.07304400       0.35278200       0.12188400 
Cs       4.01215126       2.55952515      10.50319066       55       0.08747200      -0.29056800      -0.48838100 
Cs       4.43531984       2.31274067      18.82933976       55       0.01581900      -0.28949700      -0.34056000 
Cs       4.12118103       1.06038950      26.03259326       55       0.30706900       0.36809200       0.02337200 
Cs       3.78252642      17.08798214       1.13869225       55       0.09293000       0.23017500       0.08790900 
Cs       4.94744174      17.39167130       9.65461716       55       0.01815700      -0.18919300       0.00294000 
Cs       4.31978705      16.59618204      18.33202810       55       0.01512700       0.18648300      -0.40465200 
Cs       4.48130236      16.44382104      26.00305759       55      -0.20083500       0.15565000      -0.31707300 
Cs      13.81450936       3.03808498       2.13261892       55      -0.19295500      -0.04790300      -0.23739700 
Cs      12.86400378       2.70613834       9.36243575       55       0.39482700      -0.03700200       0.00230900 
Cs      13.79288514       1.45830526      17.87849393       55      -0.30549900       0.15227500      -0.04802800 
Cs      13.04205175       0.98551243      25.86110182       55      -0.00693100       0.08977400      -0.03255800 
Cs      12.15361711      17.90146399       0.92342533       55       0.13865500       0.55860700       0.12481900 
Cs      13.65834509      17.12417833       9.53574452       55       0.08313400       0.03792700      -0.35557900 
Cs      12.61726574      16.52586748      17.84735295       55       0.01925400       0.02698900      -0.28793800 
Cs      12.47563708      17.29914895      25.22059052       55       0.16740600      -0.01867900       0.00492500 
Cs      -0.02247635      10.10212486       1.56720278       55       0.04961900      -0.04222000      -0.00652300 
Cs       0.43117090       9.76274534       9.52973319       55      -0.18627000      -0.00703200       0.02301900 
Cs      -0.30478360       9.70346399      18.44961650       55       0.15215900      -0.39560400      -0.55459600 
Cs       0.00935522       9.55303542      25.63429990       55      -0.29861000      -0.00123100      -0.13581500 
Cs       0.72107460      25.52494200       1.03631693       55      -0.52367500       0.05186000       0.24570800 
Cs       0.33949967      24.79238187       9.25467104       55      -0.02635100      -0.02599400       0.09309900 
Cs      -0.63473824      25.15450933      18.24037101       55      -0.12138400      -0.19021400      -0.32391300 
Cs       0.14130759      24.74797639      24.79723717       55      -0.12861100       0.06395800      -0.08198600 
Cs       8.03317513      10.29233683       1.13205798       55       0.19103200      -0.08771300      -0.00373700 
Cs       8.49081647       9.50008142       9.04896026       55      -0.13596400       0.13217600       0.10422900 
Cs       8.94576513       8.64513716      18.18023956       55      -0.53122400       0.52743700       0.07824500 
Cs       8.80207481       8.63743168      26.38730400       55      -0.40492000      -0.17709300      -0.14355400 
Cs       8.11710049      25.28350956       1.29422752       55       0.21864300      -0.02484700       0.05482900 
Cs       9.20543651      25.14627985       8.08737804       55      -0.13318900      -0.19376200       0.06656000 
Cs       8.44344167      24.14864784      17.60486242       55      -0.12654100       0.26825200      -0.87683200 
Cs       8.85112660      24.97527000      25.24862790       55      -0.16646700      -0.19341200      -0.20300800 
Cs      -0.80005076       4.63394606       5.73315881       55       0.44597300       0.14555500       0.31759700 
Cs       0.10139597       4.57289181      14.42147878       55      -0.29457300      -0.06528700      -0.22679900 
Cs      -0.01850649       4.23516707      22.48305779       55      -0.17984900       0.02819600      -0.18981100 
Cs      -0.35611613       3.92849748      30.51711634       55      -0.10779600      -0.02943800      -0.27138300 
Cs       0.60309144      19.93016286       5.25813671       55      -0.08141500      -0.05774400      -0.03569900 
Cs       0.44970263      18.93997383      13.26976637       55      -0.08014200       0.13883900      -0.00221800 
Cs      -0.60888771      19.43742583      22.01278499       55       0.19068000       0.02566300      -0.49547600 
Cs      -0.62532144      19.26552549      28.72614356       55      -0.32919700       0.09872100       0.01841500 
Cs       9.44312222       5.43249651       5.28564606       55      -0.19766200      -0.14186600      -0.10459100 
Cs       8.07694050       4.42736599      13.79499425       55       0.53536800       0.06980000      -0.09837900 
Cs       9.35908883       3.84947589      22.21248747       55      -0.19761300      -0.02417000      -0.15437200 
Cs       9.30657301       3.24916497      29.92310853       55       0.00720100       0.12947500      -0.11339200 
Cs       8.75002443      20.09802369       5.20094126       55      -0.11927800      -0.06223600      -0.12193000 
Cs       9.81133370      20.18374518      12.31529900       55      -0.33381700      -0.13886500       0.10269300 
Cs       7.14588036      19.26690060      21.83772249       55       0.29642100      -0.09216700      -0.25488100 
Cs       8.04908384      19.21977014      29.41180443       55       0.13532200       0.04451900       0.30593700 
Cs       4.66781707      11.97488562       5.72633069       55       0.00186100       0.14107400      -0.11241200 
Cs       4.03406625      11.73338250      14.19406604       55       0.12929100       0.09124200       0.04915500 
Cs       4.71954034      12.19264833      20.84894694       55      -0.23926700      -0.08979100       0.56373800 
Cs       3.68792222      11.07629715      29.95696137       55       0.03439500       0.08264000       0.07981200 
Cs       4.93652362      27.66387817       5.44075123       55      -0.28942000       0.02269800       0.05328000 
Cs       4.32292599      28.79461656      13.07827722       55       0.99989000      -0.17196500       0.04403900 
Cs       4.34808694      28.07624272      20.45893556       55       0.20422300      -0.18631700       0.12819100 
Cs       3.03567904      27.09937069      29.06080610       55       0.56157000      -0.38459400       0.18259600 
Cs      12.91878621      12.93516946       4.65660313       55      -0.01389900      -0.08682900       0.19826100 
Cs      12.42415007      10.98185953      14.18834246       55      -0.12073100       0.43350700      -0.16928000 
Cs      12.50440140      11.71434192      20.23797737       55       0.21519500       0.06397200       0.30718500 
Cs      12.68712496      12.16868278      29.54536918       55      -0.04661100      -0.06434700      -0.01307900 
Cs      13.49973953      27.24660278       4.15995581       55      -0.01128800       0.19436600       0.19766300 
Cs      14.42088815      27.12270522      12.97270037       55      -0.13121600      -0.10984600      -0.03918000 
Cs      13.04380345      27.18962945      21.09382120       55      -0.03209300       0.01079600      -0.21614100 
Cs      13.18092008      26.39100025      30.08904298       55      -0.32365900       0.08714700       0.03923100 
Pb       0.48832597       0.09949686       4.92781356       82       0.17988700      -0.42838400       0.46040400 
Pb       0.67546766      -0.34104440      12.58041127       82      -0.42486700      -0.70098200       0.66159600 
Pb      -0.04587550      -0.69067367      20.61467276       82      -0.32068700       0.07486900      -0.43428300 
Pb      -0.12814204      -1.57144624      28.82225816       82      -0.35072100       0.85042400      -0.11142000 
Pb      -0.71566198      15.33211111       3.21502135       82       1.12744900      -0.11947200       1.08822000 
Pb       0.29907112      14.32002627      11.35131387       82      -0.53810100      -0.34225200       0.04326300 
Pb      -0.76721663      14.64005425      19.21953994       82       0.38422700       0.23595700      -0.00260000 
Pb      -0.80656892      14.10516321      27.28241733       82      -0.54921800       0.18233300      -0.00997800 
Pb       8.48008008      -0.01002561       4.20210678       82       0.35317700      -0.58345000       0.32626200 
Pb       9.31678136      -0.58692123      12.32799205       82      -0.59893400      -0.20459300      -0.19744600 
Pb       8.53541781      -1.02715456      20.39435770       82       0.66979700       0.32750500      -0.01262300 
Pb       9.03866104      -1.51444969      28.56925437       82      -0.00305700       0.00178000      -0.26111400 
Pb       8.50896050      14.81520963       3.17559536       82      -0.29233800       0.62924000      -0.21976200 
Pb       9.54595994      14.60345623      11.12908961       82      -0.69238500      -0.15733100      -0.00407700 
Pb       8.50384269      14.18368403      19.29937530       82      -0.15616200       0.16884700      -0.43755300 
Pb       8.20587005      14.05213046      27.32197558       82       0.33088600       0.77138900      -0.55469700 
Pb       4.41553315       7.54666245       3.02647022       82      -0.12635100       0.46169600       0.50439600 
Pb       4.30485768       7.57894532      11.28856445       82       0.26424600      -0.63642600       0.22389800 
Pb       3.96676846       7.14472534      19.74296665       82      -0.46884800       0.36617700       0.37684900 
Pb       4.08954533       6.32994410      27.40071549       82       0.59703400      -0.58495700       0.46918300 
Pb       4.23291862      22.83771602       2.95636566       82      -0.49740600       0.34345400       0.23352100 
Pb       5.13200686      22.18096283      11.14013090       82      -0.46794500      -0.31676300      -0.11018000 
Pb       3.62582603      22.71198093      19.28170781       82       0.55380600      -0.54650900      -0.40750900 
Pb       3.76495081      22.02104577      27.69691926       82       0.00419400       0.11852600       0.10551000 
Pb      13.22841805       8.09810635       2.97922970       82      -0.40952600      -0.35324700       0.30730000 
Pb      12.97990609       6.94676952      11.33472567       82       0.65095500      -0.05724500       0.70439600 
Pb      13.20292695       6.04423542      19.97532657       82      -0.07708300       1.07715500      -0.31772400 
Pb      13.17836774       6.59036968      27.61960596       82      -0.28851800      -0.13175800       0.52462300 
Pb      13.24171990      22.24636757       2.77776744       82       0.27298500      -0.61138300      -0.72193400 
Pb      13.26975728      22.36867193      10.75339980       82       0.46708500       0.38475800       0.04047500 
Pb      13.06283495      22.54939239      18.82307502       82      -0.28427400      -0.06837800      -0.52858100 
Pb      12.49397395      21.98051322      26.55011667       82      -0.12060100      -0.49810500      -0.62947600 
Pb       3.94618920       6.95808039       7.18837562       82       0.95042500       0.84175100      -0.08419200 
Pb       4.46896369       6.96858052      15.32404418       82      -0.69540700       0.18899900      -0.09279400 
Pb       4.05703126       7.00813574      23.90488114       82       0.05866300      -0.47538600      -1.12266600 
Pb       3.67412060       6.05566542      31.43793784       82       1.00235000       0.12592000       0.20675900 
Pb       4.27375910      21.95765221       6.90689828       82       0.42325000       0.01766600      -0.30654900 
Pb       4.12278533      21.96733252      15.23958170       82       0.10253000      -0.13100900      -0.04495600 
Pb       4.12848468      21.78022617      23.57276892       82      -0.04432900       0.07203500       0.08424600 
Pb       3.82127293      21.63184613      31.70212024       82      -0.27277900       0.49741100      -0.16318000 
Pb      12.84401818       7.91869134       7.43738330       82       0.97936100       0.30316900      -0.77739100 
Pb      12.59645629       6.72916330      15.58270089       82       0.58245900      -0.25274200      -0.38760900 
Pb      12.65384356       6.75194455      23.87630159       82       0.05540800       0.27777200       0.21802500 
Pb      13.17077129       6.43309380      31.65455462       82      -0.38017900      -0.67064100      -0.81849700 
Pb      13.58468462      22.50838734       6.73705758       82      -0.79523100      -0.05670000      -0.03887500 
Pb      13.20529554      22.22497354      14.65408203       82       0.37435500       0.31824000       0.41788600 
Pb      12.14437295      21.79030630      22.27019076       82       0.05951100       0.16487600       0.06792900 
Pb      12.65490771      21.63725471      30.74054509       82      -0.19674400      -0.51791900       0.46144900 
Pb       8.85672802      14.81778015       7.18869466       82       0.01231700      -0.14683400      -0.20589300 
Pb       8.45667083      14.22504245      15.02067104       82      -0.52180300       0.30370500       0.00726000 
Pb       8.92781191      14.37301864      23.27170681       82      -0.39624000      -0.58539200      -0.04974900 
Pb       7.64890147      13.57849358      31.04213725       82       0.16642200       0.88360300       1.18406800 
Pb       8.87229144      30.56760584       7.08905948       82      -0.22014200      -0.13848000       0.11951700 
Pb       9.45648566      29.76835369      14.95835273       82      -0.46589000      -0.04045600       0.29864700 
Pb       8.55871701      29.70274703      23.03217449       82      -0.12113100       0.18799800      -0.46430800 
Pb       8.47486030      29.07728929      31.29008180       82       0.32987200      -0.66451500       0.18310600 
Pb      17.97806349      14.55207321       6.88338202       82      -0.21559900      -0.15678200      -0.18352800 
Pb      17.16478962      14.30431242      15.26690527       82      -0.01075300       0.06326800      -0.27480100 
Pb      17.42917395      14.31557179      23.09218983       82      -0.58987000      -0.02603200      -0.83356600 
Pb      16.56538333      14.17982119      31.55756770       82       0.25945000       0.03390500      -0.40682400 
Pb      17.93912919      29.97946296       7.41296847       82       0.37471100      -0.35666700      -0.44679700 
Pb      17.69464262      30.04316950      14.80279625       82      -0.26387200       0.67637100       0.66770100 
Pb      17.56869551      29.98090471      23.23553284       82      -0.76115700      -0.84246600      -0.09550600 
Pb      17.18787983      29.26132941      31.45353761       82       0.26751900       0.47693700       0.38357000 
I       2.95045327       0.84009161       7.18204929       53      -0.65213300      -0.18872100      -0.13126700 
I       2.31526878       1.19965058      14.93984725       53       0.12990100       0.32305700       0.14890000 
I       1.96379289       0.31950903      22.90311571       53       1.06344300       0.72619300      -0.53030700 
I       2.26538708       0.17155303      30.94459705       53      -0.54247900      -0.41276400      -0.12482200 
I       2.53814930      15.79097107       4.70012720       53      -0.53619100      -0.01136000       0.30087500 
I       2.11725944      15.04905068      13.92423477       53       0.17966700       0.43448600      -0.27828500 
I       2.04792018      15.62993635      21.08478604       53      -0.73069200      -0.33442800       0.21886700 
I       0.86734855      15.63089045      29.57967030       53       0.15821900      -0.03887300       0.31278600 
I      11.05884976       1.06621607       6.21768150       53      -0.07853400       0.05003700      -0.15657700 
I      11.75450797      -0.14545313      14.18603949       53       0.45663400       0.14575300       0.27568800 
I      11.00905791       0.36031619      22.26833405       53      -0.04102600      -0.15961400       0.18003300 
I      11.19841574      -0.53349775      30.99020903       53      -0.11510800       0.12325200      -0.29825500 
I      10.51996564      16.64595269       4.97744689       53       0.48662400      -0.29111200      -0.07471900 
I      11.16685072      15.17958958      13.72986716       53       0.43220500       0.11451500      -0.08679300 
I      10.28172867      16.14637643      21.10248280       53       0.52065100       0.16520800       0.22820400 
I      10.04601173      15.59387041      29.96959081       53      -0.50022700      -0.01174600      -0.56586500 
I       6.70375196       8.34558344       5.50226688       53      -0.15002700       0.22203600      -0.07377900 
I       6.68383401       8.24011261      13.31864046       53      -0.46838900      -0.25494900       0.25530200 
I       6.60593108       7.93072914      21.95624277       53      -0.65150800      -0.07934400      -0.15794400 
I       6.24370871       7.82183971      29.43180416       53      -0.00397800      -0.09624700       0.22793300 
I       6.40796718      23.72552267       5.05284089       53       0.57605200       0.10771100      -0.00458500 
I       6.72475425      23.01777214      13.64779750       53       0.44890200       0.14094200       0.07211300 
I       6.51971891      23.06154357      21.99914693       53      -0.78035400      -0.14177700       0.15977900 
I       6.05711323      23.21235177      30.02221062       53      -0.11000900      -0.10089500      -0.31743900 
I      15.16230575       9.14762821       5.02089221       53       0.23503700       0.25053800       0.16806300 
I      14.91068212       8.39057753      13.68340305       53      -0.23665900      -0.53282800      -0.12196400 
I      14.57675862       8.46125152      22.01083135       53       0.12349600      -0.18371200      -0.37732200 
I      15.55786302       7.76973884      29.87046953       53      -0.36333900      -0.14302800       0.02883800 
I      15.62781411      23.38047408       4.56879878       53       0.31519000       0.35119200      -0.21656900 
I      16.28126582      22.99579657      12.72515564       53      -0.59364800       0.13530800      -0.12607800 
I      14.98065139      23.58247448      21.17057315       53      -0.14652800       0.06982500      -0.34407000 
I      14.55529291      23.04327737      28.48607916       53       0.50292900       0.14670400       0.25150500 
I       2.28837833       5.93641720       1.09746306       53      -0.22864400      -0.01782100       0.22435300 
I       1.98607337       5.88176399       9.11283541       53      -0.53107100      -0.29925100       0.45966100 
I       1.81041418       5.73656327      17.36620645       53       0.69927800       0.37434800       0.29309900 
I       2.06368654       4.89276632      25.45155817       53      -0.27833500       0.10700200       0.15300200 
I       1.67652635      21.84371463       1.02971396       53      -0.01642600      -0.09201200       0.24487200 
I       2.65184456      20.51737891       9.11820663       53      -0.29901400       0.00445200       0.14616300 
I       1.57345944      21.31154555      17.27521672       53       0.26037900       0.25256600       0.12571600 
I       1.32056772      21.24806718      25.57752547       53       0.20688900      -0.17982100       0.10409600 
I      11.04458674       5.71842732       0.84393022       53       0.37844300       0.29090100       0.29659000 
I      10.93320049       6.33837450       8.99917952       53      -1.03850600      -1.05848500      -0.17188800 
I      10.59989186       5.51247322      17.92074284       53       0.32130000      -0.55709400      -0.11472100 
I      10.33586091       4.99657430      25.62448631       53       0.68334700       0.49762000       0.21126200 
I      10.05637961      21.70261704       0.60713904       53       0.84311600      -0.00035500      -0.28186300 
I      10.78021957      21.67712392       8.71055704       53       0.50484400      -0.05824700      -0.00738000 
I      10.66496443      21.19668315      16.04963888       53       0.03682200      -0.08405700       0.13435700 
I       9.86762453      20.75669113      23.97119555       53       0.18916200      -0.04668100       0.49991300 
I       5.87949233      13.92229426       1.35084042       53       0.35137700      -0.07983600      -0.35407800 
I       6.74320218      13.47731871       9.27590150       53       0.36560700       0.22314300      -0.13876700 
I       6.37281091      12.92702276      17.46474922       53      -0.32809100       0.19431000      -0.30216500 
I       6.24790069      12.94764341      25.12437395       53       0.22472700      -0.03653800      -0.00979900 
I       6.56681202      28.96475510       0.59973038       53       0.04058000       0.13969200       0.07030100 
I       6.36325982      29.98087442       9.37223015       53       0.43787100      -0.10227400      -0.39041400 
I       6.92847202      28.33180491      16.71762419       53      -0.35985800       0.08348600      -0.06981900 
I       6.43328159      28.05270727      24.74494852       53       0.05224400       0.27760500       0.53533900 
I      14.61823315      14.28459235       1.47522058       53      -0.67225200      -0.17992100      -0.93013100 
I      15.71751657      12.98113481       8.84782612       53       0.47302000       0.15680500      -0.13902200 
I      14.45409685      13.10788558      17.05223221       53       0.34925800       0.15639200       0.12866200 
I      14.90530383      12.44742503      24.64158882       53       0.54061700       0.39654400       0.17163400 
I      15.42030922      30.19726808       1.68996955       53      -0.08961600      -0.26912700      -0.41974800 
I      15.72536138      28.92183378       9.55597545       53       0.15471900      -0.30773800      -0.12433100 
I      15.26271531      28.78552990      16.98809355       53       0.32360700      -0.25576200      -0.09687900 
I      15.36424153      28.21480513      24.86010775       53       0.01711900      -0.14261600       0.53014300 
I       6.72259465       1.30992119       6.43984317       53      -0.13765100       0.17365800      -0.10199400 
I       7.09719708       0.87082066      14.38839730       53       0.26430300      -0.10921300       0.29671700 
I       6.62559157       1.11829371      22.33522799       53      -0.29662200      -0.27028900      -0.06709100 
I       6.57513539      -0.58181554      30.35661470       53      -0.05848900       0.17253800      -0.26464000 
I       6.56764092      16.25319411       5.12091307       53      -0.25427900      -0.15031600       0.64640100 
I       7.01812804      16.24677994      12.90139436       53       0.32791200      -0.20578400      -0.37009500 
I       6.15447573      15.46375353      21.54015975       53       0.47739200      -0.01421700       0.14061100 
I       5.28963106      14.77505671      29.23032473       53      -0.01142500      -0.03366100       0.04739600 
I      15.85973687       0.73716605       7.00344400       53      -0.39004300       0.45175500      -0.48554700 
I      15.57213008       0.86736975      14.10107724       53       0.46158200      -0.22385100       0.34969600 
I      15.29753336       0.28133599      22.26018938       53      -0.06602100       0.15405900       0.39185600 
I      15.67037399       0.30922697      30.54449847       53      -0.24900200      -0.05437200      -0.16061200 
I      15.27698843      15.98493584       5.56419648       53       0.05308200       0.16109900      -0.00493200 
I      15.29044880      15.48791394      12.30597912       53       0.48931000      -0.17058300       0.47369900 
I      15.04146635      15.78249121      21.13690608       53      -0.34759300       0.20809100       0.04731300 
I      14.36492243      15.60872507      28.63692371       53       0.35499000      -0.27037600      -0.07710700 
I       2.05541264       8.71194528       5.22234135       53      -0.03908900      -0.05543200       0.23693500 
I       2.11632554       8.56544315      13.56023546       53       0.13413000      -0.44126600      -0.09451000 
I       1.33448746       8.60860678      21.99202299       53       0.54270200      -0.39514000       0.02011200 
I       2.08638097       7.66205793      29.40851001       53      -1.03476700       0.22630400       0.16883500 
I       2.36167231      24.33965843       5.44912206       53      -0.17737800      -0.40718400       0.11490000 
I       2.66147541      23.64090672      12.42810781       53       0.19201900      -0.19933200       0.27927500 
I       1.28090346      23.50639494      21.14617447       53       0.18575400      -0.11366500       0.44199100 
I       1.09276324      23.36098018      29.88702744       53       0.57308200      -0.25015800      -0.36639600 
I      10.91535935       9.11873366       4.90736353       53       0.16636800      -0.32461200       0.33005100 
I      10.40666615       7.73831517      12.91927387       53       0.20738700      -0.04917300       0.42882900 
I      10.59641167       7.72153615      21.63986056       53       0.21556700      -0.33731200      -0.06476600 
I      10.70612496       7.43908049      29.66728181       53       0.03023800      -0.10319800       0.02943800 
I      10.93266943      23.27055785       4.25375029       53      -0.40493800       0.39791200       0.79613000 
I      11.28418872      23.91927642      12.65439280       53      -0.00100600      -0.02950100      -0.05823900 
I       9.83462381      23.31551863      20.49194132       53       1.21132200      -0.36026900       0.66303600 
I      10.27938936      22.79077233      28.40980274       53      -0.37583000       0.25505100       0.23772200 
I       6.59464243       6.36561428       1.34194155       53       0.35912300      -0.09495400      -0.42617300 
I       6.66401702       5.55535012       9.55092428       53      -0.43678900       0.40512500      -0.07067400 
I       6.02046069       5.90571238      17.85321284       53       0.73200000      -0.37599400      -0.03156700 
I       6.16452558       4.91316990      25.20450008       53      -0.02701300       0.28028100       0.13735300 
I       6.37754708      21.64558313       1.13015887       53       0.14172900      -0.01193500      -0.51557000 
I       7.09283044      20.50825186       8.79217137       53      -0.43039200       0.10442600      -0.09027500 
I       5.89437324      20.54798680      18.07225980       53      -0.24970800       0.20368100      -0.18256300 
I       6.44967190      20.53960789      26.27947972       53      -0.71812600       0.16182600      -0.38952600 
I      15.57814241       6.50973268       1.38767469       53       0.49553400      -0.13924500       0.00550900 
I      15.58996213       5.84392312       9.19522714       53      -0.52551200       0.29884300      -0.08300700 
I      15.49908447       6.25533156      17.32741350       53      -0.61613500      -0.36900400       0.18332800 
I      15.56346545       6.25828270      25.71512671       53       0.15030300      -0.25309000      -0.30646100 
I      15.06481098      20.89704765      -0.33129038       53      -0.27944700       0.52930400       0.04495900 
I      15.51682970      21.18216470       8.54505068       53       0.53541700      -0.27786900       0.33864200 
I      15.16894002      20.99974504      17.08949053       53      -0.19343100       0.24358600       0.06882000 
I      14.76293410      20.68934992      24.13187388       53      -0.44598900      -0.10246800       0.42239900 
I       1.48096637      13.77338316       0.90962674       53      -0.34728200       0.42202700      -0.32978700 
I       2.44487175      13.05900644       8.87406435       53      -0.08209900       0.21617500      -0.07214300 
I       1.78297046      13.34764406      17.61137149       53      -0.15626100      -0.06231000      -0.21274900 
I       1.78130660      13.10516463      25.14325703       53       0.56010100      -0.29235700       0.67997500 
I       2.26961136      29.40434125       1.08475285       53      -0.23666800      -0.39083100       0.16416600 
I       2.78394233      28.77288935       9.50599986       53      -0.22139400      -0.11371000      -0.07297700 
I       2.32207468      29.02362148      17.44590349       53       0.09322500      -0.04314900      -0.23586800 
I       2.27060484      28.57153007      25.50277460       53      -0.20109500      -0.31547700      -0.05654800 
I      10.53054452      14.77149979       0.65228659       53       0.26940200      -1.14229000       0.02331400 
I      11.50267534      13.32104136       8.60580406       53      -0.37514300       0.27238900      -0.01183700 
I      10.31756543      12.72353518      16.98943029       53       0.47973400      -0.25131600       0.60867400 
I      10.98124972      13.12219201      26.06456416       53      -0.32476600       0.38025600      -0.42407500 
I      10.84205326      28.80489659       1.63771724       53      -0.04522000       0.16175800      -0.46358100 
I      10.73257824      28.44295692       8.55316506       53       0.34888600       0.29688700       0.29802900 
I      10.92571208      28.32277076      17.49472206       53       0.01506300       0.14205800       0.02918000 
I      11.01189194      28.29031726      24.04411798       53       0.45564000      -0.15446200       1.09820500 
I       4.51199405       5.06631438       5.01284749       53      -0.15071000      -1.02154900      -0.27504600 
I       4.48246040       4.46398016      13.41206138       53      -0.38266800       0.41973800       0.53019600 
I       3.65743548       4.25541819      21.69113656       53       0.07642800       0.65243900      -0.00040900 