320
Lattice="17.5136206983 0.0123104392986 -0.250460470477 0.046718693671 29.5610369763 -1.1281416342 -0.399627073856 -1.22114417907 31.2467346078" Properties=species:S:1:pos:R:3:Z:I:1:forces:R:3 energy=-101585.84027 stress="-2361.760807 -107.064354 978.699422 -107.064354 1390.377553 926.36978 978.699422 926.36978 -879.318874" pbc="T T T"
Cs       4.37472245       2.67336853       1.87195972       55       0.00999400      -0.06312100       0.00976600 
Cs       4.92231029       1.92580006       9.01625740       55      -0.19878800       0.02454700       0.06134100 
Cs       3.77433007       1.53059176      16.64496374       55       1.06406600       0.82574000       1.31428600 
Cs       4.72410519       1.33598559      25.40578099       55      -0.02535700       0.09798200      -0.12687900 
Cs       4.63739955      16.44980253       1.47083073       55      -0.18964300       0.42818800      -0.52256600 
Cs       3.78520113      16.96185348       8.79940293       55       0.05554100       0.09013100      -0.03550900 
Cs       4.44616072      15.53159307      16.06931829       55      -0.65289600       0.66820000      -0.06060800 
Cs       3.25666818      16.73806498      24.97219321       55      -0.00062800      -0.07010600       0.03649500 
Cs      13.52535008       1.84121294       2.66506646       55      -0.37526900       0.33856000      -0.28529600 
Cs      12.62822218       1.92509845       9.76609390       55       0.05472300       0.05478700       0.03845400 
Cs      13.09865920       2.37105921      18.05647804       55       0.00446300      -0.21104800      -0.01054100 
Cs      12.53341772       1.68666015      26.03717519       55       0.05952300       0.00317400      -0.11647100 
Cs      13.07270741      17.13931709       0.75249734       55       0.05154400      -0.19246800      -0.00786400 
Cs      12.63902582      16.68064720       8.32390512       55       0.13821700       0.31202100      -0.07891600 
Cs      13.00010533      16.86308561      16.11318755       55      -0.07323600      -0.12115400      -0.07798000 
Cs      12.89725091      17.21889913      23.72451191       55       0.05515200      -0.28994700       0.12059700 
Cs      -0.14140686       9.42109086       1.48965501       55      -0.20378900       0.06600000       0.00109000 
Cs       0.04826849      10.34358816       8.95407884       55      -0.04112300      -0.05856500      -0.14047800 
Cs       0.14519830      10.08519792      16.28464349       55      -0.24261800      -0.64643200      -0.13640900 
Cs       0.05920112       8.35418286      24.92959330       55      -0.11519700       0.28697900       0.02005900 
Cs       0.32011149      24.46684176       1.32167096       55       0.16934000      -0.46102300       0.01074700 
Cs      -0.42933512      24.80795760       8.78122846       55       0.24809300      -0.24124800       0.01018600 
Cs       1.09389657      24.55832382      16.89722514       55      -0.13419000      -0.33648800      -0.01205500 
Cs      -0.99902371      24.04637449      24.72567466       55       0.07780100       0.00060900      -0.27529100 
Cs       9.26506938      10.24145490       1.21655048       55       0.01278400      -0.37835600       0.15161000 
Cs       8.53351581       9.30243065       9.10207869       55       0.02595400      -0.03404500      -0.05384900 
Cs       8.36703759       8.68770215      16.53176691       55      -0.01878100       0.06875600       0.13536500 
Cs       8.70383823       9.37203867      23.64086678       55       0.09467400      -0.01269400       0.17381200 
Cs       8.42293292      25.41504265       0.13259666       55       0.04965700      -0.30065000       0.22884100 
Cs       9.01432455      24.19689253       9.00402807       55      -0.02175700      -0.06324600       0.00088600 
Cs       8.98346930      24.11775511      16.25313060       55      -0.90625200       0.05653000      -0.11329500 
Cs       7.79432367      23.39439221      25.10721424       55       0.17529100       0.09803200      -0.02480200 
Cs       0.61940916       3.63562509       5.58823490       55      -0.08750700       0.22357800      -0.04372000 
Cs      -0.34983224       4.93509857      12.87897971       55      -0.14842200      -0.56686900       0.15580100 
Cs       0.07952341       4.76480840      20.96575204       55      -0.22601100      -0.27171400      -0.07332200 
Cs       0.41359285       4.18624609      28.63909471       55      -0.18775900      -0.07004000       0.15882600 
Cs       0.06278734      19.25344205       4.32657122       55      -0.36984500       0.28603900       0.23612900 
Cs       0.07783192      19.57579908      12.58883229       55      -0.08783500      -0.14921200      -0.01468000 
Cs      -0.50820187      18.31250547      20.05552609       55       0.20220500       0.27858600      -0.05572700 
Cs      -0.35625911      18.48844763      28.42349786       55      -0.26619500      -0.05632500       0.09090100 
Cs       8.93096671       4.74105818       5.96455148       55       0.06030300       0.23960000      -0.17117100 
Cs       8.61215682       4.53355037      13.23166823       55      -0.00338100      -0.03581300      -0.04232600 
Cs       8.38559803       4.13695058      20.85498642       55      -0.29164200       0.17676500       0.16558100 
Cs       8.25855856       4.51273461      29.56627854       55       0.09901900      -0.00668600       0.00113200 
Cs       8.32714836      19.78173168       5.40835767       55      -0.01794000      -0.11797500      -0.15932300 
Cs       7.65418029      19.16610418      12.52133888       55       0.83603200      -0.64057000       0.30049200 
Cs       9.27298938      19.19189767      19.13046078       55      -0.09418300       0.07094600      -0.05729000 
Cs       7.14867640      18.82229134      27.73670863       55       0.22735300      -0.24252500       0.40339400 
Cs       5.02655132      12.28828676       4.80779819       55      -0.56023800      -0.07516000      -0.06971300 
Cs       5.12412411      11.58465985      12.76710012       55      -0.03470100      -0.06798000      -0.12152800 
Cs       3.87639786      12.00814170      20.66216066       55      -0.25551800      -0.12176800      -0.04099000 
Cs       3.71027924      11.43725900      28.32288801       55       0.10055000       0.04436600       0.16181600 
Cs       4.65265617      26.88573364       5.42942359       55      -0.15276600      -0.23370300      -0.30328100 
Cs       3.41043923      26.64207137      13.09405475       55       0.29423200      -0.27372400       0.13462800 
Cs       4.18117260      25.76192577      21.15548896       55      -0.23190300       0.28432700      -0.12828600 
Cs       3.64718506      25.84527970      28.25949775       55       0.37191600      -0.02004600       0.01389900 
Cs      12.86006748      12.34242416       4.96043279       55       0.08527600      -0.06319400      -0.06100300 
Cs      13.21987960      11.73439517      12.09033083       55      -0.03265700       0.13775800       0.16527400 
Cs      12.04015490      12.27968372      20.57364237       55      -0.04265300      -0.14292200      -0.09451800 
Cs      12.84440143      11.06376254      28.71601786       55       0.14617900      -0.22079400       0.07043900 
Cs      13.30617971      26.43601466       5.49788831       55       0.02238000       0.01994000      -0.27008400 
Cs      12.57435057      26.69074929      12.46847180       55       0.00914800      -0.10891400       0.17002800 
Cs      12.83501078      26.40754861      19.49056898       55       0.16709800      -0.07413300       0.17065400 
Cs      12.87241505      26.17076564      27.01944525       55       0.02222400      -0.25958600       0.32884600 
Pb       0.43791862      -0.59522704       3.46160407       82      -0.30879600       0.16543500       0.29158000 
Pb       0.11040406      -0.55588014      11.82610296       82      -0.35412300       0.14262800       0.10218400 
Pb       0.03503560      -1.03752828      20.14206268       82       0.66616600       0.53136600      -0.03670700 
Pb       0.11628079      -0.68734133      27.67537337       82       0.33234100      -0.22989700       0.20572600 
Pb       0.21762449      14.43980524       3.14845592       82      -0.55532900       0.44838900      -0.54273200 
Pb      -0.26404124      14.71186419      10.85320497       82       0.42512400      -0.65515200      -0.00312800 
Pb      -0.72792532      13.82346538      18.84597511       82       0.11545600       0.32074500      -0.59666000 
Pb      -0.97680766      13.49562054      26.52220240       82       0.63120100      -0.68321400       0.10949100 
Pb       9.52686702      -0.22518098       3.99743846       82      -0.22662000       0.41497700      -0.23199200 
Pb       8.96365123      -0.81683937      11.90228247       82      -0.86987000       0.27193000       0.56572400 
Pb       8.33034275      -0.81565406      19.58406500       82       0.47709300       0.52580200      -0.16867600 
Pb       8.35462748      -0.80988189      27.48463876       82       0.35725700      -0.09549400      -0.12444800 
Pb       8.81373318      14.46391994       2.75597786       82       0.49942800       0.51441900      -0.12723500 
Pb       8.68684029      14.31375076      10.37899606       82       0.42124800      -0.12962600       0.56267700 
Pb       8.22690300      14.23453321      18.46670550       82       1.07287000      -0.12209900      -0.20034500 
Pb       7.62268108      13.78315793      26.18363405       82       0.48021100      -0.13119200       0.69154600 
Pb       3.72793189       6.86721313       4.14906754       82       0.49398800       0.30730900      -0.69157800 
Pb       4.50093035       6.62089099      11.12473722       82      -0.14932200       0.14389800       1.07411300 
Pb       4.31082406       6.15981725      19.47298864       82      -0.04549300       1.03821000      -0.69386800 
Pb       4.24286258       6.76904622      27.49383494       82       0.19562800      -0.00359900      -0.03991700 
Pb       4.51809832      22.25645831       4.04737792       82      -0.14900700      -0.26989000      -0.52564600 
Pb       4.97761542      21.64959020      11.55319875       82      -1.07698800       0.47807900      -0.67627800 
Pb       4.32259607      20.87678620      19.17799346       82       0.01639600       0.41979200      -0.46094000 
Pb       3.21999582      21.30872158      26.69348538       82       0.56180300      -0.29028900       0.60786100 
Pb      13.11579101       7.07834039       3.83033876       82      -0.17688300       0.84906000       0.14561200 
Pb      12.96324046       6.44948195      11.29357043       82      -0.05466700       0.64675100      -0.73047000 
Pb      12.93739811       7.07229754      18.87728279       82      -0.26470500       0.07142900       1.01400800 
Pb      12.75825767       6.66789306      27.04733869       82       0.22259200       0.18611000       0.45368700 
Pb      12.92218644      21.94113302       2.50763394       82       0.45210400       0.28379500       0.47261100 
Pb      13.20785938      21.32066167      10.02511637       82       0.04957600       0.21377700       0.00284500 
Pb      13.27208024      21.62844904      17.74419274       82      -0.09695400       0.24968700       0.45215100 
Pb      12.77200260      20.94683981      26.09803457       82       0.17565100       0.14116200       0.60789700 
Pb       3.56866912       6.94970812       7.82724075       82       0.63198200      -0.03335400      -0.28578400 
Pb       4.04889840       6.57578366      15.39212883       82       0.24799400      -0.31460800       0.25259600 
Pb       4.42122812       6.49368442      23.45011947       82      -0.16813000       0.69288300      -0.25060700 
Pb       4.03616094       6.14965953      31.25736626       82      -0.21757000       0.32953700       0.63094000 
Pb       4.38538342      22.23514224       7.66939196       82       0.67197000       0.39044500      -0.60745700 
Pb       4.02130203      20.84941555      15.37122316       82      -0.99586400       0.07558000       0.12872600 
Pb       3.34643531      21.52689622      22.90443614       82       0.13350300      -0.74513800      -0.58638400 
Pb       4.04960686      20.77628580      31.15735542       82      -0.11864900      -0.04749400      -0.02898000 
Pb      13.06850751       6.93379288       8.03907158       82       0.14382800       0.26911300      -1.05825200 
Pb      13.12468037       7.29284476      15.07322024       82       0.17015800      -0.21873100      -0.41536800 
Pb      12.78120172       6.31985883      23.31227343       82      -0.00082700       0.45405600      -0.04841300 
Pb      12.88667886       6.44485308      31.20574802       82      -0.17444700       0.63975000       0.34814100 
Pb      13.28134776      22.07798039       6.16064590       82       0.43569000      -0.59058100       0.28176600 
Pb      13.57469249      21.47116896      14.13804802       82      -0.53405000       0.60378300      -0.09744100 
Pb      12.59740406      21.43251977      21.80600841       82       0.17021200       0.48571000       0.09135000 
Pb      12.97591245      20.84914292      30.10291519       82       0.30315600      -0.14573800      -0.35469300 
Pb       8.15819301      14.60183341       6.67806935       82      -0.06022300       0.22222900      -0.78500800 
Pb       8.81553802      14.27199318      14.46808075       82       1.50561700       0.72068900      -0.43742400 
Pb       7.55024023      14.17497640      22.52408773       82       0.05538500       0.57372800      -0.43345000 
Pb       8.03770451      12.94210027      30.01498320       82       0.78339900       0.38890200      -0.01157800 
Pb       9.17262871      29.10853110       6.58137211       82       0.07513200      -0.70225100      -0.58592300 
Pb       8.50938352      29.27221558      14.69077775       82      -0.17135000      -0.30287900       0.00768700 
Pb       8.45543569      28.56356990      22.51869959       82       0.50716300       0.34046800      -0.05185400 
Pb       8.89361326      28.57167458      30.20211595       82       0.03441000       0.35670800       0.62585400 
Pb      17.07364024      14.88240648       6.63119236       82       0.09940800      -0.20430900      -0.38828200 
Pb      17.58766216      14.00152995      14.40077788       82       0.09011700       0.15441200       0.52419200 
Pb      16.30503321      13.73005047      22.30439163       82      -0.10025500       0.45521000       0.65871100 
Pb      17.38933295      13.10012496      30.10300900       82      -0.17805000       0.17681900       0.14797200 
Pb      17.71240527      29.32537483       5.96854324       82      -0.48187400      -0.46657300       0.10054400 
Pb      17.07813818      28.90283498      14.34263700       82      -0.25641900       0.41100500       0.57235300 
Pb      17.48032740      28.68524469      22.80518456       82       0.68620800      -0.11416000      -0.85195800 
Pb      17.38999059      27.78370875      29.65954590       82       0.27657100       0.46383300      -0.09037000 
I       3.12326633       0.60280991       5.38470615       53      -0.73941200      -0.15911200       0.09373400 
I       2.00058026       0.44453897      14.38926970       53      -0.97982200      -0.41718000      -1.74706000 
I       2.49956737      -0.05041339      22.03039006       53      -0.26877000      -0.11912000       0.18213200 
I       2.19938047       0.01083979      29.85089515       53       0.33826200       0.00119900       0.08532100 
I       1.85867797      16.24101755       5.03810054       53       0.12638100      -0.30161200       0.33201900 
I       1.80320184      15.95328571      12.95990145       53       0.16833000      -0.06440500      -0.28553000 
I       1.13592678      15.01564026      20.87594095       53       0.02758600      -0.02541800      -0.04782300 
I       2.06012729      14.84436314      28.60428386       53      -0.56578600      -0.22251600      -0.01287500 
I      11.33918687       1.21365121       6.08540740       53       0.31831700      -0.04585300       0.11442800 
I      10.73926354       0.98005774      13.93174018       53      -0.20682500      -0.22579700      -0.29906800 
I      11.18585653       0.07203141      20.68001070       53      -0.22654500       0.33704000       0.32421700 
I      11.10150491      -0.23398532      28.83329145       53      -0.43941900       0.09662500       0.37199300 
I      10.41492871      16.05566717       4.73274145       53       0.13795400       0.29520400       0.55752700 
I      10.88550839      15.45307126      12.25490259       53       0.41916000       0.32767400      -0.04666300 
I       9.55267028      16.10032305      21.16027222       53       0.16494100      -0.08519800      -0.64593500 
I      10.73393892      13.84044964      28.35933465       53      -0.76332600       0.29870400       0.04497400 
I       5.76862808       8.56903804       5.97704661       53      -0.11031700      -0.27840000       0.01650900 
I       6.70109451       7.91342653      13.17658883       53      -0.28146300       0.02786500      -0.00239800 
I       6.48057856       7.76844419      21.12340345       53      -0.25060500      -0.21047200       0.27576600 
I       6.13995912       8.28788551      29.78710425       53      -0.32075500      -0.50334100       0.04607600 
I       6.86067388      23.66812799       5.78637454       53      -0.18125800      -0.15152700      -0.12436500 
I       6.41367634      22.09377348      14.08195529       53       0.95859800       0.61426800       0.08488700 
I       5.90855159      22.54733079      21.44657642       53       0.06982700      -0.20122200      -0.09563500 
I       5.82366545      22.21200275      28.77286007       53      -0.01728200       0.10004000       0.06406400 
I      15.25774003       8.53797758       6.21652658       53      -0.48433600      -0.33115400       0.07862200 
I      15.32609824       8.01476144      12.37969651       53      -0.00996500       0.33884000       0.39229700 
I      14.75883793       7.99446358      21.74907727       53      -0.13629800      -0.26355500      -0.42248700 
I      15.08763747       7.78692059      28.90863744       53      -0.15176100      -0.02284200       0.25406400 
I      15.58793204      23.55143679       4.06532177       53      -0.52805400      -0.46112600       0.30517600 
I      15.17887914      22.75995704      11.80438331       53       0.52907000       0.03305500       0.19339600 
I      15.35213407      23.15041626      20.01441149       53      -0.88168400      -0.58483300      -0.21740200 
I      15.23771773      22.13421188      28.03622129       53      -0.60478200      -0.06682700       0.10682400 
I       1.87790582       5.82921580       1.61762280       53       0.30292500      -0.12735100      -0.05428500 
I       1.95059585       5.14503661       9.92737160       53       0.25250800       0.05159700      -0.37722400 
I       1.99049582       5.31415906      17.59921235       53      -0.01951900      -0.04348400      -0.30607700 
I       2.27239589       5.45065856      25.46483944       53      -0.19158500      -0.24254900       0.07784200 
I       2.50892186      20.66051021       2.06529850       53       0.03053900       0.47825900      -0.26525900 
I       2.64398100      20.78488102       9.23998141       53      -0.90834200      -0.62195600       0.79422700 
I       1.51147726      19.93567862      16.94469723       53       0.60000200       0.26159800       0.03195000 
I       0.97001825      20.30827706      24.99478156       53       0.21920200      -0.08803300      -0.20034700 
I      10.67422283       6.68706424       1.89176801       53       0.35232800      -0.00027100      -0.32648700 
I      10.55579129       5.36450405       9.47051926       53      -0.05599900      -0.05561800      -0.04424300 
I      11.25948758       5.69668559      16.77412661       53      -0.60381200      -0.10570500      -0.07576200 
I      10.19148124       6.16649819      25.67548983       53      -0.20166300      -0.36935500      -0.44325500 
I      11.08090413      20.36979799       0.99474467       53      -0.10705800      -0.10914300      -0.19949500 
I      10.75618820      20.73059802       8.10143483       53       0.27974900       0.03781100       0.13296900 
I      10.78182729      20.70968650      15.60616220       53       0.26133000      -0.31731000       0.48908600 
I      10.71967413      20.19644632      24.02378418       53      -0.47553500      -0.68321900      -0.51075400 
I       6.77400440      13.00886471       1.25105450       53      -0.82817200      -0.46887400      -0.53242400 
I       6.38873397      12.91816830       9.13540424       53      -0.32216100      -0.36654200      -0.46419000 
I       6.71077537      13.09871587      15.87245778       53      -0.76158400      -1.28912800       1.00199700 
I       5.26319455      13.12346378      24.40830903       53      -0.26375200      -0.21893500       0.06665300 
I       6.93881360      28.76870806       1.16534265       53       0.30902700       0.03151100      -0.28384700 
I       6.89518962      27.54610692       7.99214279       53       0.22274700      -0.08336500       0.36721600 
I       6.47805452      27.37278555      16.42813467       53       0.06867300       0.10776000      -0.11160100 
I       6.28312294      27.21370356      24.29638839       53       0.18158300       0.13787300      -0.01574500 
I      15.53445326      12.79713454       0.60193338       53       0.71673000       0.48496400      -0.16477500 
I      14.93283159      13.42519560       8.30747883       53       0.05330500      -0.01058100       0.34579700 
I      14.93958093      12.69776766      15.47839180       53       0.25644500      -0.05791400       0.46812000 
I      14.15593421      12.80505844      24.66912266       53      -0.17915100      -0.00312100      -0.40587500 
I      15.95921618      27.29528391       0.04423960       53      -0.17626900       0.25877900       0.30245700 
I      15.39706942      28.23867026       7.95541766       53       0.42487300      -0.04875700       0.03229100 
I      15.97101653      26.99785948      16.70282906       53      -0.58337100      -0.04465900      -0.13216900 
I      15.30483102      27.69625656      24.77560239       53      -0.54532700      -0.01294500      -0.23269100 
I       7.39047129       1.49166897       6.08274460       53      -0.26749100      -0.47302900      -0.26638200 
I       6.25618909       0.16244445      13.49200206       53       0.03643500       0.19873500      -0.09377000 
I       6.60772161       0.90453098      21.57946819       53       0.12882100      -0.42136100       0.35575900 
I       6.37881370      -0.06317235      29.68687453       53       0.02780900       0.29440700      -0.22491600 
I       6.24373990      16.28638677       4.42413130       53       0.46686700      -0.43674100       0.56125300 
I       6.65274589      15.35537144      12.53561637       53      -0.23925200       0.10488700      -0.02985700 
I       5.85294159      15.29196262      19.48507237       53      -1.04991200       0.52127400       0.45332700 
I       5.77352177      14.65647014      28.92306835       53       0.36426700      -0.16227700      -0.48195200 
I      15.31748934       0.21721896       5.14288878       53       0.38874600       0.25545100       0.46482800 
I      15.25450558       1.18555550      13.50623558       53       0.27833200      -0.30010500       0.08252100 
I      15.82902630       0.61237058      21.85814749       53      -0.54177600       0.37105600      -0.27487900 
I      15.80863951       1.00684404      29.12282521       53      -0.23564100      -0.22027900      -0.00357300 
I      14.77422940      15.68241500       4.15753867       53       0.46659600      -0.17881000       0.33703100 
I      15.43968398      15.38733481      12.91320035       53      -0.68700500       0.49250300      -0.12706400 
I      14.26067555      15.35009764      19.92371215       53       0.42798400      -0.40216700      -0.12462500 
I      15.01899783      14.51787950      28.53156843       53      -0.14127900       0.10448700       0.73002900 
I       1.63111855       8.21377662       6.03635717       53      -0.46663700       0.01267600      -0.00123500 
I       2.17994056       7.27793797      13.17069354       53      -0.28165200       0.75134300       0.09286600 
I       2.03845846       7.59633060      21.80975001       53      -0.11279100       0.53057600      -0.29626300 
I       1.81624907       7.55318250      29.52381739       53       0.24530000      -0.04792200      -0.04381900 
I       2.26529477      23.71427015       5.68648780       53       0.34437300      -0.20458300       0.06076500 
I       1.90908549      22.53333571      13.39729240       53       0.49041700       0.23394200       0.04250900 
I       1.84316631      22.24275540      20.14349717       53      -0.27491200       0.50436400       0.46693400 
I       1.59887571      22.43353008      28.89879925       53       0.01176400       0.00505100       0.42303000 
I      10.89302091       8.11567714       5.60841452       53      -0.31611600       0.28897500       0.76641300 
I      10.79452371       8.10241786      12.89701150       53       0.31816500       0.03931700       0.37670100 
I      10.05771490       8.34200630      19.88233176       53       0.48265800       0.05870800       0.01541700 
I      10.59786058       7.65732483      29.31740011       53       0.33780000       0.01828400      -0.06346200 
I      10.73734046      23.16494782       4.94099973       53       0.20163700      -0.04539100      -0.50666900 
I      11.23230064      22.70079305      12.33467322       53      -0.02034000       0.15578900      -0.43618200 
I      10.36239094      22.82273168      19.98887109       53       0.43234500      -0.42992200       0.12277400 
I      10.18863668      21.13825747      28.88768389       53       0.00358600       0.23933900      -0.45441600 
I       6.27486485       5.84770589       2.50856617       53      -0.17276500       0.22443700      -0.29367600 
I       6.36098027       5.57159558       9.15222043       53       0.50629400      -0.23327900      -0.26241600 
I       6.15865832       5.04310660      17.30073843       53       0.12926900       0.17550700       0.25513300 
I       6.34011369       5.52119294      25.44003387       53       0.44591300      -0.31089900       0.50794900 
I       6.38344061      20.24541545       1.58708513       53      -0.03079100       0.42160600      -0.07090300 
I       6.90002566      20.59407605       9.39182840       53      -0.11129500       0.26087700      -0.23004700 
I       5.61596905      18.88049574      17.03872972       53       0.34484100      -0.02225000       0.06999500 
I       5.83058776      20.34174918      24.91088335       53      -0.39227100      -0.26838200      -0.37261500 
I      15.34250011       6.21094007       2.11113871       53       0.41300200      -0.29689500      -0.50948800 
I      15.16130858       4.58125308       9.57259584       53      -0.46245100       0.48175800      -0.08336900 
I      15.16839211       5.57610524      17.38496889       53       0.11734400       0.07110400      -0.24746500 
I      15.18351193       5.32344417      24.81039858       53      -0.16289400      -0.26061200       0.25251800 
I      15.78566126      20.67633750       0.46098970       53      -0.45363900       0.20875500       0.17446900 
I      15.77292185      20.51186053       7.91504180       53      -0.42313100       0.40604000       0.33213200 
I      15.51694132      20.03183060      16.12748849       53      -0.42337700       0.10913200       0.11982400 
I      14.97045768      20.79317625      24.06071648       53      -0.35630700      -0.38406500      -0.40732900 
I       2.65246580      13.51280121       1.58058301       53      -0.13364300      -0.34235900      -0.23536700 
I       2.07867992      13.65017919       8.78676220       53      -0.34688600       0.04357400      -0.15385800 
I       2.17170885      12.68434910      17.03365916       53       0.03626000       0.18576300       0.22991400 
I       1.09930132      12.75511508      24.09955035       53       0.37497900      -0.61684800       0.01655000 
I       2.79821132      28.18543284       0.58590968       53      -0.23432900      -0.04616500      -0.27251600 
I       2.50604408      27.47920469       9.64693045       53      -0.30663400       0.26794000      -0.34244900 
I       2.62109265      27.96833407      16.83314109       53      -0.42787900      -0.28394400      -0.00083100 
I       2.10280733      26.96028420      24.36335609       53       0.12638800       0.13394900       0.31967300 
I      11.28818914      13.11105270       1.11928355       53      -0.71622600       0.92725000       0.01813100 
I      10.73573106      13.71235678       7.87353242       53       0.08793300      -0.38759700       0.55298700 
I      10.92402469      13.02020091      16.87255443       53      -0.19376700       0.10413800      -0.03336800 
I      10.09745657      13.44746345      23.81648549       53      -0.01497000      -0.61454700       0.38653800 
I      11.59534525      28.14881324       0.89205539       53      -0.18557900       0.23642400      -0.23925200 
I      11.26294775      27.98521085       9.01114483       53       0.47413000      -0.38696800      -0.33178700 
I      10.75452504      27.74968062      16.19940460       53      -0.12286000       0.08787100      -0.09169000 
I      11.21940487      27.08540744      24.05052846       53      -0.85733900       0.77180200      -0.28379800 
I       4.44448486       4.29784425       5.84352456       53      -0.31810500       0.12385500       0.21934200 
I       4.87873224       4.13663007      13.79791814       53      -0.05089300      -0.26061000      -0.67080100 
I       3.91210185       4.19504065      21.53667676       53       0.11207500      -1.15806200       0.40900800 