96
Lattice="12.686155534944167 0.06405788692239978 -0.03935665879411262 -0.11566153462145133 12.588013699281365 -0.04766822981590608 -0.11973003896855808 0.07088478718052046 12.590094743313381" Properties=species:S:1:pos:R:3:forces:R:3 energy=-418.8434690730031 stress="0.005139206933522637 -9.474585057500229e-05 0.0012545048385767905 -9.474585057500229e-05 0.0020255553419600675 7.564078430102396e-05 0.0012545048385767905 7.564078430102396e-05 0.0044743706362288605" free_energy=-418.8434690730031 pbc="T T T"
I        4.36419687       0.25053275       1.89536080      -0.00001276      -0.00001013      -0.00000912
I        5.60823876      13.58456668       8.17453525       0.00000289       0.00000395       0.00000348
I        5.35071756      10.07020737       5.59954387       0.00000296      -0.00001129       0.00001792
I        4.62164396       3.76484535       4.47028873       0.00001620       0.00000653       0.00001157
I       -2.15445514      12.84189650       8.16240645      -0.00000451       0.00000138      -0.00000682
I       12.12682675       0.99314932       1.90747202      -0.00000328      -0.00000002       0.00000709
I       11.92146974       3.80879083       5.45725489      -0.00000517       0.00001618      -0.00000283
I       -1.94911268      10.02624305       4.61259969       0.00000298      -0.00000929       0.00001397
I        8.05546094      12.94284435      11.98978763      -0.00000466       0.00000706       0.00000176
I        1.82627739       7.22948549       5.74069784       0.00000792       0.00000503       0.00000206
I        1.88791322       0.28740334       5.76209390      -0.00000887      -0.00000435      -0.00000148
I        8.08448749      13.54763781       4.30776260      -0.00000483       0.00000677      -0.00000464
H        2.77203979       4.63132671       0.95802935       0.00001860       0.00003023      -0.00001349
H        9.80027399       3.78021548       2.43321608       0.00000349      -0.00001123      -0.00001699
H        6.57499910      10.05149775       1.32173073       0.00000701      -0.00001956      -0.00000325
H        3.39737176       3.78363123       8.74796182       0.00001109      -0.00001484       0.00000308
H        0.78431857       9.16752983       9.07170562      -0.00003402       0.00000075       0.00000847
H        9.19794623       2.86986871       1.00853741       0.00001609      -0.00004199      -0.00002356
H        9.05525849       4.69893220       7.23351856       0.00001292       0.00002484      -0.00001828
H        2.79507728       2.87330498       7.32325559       0.00001927      -0.00002805      -0.00000852
H        1.34335966       3.72358256       0.36067582      -0.00000631       0.00001066      -0.00002057
H        9.18804145       4.66745485       0.99820904       0.00001290       0.00000813      -0.00001383
H        7.17723339      10.96171603       2.74652530      -0.00001185       0.00003666       0.00002536
H        2.78516949       4.67088965       7.31295690      -0.00000302       0.00004249      -0.00003105
H        0.98232162       2.90349719       2.60153158      -0.00002227      -0.00002785      -0.00000847
H        7.64285163      10.08340883       6.88763404      -0.00002145       0.00001246      -0.00001203
H        8.81414415       9.22243666       0.95979252      -0.00002658       0.00002461       0.00001159
H        1.35972134      10.01608214       0.61225245      -0.00003435      -0.00000578      -0.00000020
H        0.97610127       4.58013228       2.58720479      -0.00000142      -0.00001193       0.00001844
H        8.99631912       9.25492384       7.48266817      -0.00000325       0.00000786      -0.00001060
H        9.39925133      10.07228310       2.30314417       0.00001956       0.00001649       0.00002813
H        2.71316925       9.18758166       1.20729840      -0.00000188       0.00001164       0.00000313
H        2.32955724       3.75159306       3.18219837       0.00001338       0.00002747      -0.00000878
H        7.57102649       2.93109455       2.80465466      -0.00000930      -0.00000784       0.00001328
H        8.80429341      10.90050569       0.95051170       0.00001662       0.00001251      -0.00002422
H        2.70685482      10.86422242       1.19310818      -0.00000803      -0.00001240      -0.00000687
C        0.89915406      10.06345584       8.45463212       0.00002017       0.00004657      -0.00001426
C        9.07314562       3.77153911       1.61528611       0.00001724       0.00004354       0.00004293
C        8.44575989       3.79968682       7.36181157      -0.00002941      -0.00004429       0.00002285
C        2.67026097       3.77496535       7.93001683       0.00000270      -0.00001575       0.00004366
Pb       4.98616931       6.91752260       5.03495025       0.00001791      -0.00000367      -0.00000478
Pb       4.92840084      13.21154310       5.01112965      -0.00001639      -0.00000349       0.00000591
Pb      -1.47458228      13.21490719      11.32584182       0.00000348       0.00001894      -0.00001380
Pb      -1.41469682      13.17950376       5.03079173      -0.00001197      -0.00001595       0.00000061
N        1.58188194       3.74283963       2.45963055      -0.00000610      -0.00000651      -0.00001352
N        8.39049977      10.09219162       7.61022763       0.00005092       0.00000542       0.00002260
N        8.67460181      10.06410009       1.55748346      -0.00003358      -0.00004190      -0.00002801
N        2.10732952      10.02482973       1.33488693       0.00002376      -0.00000707       0.00002722
I        5.67923681       6.58835858       8.20187318      -0.00000378      -0.00000106      -0.00000144
I        4.29309116       7.24666884       1.86801441       0.00000333      -0.00000582      -0.00000744
I        5.51850624       3.81220126      11.77198656       0.00000614      -0.00000592      -0.00000530
I        4.45380374      10.02281872      -1.70215332       0.00000988       0.00000950       0.00002125
I       -0.60400688       6.52087605       1.92649070       0.00000267      -0.00000163      -0.00000687
I       10.57637480       7.31413716       8.14336782      -0.00000754       0.00000434       0.00001212
I       11.75369656      10.06677478      -0.71511283      -0.00000636      -0.00000503      -0.00000374
I       -1.78125934       3.76823755      10.78503346      -0.00000906       0.00000391       0.00000510
I        8.14606318       6.60556246       4.32914529      -0.00001333       0.00000653      -0.00000168
I        1.80127074      13.48018439      -1.96760809       0.00000041      -0.00001306       0.00000493
I        1.74312670       6.60890333      10.64391611       0.00000426       0.00001781      -0.00000847
I        8.22922860       7.22607269      -0.57405679       0.00000536       0.00000260       0.00000873
H        0.17198330      10.05477091       7.63674085      -0.00000413      -0.00001011      -0.00000632
H        7.19562740      11.00109743       9.09603778       0.00000861      -0.00001295      -0.00000041
H        7.62662298       3.79117692       6.63607482      -0.00001310       0.00001368      -0.00000798
H        0.91712059       9.13611105       2.83631026       0.00000852       0.00001060       0.00001839
H        2.77661347       2.83384108       0.97376534       0.00001853      -0.00000262      -0.00000065
H        7.20036099       9.20361141       9.11178880      -0.00000482       0.00000271       0.00001068
H        7.18705200       9.16412726       2.75673644      -0.00000068       0.00002213      -0.00001252
H        2.34563977      10.04397718       3.43387087      -0.00000191      -0.00001627      -0.00000397
H        0.77435898      10.96511723       9.06139897      -0.00000925      -0.00001842      -0.00000575
H        8.62893608      10.11148808       9.70919377       0.00001097      -0.00000962       0.00001046
H        9.05990314       2.90144520       7.24911750       0.00001168       0.00000695       0.00001491
H        0.91234483      10.93359594       2.82069306       0.00000263       0.00000640      -0.00001078
H        2.99636216      10.07577514       8.61775944       0.00002298      -0.00001195      -0.00001490
H        6.97593735       3.75929666       1.45206708      -0.00001724      -0.00000948      -0.00002052
H        7.26559524       2.97090242       8.87687459      -0.00002796      -0.00002464       0.00001902
H        1.16812494       2.93450286       9.11935091      -0.00001014      -0.00003837       0.00003053
H        2.40119366      10.90394979       7.26518678       0.00001786       0.00000714      -0.00000314
H        7.56115188       4.60916295       2.79536058      -0.00000681      -0.00000142      -0.00001317
H        7.25929686       4.64753817       8.86266753      -0.00002020       0.00002460      -0.00001299
H        0.57305425       3.76270040       7.76675328      -0.00000334       0.00000301      -0.00000749
H        2.41112378       9.22587834       7.27449292       0.00001859       0.00001859       0.00001486
H        8.99003441      10.93155956       7.46835527      -0.00002451      -0.00000441       0.00000228
H        8.61278922       3.81902986       9.45761004      -0.00003261      -0.00000929      -0.00002379
H        1.15823357       4.61256850       9.11006269      -0.00000591      -0.00000114      -0.00001253
C        2.16250792       3.73211526       1.08639936      -0.00002117      -0.00000456       0.00002948
C        7.80981907      10.10287691       8.98343599      -0.00002138       0.00000035      -0.00000676
C        7.30205074      10.06007936       2.13972966       0.00003206      -0.00004810       0.00001084
C        1.52656661      10.03540037       2.70806214       0.00000954      -0.00001400      -0.00001229
Pb       4.86848248      13.24695308      11.30615807       0.00000632       0.00000399      -0.00001973
Pb       4.92628980       6.95295487      11.32999333       0.00001962       0.00000953      -0.00001045
Pb      -1.35690744       6.88549639       5.05459546      -0.00001216      -0.00000456       0.00000679
Pb      -1.41675961       6.92092091      11.34966035      -0.00001697       0.00000178       0.00000141
N        2.27162070      10.06754458       7.87218961      -0.00000574      -0.00001436       0.00000278
N        7.70065190       3.76749718       2.19766336       0.00000398       0.00000622       0.00003131
N        7.86511603       3.81028475       8.73503778       0.00009058       0.00000236      -0.00001982
N        1.29775469       3.77090730       8.51236426      -0.00000928       0.00003108      -0.00001011
