320
Lattice="25.121854697261806 -0.05977452525107978 -0.12957468506993428 0.07192418218408468 24.82535238426277 -0.21579304325525844 0.12447059888337542 -0.778188195725328 24.81728374174729" Properties=species:S:1:pos:R:3:forces:R:3:momenta:R:3 energy=-980.03037363 stress="0.0010503876402588436 6.836373005200202e-05 -3.052900620630502e-05 6.836373005200202e-05 0.0012376969207114274 -9.733024934675168e-05 -3.052900620630502e-05 -9.733024934675168e-05 0.001126258557623312" pbc="T T T"
Cs       9.43958321      15.07162618       5.54278859       0.01225139      -0.04556404       0.18343450       0.12862101       1.79928544      -0.53620610
Cs       3.42699072       9.97977936       5.47926256      -0.00823205       0.17592723      -0.02516730      -2.04539453       0.98628107      -2.06662442
Cs       3.11766690      10.62672219      11.64549319       0.02996411      -0.16038044       0.06615553       0.46193864      -0.34948561       2.49429946
Cs       9.55800813      15.41849098      12.40800512       0.10892228       0.00694638      -0.04679812       0.36505537      -0.15081620       0.20266751
Cs       9.69717063       8.33295236      12.33043104      -0.01175596       0.29549516      -0.27259706       2.10293599       0.63707658      -0.39372795
Cs       3.18280803      15.89499739      10.94292209       0.07207687       0.10567707      -0.01338450      -0.39122541      -0.27759483       1.94243322
Cs       3.25689748      16.74195546       5.43131741       0.05087333      -0.08290216       0.06971542       0.61209279      -1.72406629      -1.54741650
Cs       9.52460945       9.28659994       6.54695520       0.08249846      -0.10312638      -0.12367028      -1.13635419       3.12742624      -2.60750768
Pb       0.28643052       6.56579911       9.02808471      -0.19878982       0.03783393       0.14916126       1.56574186       0.59443206      -3.02426163
Pb       6.72490292      12.64260266       8.69689009      -0.37476568      -0.04984712       0.24676325       0.30815844       0.95410307       1.54733023
Pb      -0.07783474      12.54432294       8.64568244       0.19001079       0.18591853      -0.02767647       0.07978765      -0.46077100       1.97562981
Pb       6.30687762       6.32869566       8.82132141       0.02597706       0.04130690       0.15107604      -2.48820693      -0.51254154       2.26521587
Pb       0.16018971       6.68134579       2.74404973       0.04288669      -0.09831551      -0.16233162      -0.54432666       0.48900332      -0.96654179
Pb       6.20945213      12.81113061       2.49296172       0.05466648       0.26549720      -0.11953941       1.12038977       0.34040149      -0.32077750
Pb       0.21751972      13.02852095       2.43866758      -0.18627687      -0.11221498       0.00522019      -1.66130558       1.44709267      -3.46178312
Pb       6.23466742       6.84332261       2.50969126       0.06462522      -0.35140603       0.23811735      -0.86212543      -2.03766331      -0.02523365
I       24.37371421       9.51958173       9.61127924       0.23759219      -0.06240855      -0.26338877       1.71584154      -1.27306871       0.68180945
I        6.27141038      15.70653123       7.87553418      -0.09710916       0.22109252       0.00394895       1.94057304       1.99986029       1.25119959
I       13.27897548      15.66759336       7.83726051       0.07918534       0.05510832      -0.08092905       1.45048913      -2.95752011       0.21776434
I        6.88013179       9.49974622       9.42583841       0.06262359       0.08680067       0.05725977      -2.45045291       0.69933254       0.61845582
I        9.75834267      13.34633552       9.07511238      -0.10269508      -0.00222365       0.00989020       2.25114846       1.18016025       0.38682334
I        3.38222683      19.22884113       8.75679628       0.05207319      -0.16300789       0.02500607      -0.51451898      -2.22898729       0.47421338
I        3.33872700      12.53026035       8.56510074      -0.05674561       0.02927556      -0.24077789      -2.43596971      -0.16444091      -2.44764928
I        9.51212688       5.81666940       8.48978147      -0.16128893       0.03339180       0.01033084      -0.57633790       0.67750488       0.63480132
I       11.96654001      15.98728339       3.06791780       0.26719603       0.08374201      -0.07649641      -1.02894078      -1.41579257      -0.13251170
I        5.71718824       9.81448595       1.83229615      -0.14332774      -0.21406433      -0.08658939       1.67276159      -0.36261917      -0.49442142
I        0.44338464       9.41121022      14.17712124       0.01458021      -0.09264525       0.05567230      -1.38684288      -1.19110534       1.11650248
I        6.73420046      15.65179526      15.38295286       0.18342590      -0.05523336       0.03692410       0.63346582      -0.66095619      -0.74250639
I        3.31879953      12.92547389      15.16251388       0.08416588       0.16374529      -0.16309420       0.89995281       0.75557579       0.04644383
I        9.66241875       6.73970635      15.61302854      -0.10815522      -0.06914438       0.09505617      -1.02910167      -0.88719679      -0.01740180
I        9.42999859      12.68134489       2.10793900      -0.35652421      -0.18671737      -0.07132593       0.30391554      -0.03504896      -0.53855249
I        3.21368180      18.97793942       2.21529163       0.29220425      -0.20299302      -0.12250184      -0.03599900       0.28000684       0.92157318
I       24.60075823      17.77296843      11.60684750       0.03725906       0.01520191       0.30906236       1.57842857       0.81545577      -1.91300993
I        6.19330020      13.64444936      11.82653615      -0.02757166      -0.29102338       0.02714921       1.77809802       0.91435643      -0.90848962
I       12.96692703       7.08598931       5.70410505      -0.02892549       0.09316825      -0.08443448      -0.30343920      -0.20406144      -1.35300926
I        6.85717308      11.95894008       5.56375929       0.03481905      -0.00871725       0.00074187      -0.52391411      -0.37642632       1.10371541
I       24.76511820      12.10001440       5.35802225       0.03324932      -0.05728807       0.12277448       1.89599210       1.63518839       1.26071392
I        6.34839238      19.74563271       5.48701948      -0.11966379      -0.00388766      -0.08354374      -0.20248422      -1.67373981       0.53753321
I       13.36111306      13.53094445      11.87518194      -0.01441408      -0.09112561      -0.30354543      -0.89744281      -0.64913342      -1.30943324
I        6.73427138       5.69785137      11.97268831       0.06716150      -0.04082971       0.03001623       2.10804311      -0.02131887      -0.71445118
Cs       9.45132810      15.05022886      18.20023015       0.00992614       0.03413322       0.03159032       0.24249234      -0.23335048       1.89813425
Cs       3.20464355       9.94908895      17.22675983       0.09210376      -0.37852541       0.16820574       1.01937316       1.22127375       1.91225309
Cs       3.13870686       9.28276804      23.74959329       0.06637708       0.29528445       0.27074287      -2.13956668       1.34779325      -0.58572717
Cs       9.51309942      15.84053370       0.00618733      -0.11298961       0.04508424      -0.13145591       0.48878599      -0.69370122      -0.73182747
Cs       9.75977167       8.78464097      24.52660268       0.04607952      -0.05979498       0.05107788       0.00334435      -0.06125360      -1.04597846
Cs       3.48526196      15.88438863      23.68245956      -0.08177323       0.02499183       0.05723871      -0.76238869      -0.34250754      -0.47429852
Cs       3.55556766      16.11226928      17.38708115      -0.13737788      -0.00832877       0.16130128       0.57270759       1.37673668       1.01583655
Cs       9.54669471       9.18990643      18.71696460       0.11677361       0.28794519      -0.15752235       3.24153561      -2.09722629       2.55212356
Pb      -0.07797324       6.07476765      21.14152179       0.12540688       0.21894944       0.02056193      -0.08290458       1.21832704      -1.95707837
Pb       6.35581935      12.41118486      21.16794170       0.35139036      -0.02037107       0.37867471       0.25313596      -2.07978443       0.84336531
Pb       0.26277567      12.38171515      21.02148308       0.07641636      -0.11824375       0.07112666      -3.64750933      -1.67247483       1.15839537
Pb       6.44870635       6.22704340      21.15322668       0.04353600       0.30690516       0.02856492      -2.79024405       3.87617339      -0.65718447
Pb      -0.07409000       6.15459929      15.05072187       0.18354664      -0.09241978      -0.13559770      -2.32822600      -1.74812122      -0.96729777
Pb       6.54091015      12.28098718      14.88709439       0.14125071       0.22565577      -0.22743842       0.80150981       0.84748715       1.82644373
Pb       0.21237479      12.56269283      14.72430850      -0.38972767      -0.08497510       0.12793005       1.09073907      -0.16530545       1.00739653
Pb       6.36884900       6.36163372      15.10254318       0.07795559      -0.07832624      -0.11702999       1.50741759       2.05471208       1.24256379
I       24.77317270       9.26924646      21.63798532      -0.07483940      -0.14874417      -0.02783878       0.46257566      -1.52233187      -0.57151626
I        6.02571731      15.47114068      20.47710689      -0.08472952       0.11861578      -0.07908964       1.76500091      -0.98962151       0.28674102
I       12.79175446      15.58903492      20.30862049       0.09173841      -0.15043703      -0.01982427       0.08076118       0.87523342       0.95377107
I        6.99074897       9.29084434      22.08467762      -0.11228617      -0.01129705      -0.13842608      -1.28826574      -1.02400579      -0.01810906
I        9.61331593      12.78317584      21.54653870      -0.07627963      -0.01305806       0.03647490      -0.38688743      -2.74560260       2.33838655
I        3.40063148      19.20679727      21.62586894      -0.07151867      -0.09973814      -0.08268263      -2.37185185      -0.07626678      -0.31292104
I        3.45073107      11.68913319      20.83341262      -0.47037849      -0.09606796      -0.24357559       1.06929210       0.33240465      -0.18676383
I        9.58923601       6.01175566      20.27266914      -0.02753357      -0.28016190       0.26348489      -0.89103898      -0.30185845       0.73090877
I       12.04129119      15.79471568      15.41239625      -0.02203474      -0.34254598       0.13274219       0.82364637       0.64267954      -0.13852099
I        5.89286550       9.40969595      13.83870982       0.10555393       0.03396436       0.20524735      -0.13790084      -1.65089068       1.65334705
I        0.60903952       9.69963926       1.87892189       0.02192571       0.17120327       0.13373477       0.32917895      -1.64802226       2.26446949
I        6.66072108      15.84894779       3.09695688       0.03347522       0.44945733      -0.00116920      -1.42569614       1.63767400       0.20798893
I        3.24930228      13.51571238       3.22759824      -0.22894459      -0.08049282       0.06478175       0.62446091      -0.72966810       0.70921493
I        9.46557106       7.30682556       2.86486584      -0.28199802      -0.04778980       0.04066020       1.41561561      -2.33166201      -0.56751718
I        9.66386281      11.93264227      14.24197937      -0.21767459      -0.03470782       0.02727793      -1.78660286       2.50567433      -0.11068502
I        3.40625182      18.38574432      14.19585467      -0.09441712      -0.08617414      -0.00923166       1.88437384      -0.98298186       1.03358128
I       24.87030516      17.60936003      24.09777132      -0.00363472      -0.03761280      -0.21540227       0.15260002      -0.07459941       0.02516183
I        5.76226307      13.05594033      24.26693833       0.16538594      -0.16769208       0.17049979      -1.54570533      -0.32047112       1.10490076
I       13.60608770       7.20833594      18.03846615      -0.08456579      -0.09541324       0.36191731      -0.65918009      -2.08886426      -0.59255077
I        6.98674038      11.94501077      18.16985069      -0.05959056      -0.08690107      -0.60511516       1.31381612       0.05455406      -1.16440840
I       25.10836320      11.69770812      17.75295142      -0.18277788       0.05278346       0.09414509      -1.04500518      -0.51837093      -0.60068793
I        6.13970234      19.24865248      17.88903026      -0.18639576       0.18776855      -0.28804053      -0.34361242      -2.64297726       0.96212970
I       13.17457229      13.14622008      24.03228306      -0.16988753      -0.15695175       0.48419454      -2.77516201      -0.07865837       1.70607789
I        6.96328074       5.45880807      24.31949820       0.03516746      -0.09517369      -0.19999645       1.74206676      -0.67385067       1.06425232
Cs       9.54668240       2.53595656       6.03459165      -0.07917741       0.14116028       0.00528508      -0.67215348       1.20170508      -0.99458640
Cs       3.26022916      22.04413779       4.54431754      -0.02993876      -0.04060185       0.29222586       2.01222706       0.30292859      -0.52042690
Cs       3.43842264      22.24100214      11.08041649      -0.05149344      -0.07433661       0.12484194       0.86859426      -0.91230181       0.00343340
Cs       9.38707542       3.23125672      12.71208700       0.18795318      -0.00150774      -0.02923399      -1.70871071      -0.77581151       0.73564470
Cs       9.82699444      21.65375803      12.16873613      -0.07725681      -0.16945438      -0.00402019      -0.51589649      -0.54671940      -0.03324567
Cs       3.35482593       3.47123567      11.60018974      -0.05623609       0.04211002      -0.01370733       0.02459081       0.29381443       2.50903490
Cs       3.03324368       3.39932077       5.03308318      -0.00497978       0.12786142       0.37251580       0.43346351      -1.82795173      -0.73872702
Cs       9.74657632      21.61461648       6.00053709       0.02699854       0.13198935      -0.10093518      -1.85686569      -0.36997572       0.72929052
Pb       0.04299593      18.78587056       8.83728414       0.17981079       0.09747619      -0.17490537      -1.88946809       1.54664446       0.00697247
Pb       6.47851996       0.22078163       8.82089592      -0.17547727       0.00831780      -0.11227331       1.00363727       1.23676422       2.44259000
Pb       0.31108441       0.44710390       8.90396495      -0.06711572      -0.39550222      -0.14246927       1.23144780       0.97858219      -1.65236881
Pb       6.78696009      18.87683485       8.48416753      -0.29077890      -0.00640749       0.20560421      -0.99281600       2.23766380       3.26747334
Pb       0.10895897      19.15262883       2.50317982      -0.44842409       0.14117850       0.08103038       2.52044629       3.78380203      -0.42593075
Pb       6.28803191       0.57438209       2.73142715       0.06801101      -0.11812487      -0.01852127       0.09718438       2.46162276      -1.51807725
Pb      -0.06426994       0.43878365       2.47063285      -0.02613252      -0.16899464       0.14010359      -0.28721693       0.88074249       0.23145135
Pb       6.45841819      19.08793500       2.29515091       0.17534671       0.06607260      -0.11954307       2.86267257      -0.29317541      -0.12839958
I       24.97550430      21.87369949       9.30856886      -0.00721335       0.08233929      -0.06084592       1.41994046       1.13642406       0.09368782
I        5.67373884       3.28573914       8.06203425      -0.00307546      -0.01698278       0.05167558      -0.23341082       0.45473960       0.20509254
I       12.94065463       3.37743124       7.79498931       0.02134331      -0.27581361       0.22846135       1.21746881       0.02950034       0.65930205
I        7.19007535      22.02372035       9.40917692      -0.05545596      -0.20599195      -0.12060511       0.23939828      -1.25537572       1.32167884
I        9.46326905       0.76526982       9.61057563       0.37340373       0.08277943      -0.11232415      -1.62568769       0.97447436      -1.46002340
I        3.32958817       7.10425616      10.09631271      -0.23233620      -0.10262937      -0.21481857      -3.84108247      -1.00680089       1.64305644
I        3.40246421      24.34581815       8.03403048      -0.09379809       0.12284330      -0.05353862       2.28129699       1.14692782      -0.43884851
I        9.76675233      18.31668022       7.75092951      -0.30834489      -0.15577447       0.00128977       0.07187000       1.18616521      -2.27736342
I       12.20461412       3.43810369       3.30134611       0.03242439       0.29255797       0.04228016      -1.04341907       0.46709686       0.67486908
I        5.94439956      22.15324907       1.47761322       0.19730805      -0.01468753       0.22812119      -0.65025054      -0.07525021      -0.82988689
I        0.72863583      21.62314909      13.98681659       0.07726187       0.14720343       0.00931984      -1.51278293      -2.02910528       3.54327965
I        6.80108484       3.31508772      15.96056486      -0.13626274      -0.00212898      -0.27996562      -0.55963120       2.69028085       0.35168575
I        3.26775128       0.65152897      15.71465402       0.30839540      -0.05663149       0.01962310      -1.24188932      -2.39993405       0.16238471
I        9.62940845      19.32890025      15.46811292      -0.19095008      -0.08744848      -0.31003771       0.79069125       2.28141316       1.31278625
I        9.57348342      25.10882649       2.10934498      -0.01647654      -0.29746752       0.03477271       0.18788826      -0.58535211       0.13665101
I        3.14226793       5.57734916       2.04058022       0.02650482       0.32002864      -0.09771275      -0.69802666       0.06019846       0.74104379
I       24.09570552       5.50593996      11.90797572       0.25744605       0.18753505      -0.32492886       0.53079111      -2.45200092      -0.62269445
I        6.22502076       0.99267665      11.91682037      -0.25040477      -0.03627125       0.21750156       1.00513219      -0.08482910       0.30064273
I       13.23476255      19.74693494       5.48826219      -0.02996731      -0.13697886      -0.21386086      -0.24612781      -1.53294207       1.90258190
I        7.01981182      24.30933391       5.49241413      -0.04997669       0.03488542      -0.00540241      -0.29894222      -0.88394792       2.96931539
I       24.91456274      24.40890893       5.39494933       0.08204796       0.11806282       0.05208140      -0.94508800      -1.82669126      -0.27904363
I        5.89053276       7.05017791       5.83476409      -0.04615384       0.12922379      -0.29707380       2.40258021       2.38657441       1.15251965
I       13.31470588       1.07432247      12.08366154      -0.05312785      -0.07507714      -0.30970444      -0.80338740      -1.05788652      -1.74109902
I        7.27483668      18.41645452      11.75750253       0.03584334      -0.05700188      -0.37089102       0.20522682       0.33740036      -0.09070317
Cs       9.50854268       2.59231269      18.25018403       0.21837062      -0.03640215       0.22528740      -0.21194509       0.68505872       0.58704508
Cs       3.21318510      22.00623629      17.49498750       0.10958977      -0.00135009      -0.01194838      -0.37684529       3.31115566       4.29356349
Cs       3.44603092      22.23383154      23.78378728      -0.08241564       0.12492456       0.01790057       1.20980829       1.10751426       1.02344102
Cs       9.52517364       3.38776013       0.47668952      -0.03098995       0.24414158      -0.23182974      -1.23099235      -1.23531541      -0.68326033
Cs       9.69412725      21.06872145      24.57121608      -0.10901919       0.14758146      -0.07147926      -1.07437959       0.08772417      -1.05090483
Cs       3.60483450       3.10044827      23.27187778      -0.15828203      -0.01864838       0.14154934       0.68600391      -0.92125407      -0.19832045
Cs       3.46285249       3.93409130      17.88275025      -0.08448304      -0.02716739       0.00906416       0.52917714      -1.67923604       1.23839216
Cs       9.79285066      21.45637874      18.32507339      -0.05858484       0.22340272       0.27516292       1.21330831       0.00008017       0.12393815
Pb       0.37820005      18.49366484      21.19803388      -0.21819068       0.15449351      -0.08123160      -0.93052630       0.43937425       0.47611182
Pb       6.59165067       0.04824156      21.27407803      -0.33511126      -0.28223119      -0.07744669       0.95306374       1.85992608       0.56401486
Pb       0.21856859      -0.02039753      21.13299891       0.06318826      -0.00272315       0.38117386       0.65364182      -1.75883756       2.10950883
Pb       6.52038065      18.69554449      20.83587689       0.09411813      -0.10675185       0.41380912      -1.80073127      -2.37957145       0.79894014
Pb       0.23813740      18.60929033      14.94821964       0.01765695      -0.05108044      -0.25328584       2.72993360       0.74927560      -0.71771383
Pb       6.33662187       0.04246583      15.01492521      -0.05763944       0.19943084       0.09201746       1.52313668      -1.34837910      -1.34228850
Pb       0.34792918      -0.17280411      15.11259341      -0.39311728       0.14049688       0.00083032       0.56668740      -0.77457397       1.87475393
Pb       6.56536664      18.75896414      14.71571534      -0.07034877       0.02995943       0.07495227      -0.80547237      -0.39122048       1.25634315
I       24.94348969      21.61055220      21.61083983       0.03747439      -0.04116855      -0.04135759      -0.88675646      -0.11598179      -0.30676696
I        6.25736983       3.17634275      20.42698673      -0.06998626      -0.14088101       0.01833020      -0.51005217       1.24656696       1.26223687
I       13.11498791       3.08130907      20.39851768      -0.02074868      -0.00468865       0.15521860       0.60147799      -1.51765657      -0.24254085
I        7.25827619      21.65598803      21.61806537      -0.10658587       0.24536125      -0.03497325       0.90934022       0.23079993       0.08137908
I        9.48178143       0.56341466      21.77073523       0.58023534       0.16178641       0.13202542       1.06546152      -0.76997419       1.08369801
I        3.18633414       6.48767442      21.63994721       0.15483479      -0.29926050      -0.28819038      -1.80532258       0.29964677       0.46365295
I        3.48849911      24.46237081      20.49847523      -0.21588778       0.00854280       0.03542862       1.73243166      -1.98574090      -1.85575812
I        9.63004456      18.22417452      20.52945239      -0.18883702      -0.05605681      -0.10673322      -1.01011022       2.25192494       1.94028549
I       12.35854643       3.20853707      15.88995901      -0.06734390      -0.04709262      -0.16617993      -1.33347784      -0.35585796      -0.93218229
I        5.95320639      21.95077669      13.87864772       0.05203108      -0.12103495       0.17843627       0.22361076       0.00513862       0.98245088
I        0.46220338      22.15663713       1.54694616       0.04193287       0.09912763      -0.04085702       1.04497640      -0.22934255       0.38043026
I        6.57655025       3.58868330       3.60455641       0.16912928      -0.05302825      -0.16396040       1.48039397      -1.92462886       2.18824934
I        3.13109067       0.38514564       2.97336687       0.09091113       0.10998068      -0.13585023      -0.59634494       1.97317898       1.57706323
I        9.75099400      19.54986402       2.58177819      -0.52638738      -0.04368308       0.26373905      -2.07350903      -0.60145465      -0.58385508
I        9.52212261      24.72302144      14.24262874       0.20828896      -0.04104354       0.13218025      -2.16999535      -0.66676750      -1.59025351
I        3.30221411       5.87316497      14.60478041      -0.11701622       0.04804965       0.00123137      -2.22688884      -0.99669085      -0.31326213
I       24.49872976       5.48747645      24.23297123       0.17567153      -0.18090149      -0.09993758       0.86934526       0.87462389       1.53074767
I        6.05928682       0.42156074      24.40862676       0.00694868       0.06270702       0.12307086       1.63239818       1.18171135       0.25775385
I       13.07396284      19.37046652      17.85397598      -0.02930545       0.18997241       0.25962829      -0.33849942       1.22900706       0.33582119
I        7.05775263      24.28312476      17.99045043       0.00607281      -0.10427436      -0.29964856      -0.13522925       0.36098331      -0.44790260
I       24.86793295      24.02763183      17.90938939       0.13786852      -0.12960830      -0.28936608       1.43513010      -2.14906522       0.64531018
I        6.05265256       7.31567463      18.08755294      -0.12776469       0.01597717       0.25496330      -2.37276964       0.22716176       2.12990770
I       13.43401409       0.58561845      24.47796788      -0.20724310      -0.20625842      -0.06231479       0.32756336      -0.29811312       1.31701940
I        7.06182670      17.93315226      23.94523048      -0.02950465      -0.13124034       0.33469516      -2.81267867       0.09701590       0.87633609
Cs      21.85216881      15.22641709       5.81877353       0.05890035       0.04456609      -0.14043295      -0.33095486      -0.69781232       2.38993339
Cs      15.80935245       9.83552388       4.93166666      -0.08516341      -0.04871734       0.04852435      -2.20871412       1.12764488      -0.19390593
Cs      15.80156239       9.83720420      11.51113947       0.05466548      -0.11140288      -0.03586241       1.79837291      -0.73324111       0.02541919
Cs      21.55665014      15.22991120      12.13321952       0.25450694      -0.03289407      -0.00671737       1.69849072       1.69434654       0.27223720
Cs      21.95602646       9.12545146      12.34333827      -0.03813356      -0.19575873       0.07578460      -1.26692347      -0.36765342       0.19484604
Cs      16.25025254      16.33325345      11.52568299      -0.37231515      -0.00326385      -0.10271675       0.48648451       2.58359940       0.91581175
Cs      16.00854522      16.31058674       5.12230441      -0.17833116      -0.08244398       0.05143003      -1.48544995      -0.33579855       0.72820659
Cs      22.22761590       9.30949517       6.05790662      -0.09509817       0.08929891       0.14013525      -2.44954412      -0.53604697      -2.97233751
Pb      12.66162001       6.31962206       8.89354006       0.10533468       0.08980635      -0.07965173       0.88812777       2.02751959       0.81511392
Pb      18.90046224      12.38174775       8.56515863      -0.01944318       0.04873035       0.03681049      -1.86660780       0.77367893      -1.76465026
Pb      12.77499700      12.66799137       8.72439964       0.25181125      -0.16311148       0.06050708      -0.60134481       3.53190710      -0.88407614
Pb      19.23111940       6.42353607       8.54394493      -0.06817053      -0.31879660      -0.19522821      -2.72202212       0.03525621       0.72808343
Pb      12.62917680       6.58777833       2.58770869      -0.14302774       0.06238118       0.15481685       1.15828761      -0.38594820      -3.09761626
Pb      18.80134638      12.70371020       2.32115563       0.02503085       0.10817409      -0.09360356      -3.44998197      -0.21551617       0.11413409
Pb      12.45810516      12.82214507       2.36401842       0.54440946       0.11783241       0.21114568      -0.91975176       1.52272396       0.66523504
Pb      19.10036711       6.48781293       2.39267038      -0.27660389       0.10276471       0.16561698       3.28323071      -0.25952464       1.58346000
I       12.32556573       9.51342101       9.42258139      -0.10724107       0.07439704       0.08264601      -0.06523223      -0.99114592       1.81832611
I       18.44496067      15.55787138       8.11758337      -0.03828369       0.05139255      -0.05550740      -2.44572295       0.35738347       1.31376037
I        0.34015948      15.71569503       7.92105539       0.03939493      -0.12264289       0.00838032      -0.47241519      -0.73754066       2.10894944
I       19.37812700       9.32304419       9.48890496       0.11547538       0.40328865      -0.03050612       1.02493242      -1.29314452      -0.72496873
I       21.92365481      12.99777020       8.91359875       0.54666584       0.04749399       0.09558873       1.17680510       0.88357988       1.04213083
I       15.76193959      19.48193667       8.96527214       0.26857847      -0.04438145       0.11467705      -2.34631848       1.53463388       0.26104479
I       15.96195074      11.82898714       8.38753305      -0.63251999      -0.00169537      -0.21142957       1.33758762       2.97499420      -1.07192387
I       22.32255539       5.81014080       7.74482357       0.00729070       0.14859515       0.12232573      -0.12482501       0.64502982      -1.25866974
I       24.65444380      16.06773747       2.93549265      -0.03916658      -0.44844133       0.01468279      -0.15797334      -1.55999015      -0.58087839
I       18.32138752       9.63191933       1.77368541       0.09596120      -0.08870843      -0.00509707       0.74902143       0.88188926      -0.05556102
I       13.47775982       9.38868336      14.31257995      -0.17808251       0.22033773       0.13629313      -1.50716472      -2.03095209       0.95395589
I       19.52558732      15.64280042      15.91762098      -0.15817591       0.14436181      -0.27102212       1.61050924       0.55794882       1.04727615
I       15.75878432      13.47659923      15.57776782       0.01492201      -0.02487103       0.04789061      -0.52891946       0.31718940      -1.09831023