96
Lattice="15.846150386478714 -0.11908568738194134 -0.11190824225052548 0.2544338522722512 15.161395806038657 -0.11724485626038629 0.12030684176889621 0.09275547446700953 8.683001059086715" Properties=species:S:1:pos:R:3:forces:R:3 energy=-418.9236953262308 stress="0.002439835678518717 0.00027081153360026785 -0.00018739923326678042 0.00027081153360026785 0.0039022075869500463 4.2338137339526016e-05 -0.00018739923326678042 4.2338137339526016e-05 0.0032253523245778515" free_energy=-418.9236953262308 pbc="T T T"
I        6.69559812       3.40632070       2.43235101       0.00002475       0.00001118      -0.00000478
I        1.31499360       8.11512815       3.40888209      -0.00001145       0.00000655      -0.00001269
I        6.81291007       3.30081379       6.75384431      -0.00000085       0.00001754       0.00001091
I        1.31809389       8.31342191       7.77039911       0.00002016      -0.00000206       0.00000986
I        5.23063086       7.00519424       5.56295549       0.00000212       0.00001066      -0.00000379
I        2.90027135       4.60899887       8.96130657      -0.00000517       0.00000355      -0.00001078
H        1.82955550       4.12496062       3.67426374       0.00000429      -0.00000820       0.00000914
H        6.18106113       7.39645406       2.16703378      -0.00000295       0.00000922       0.00000001
H        3.41919468       4.65452026       4.32110282       0.00001959      -0.00000385      -0.00000417
H        5.45121600       8.25517567       0.76866675       0.00000817      -0.00001474       0.00000098
H        2.55935776       3.26631441       5.07269986       0.00000711      -0.00001190      -0.00001274
H        4.59139873       6.86693462       1.52022097      -0.00001359      -0.00000123      -0.00000518
H        0.82485764       4.79053164       5.79995432      -0.00001144       0.00001222       0.00001445
H        5.72120671       6.20921860      -0.54170947      -0.00001147      -0.00000711       0.00002514
H        1.59430587       6.10303809       5.06146900      -0.00001112      -0.00000747       0.00000507
H        6.41624514       5.41844224       0.77971926      -0.00000205      -0.00000438       0.00001093
H        2.28933616       5.31234392       6.38295009      -0.00001816      -0.00000275      -0.00001821
H        7.18570063       6.73097098       0.04129338       0.00000330       0.00000390       0.00000804
C        2.44068392       4.23493674       4.57523494      -0.00000801      -0.00001482      -0.00002150
C        5.56990312       7.28652640       1.26607701       0.00000674       0.00000428       0.00000069
Pb       5.02490757      17.15104865       8.90105922       0.00000615      -0.00000688       0.00001886
Pb       1.06374073      17.25035594       8.93230603       0.00002979      -0.00001561      -0.00000115
N        1.74828624       5.17323782       5.50841575       0.00003863      -0.00000465       0.00002274
N        6.26226830       6.34826751       0.33282794       0.00000130       0.00000976      -0.00001112
I        5.30997709      10.90957336       7.71760210       0.00001016       0.00000978       0.00000281
I        3.07536380      15.86599637       6.68940144      -0.00000566       0.00000560       0.00000536
I        5.29989749      11.02832444       3.35544632      -0.00001512       0.00000725      -0.00000382
I        2.96526047      15.65448485       2.36855722       0.00000664       0.00001797      -0.00001028
I        6.94940855      14.50813827       0.16441738      -0.00000833      -0.00001566      -0.00000585
I        1.31565617      12.17472236       5.55954913       0.00002100      -0.00000624       0.00002180
H        0.85033890      12.31353447      10.23171410      -0.00000531       0.00000159      -0.00000250
H        6.73801954      15.87021162       4.95869727       0.00002024       0.00001979      -0.00000272
H        1.64717869      10.90546884       9.44835005       0.00001359       0.00002113      -0.00001425
H        7.53517303      14.46221359       4.17553494       0.00000055      -0.00000422      -0.00000770
H        2.43943166      11.72952351      10.83301726       0.00002927       0.00001365       0.00003614
H        5.94609593      15.04597588       3.57394496      -0.00002000      -0.00001674       0.00001809
H        2.69893383      13.71195557       9.45286631       0.00000668      -0.00001039      -0.00004094
H        5.68654681      13.06362147       4.95415930      -0.00000021      -0.00002037      -0.00000021
H        1.94908539      12.95058609       8.14666280      -0.00000170      -0.00001685      -0.00001701
H        4.97363399      14.39500390       5.71497062      -0.00000462      -0.00001018       0.00000995
H        3.41170315      12.38053533       8.69197311       0.00000035       0.00003346      -0.00000696
H        6.43624363      13.82506680       6.26041110      -0.00000648       0.00002389       0.00000752
C        1.80843005      11.86594950       9.94956610      -0.00003592      -0.00002845      -0.00000913
C        6.57697601      14.90968471       4.45750530       0.00001370      -0.00003308      -0.00000942
Pb       3.36047151       9.62455833       5.50589646      -0.00001914       0.00000483       0.00000145
Pb       7.32163887       9.52521344       5.47475283       0.00001313      -0.00001339      -0.00000913
N        2.50644487      12.78932542       9.00593082       0.00000721      -0.00001218       0.00003101
N        5.87894321      13.98627004       5.40109088      -0.00002822       0.00003624      -0.00001412
I       14.61868097       3.34678669       2.37643013       0.00000218      -0.00000321      -0.00000230
I        9.23808583       8.05552177       3.35295687       0.00000976       0.00002521       0.00001051
I       14.73598185       3.24127011       6.69794148      -0.00001044      -0.00000352      -0.00002935
I        9.24111504       8.25381469       7.71447232       0.00000585       0.00000290      -0.00001050
I       13.15377616       6.94564157       5.50707328      -0.00000416      -0.00001256      -0.00001265
I       10.82336529       4.54944112       8.90529366       0.00001178       0.00000276       0.00001443
H        9.75281817       4.06545018       3.61812988      -0.00001166      -0.00001754       0.00001989
H       14.10392837       7.33681746       2.11122814       0.00000921       0.00002623       0.00003485
H       11.34243336       4.59487297       4.26513266       0.00001091      -0.00000450      -0.00000628
H       13.37447056       8.19572175       0.71276961      -0.00001976      -0.00001255      -0.00000099
H       10.48247949       3.20663727       5.01654026       0.00000869       0.00000368      -0.00001139
H       12.51436195       6.80749356       1.46401495       0.00001422       0.00002049       0.00002270
H        9.51747625       6.04337835       5.00546954       0.00000554       0.00000153       0.00000920
H       15.10890677       6.67148819      -0.01447781       0.00000204       0.00001141       0.00000774
H       10.21250832       5.25263539       6.32692184      -0.00000605      -0.00000496       0.00000757
H       13.64448344       6.14973543      -0.59764816      -0.00003355       0.00000964      -0.00001052
H        8.74803849       4.73083934       5.74389681      -0.00000561      -0.00000756      -0.00000952
H       14.33937968       5.35894711       0.72384773      -0.00001371      -0.00001082       0.00002540
C       10.36388456       4.17531138       4.51915696      -0.00000292       0.00000553       0.00000142
C       13.49296138       7.22702188       1.21012740      -0.00001157      -0.00004368      -0.00001746
Pb      12.94799609      17.09150266       8.84513239      -0.00001511      -0.00000329       0.00001148
Pb       8.98681305      17.19081795       8.87632082      -0.00000155       0.00000345       0.00000251
N        9.67146714       5.11356070       5.45237684      -0.00000577       0.00000976       0.00000845
N       14.18544602       6.28877770       0.27695262       0.00002608      -0.00001872      -0.00003865
I       13.23305862      10.85002603       7.66167569       0.00001093       0.00000916       0.00000719
I       10.99845970      15.80645004       6.63345755      -0.00000679       0.00000563      -0.00000300
I       13.22290245      10.96876495       3.29953797      -0.00000261       0.00000454       0.00000092
I       10.88830479      15.59495358       2.31259854      -0.00001106       0.00000710      -0.00000416
I       14.87249497      14.44857455       0.10848559      -0.00000141       0.00001188       0.00000781
I        9.23875549      12.11512878       5.50363088      -0.00001184      -0.00000463       0.00000956
H        9.57035584      10.84589360       9.39242258      -0.00000319       0.00000331       0.00001507
H       13.86897890      14.98637984       3.51803812      -0.00000379      -0.00000662      -0.00001236
H       10.36244854      11.67007946      10.77710975       0.00001599       0.00000355      -0.00000355
H       14.66108587      15.81061631       4.90268417      -0.00001485      -0.00001537       0.00001681
H        8.77336340      12.25394945      10.17564903      -0.00001819      -0.00000195       0.00000312
H       15.45810664      14.40257895       4.11945869       0.00002004      -0.00000604      -0.00001289
H        9.87219759      12.89097678       8.09065954       0.00000136      -0.00000153       0.00000214
H       12.89669225      14.33542725       5.65910435      -0.00000104       0.00001696       0.00001263
H       11.33481446      12.32101692       8.63605524      -0.00000452       0.00000358       0.00001422
H       14.35934493      13.76555812       6.20450096      -0.00000906      -0.00000808       0.00000084
H       10.62195959      13.65243251       9.39686852       0.00000857       0.00001574      -0.00002627
H       13.60959984      13.00402798       4.89832186       0.00000692       0.00000969       0.00000402
C        9.73150552      11.80641104       9.89360074       0.00000202      -0.00002364      -0.00001695
C       14.49995548      14.85008395       4.40152847       0.00001014       0.00000908      -0.00001063
Pb      11.28353254       9.56495234       5.45001086       0.00000713       0.00001072      -0.00002236
Pb      15.24472342       9.46571788       5.41880028      -0.00001362      -0.00001832      -0.00001728
N       10.42952620      12.72977903       8.94996190      -0.00000113      -0.00000482       0.00001249
N       13.80199733      13.92670222       5.34519961      -0.00001206       0.00000969      -0.00001471
