768
Lattice="24.58117884180994 0.5459163088182506 -0.003684395423111787 0.5455144621158784 24.581178014911686 0.00022329276292715606 0.0038129737876458404 -0.00030551787007274963 25.3851874834635" Properties=species:S:1:pos:R:3:forces:R:3 energy=-3353.454090592651 stress="7.196738403535892e-08 1.5847768108001488e-09 3.764251545382761e-09 1.5847768108001488e-09 -1.968087869177015e-08 2.0287829193389247e-08 3.764251545382761e-09 2.0287829193389247e-08 -2.2377946122228885e-08" free_energy=-3353.454090592651 pbc="T T T"
I        6.25814825       1.28194763       2.60148407      -0.00000204       0.00000447       0.00000127
I        7.56431723      13.04696049       8.94773516      -0.00000306      -0.00000171      -0.00000006
I        6.10437371      10.25734914       5.52730677      -0.00000070       0.00000515       0.00000505
I        7.71808230       4.07154527       6.02187745       0.00000095      -0.00000030       0.00000142
I        0.64003180      13.68945010       8.94877969       0.00000348       0.00000493       0.00000028
I       13.18241931       0.63942306       2.60043187       0.00000223       0.00000243       0.00000209
I       12.11331408       4.24854401       5.52634372      -0.00000216       0.00000752       0.00000426
I        1.70912240      10.08036606       6.02287130       0.00000370      -0.00000586      -0.00000211
I       10.14151901      12.50291705      12.36791607       0.00000591       0.00000453       0.00000502
I        3.85881529       6.22122094       5.52760709      -0.00000295      -0.00000210       0.00000065
I        3.68197721       1.82589571       6.02247253      -0.00000404       0.00000183       0.00000088
I       10.14048275      12.50298711       5.52673743       0.00000075      -0.00000280       0.00000014
H        2.12729938       4.72140270       2.60213645       0.00000244       0.00000075       0.00000608
H        9.12408483       2.95584586       3.50064005       0.00000367      -0.00000793       0.00000757
H        8.84753484       9.51407433       3.50075764      -0.00000653       0.00000249       0.00000957
H        4.97499232       4.81477387       8.04840153       0.00000041       0.00000463      -0.00000493
H        3.20940728      11.81142378       8.94835363      -0.00000000       0.00000409       0.00000423
H        9.12388489       2.95586855       1.70147853      -0.00000268       0.00000294      -0.00000036
H       10.70734933       5.36426280       8.04760583      -0.00000198      -0.00000050       0.00000020
H        4.97525100       4.81479078       9.84756327      -0.00000292       0.00000133       0.00000528
H        2.56586582       3.23234501       3.50168898      -0.00000750      -0.00000297       0.00000587
H       10.61309074       2.51751349       2.60088697      -0.00000975      -0.00000354       0.00000083
H        8.84726095       9.51410205       1.70159735      -0.00000247       0.00000299      -0.00000747
H        5.41349457       3.32568561       8.94793374      -0.00000120       0.00000786      -0.00000329
H        4.38470943       4.82404354       1.75987761      -0.00000030       0.00000386      -0.00001000
H        9.43774687       9.50485450       9.78930872      -0.00000322      -0.00000233       0.00000890
H       11.10749801       9.70799313       2.60084557       0.00000951      -0.00000106       0.00000199
H        3.30889008      11.22483141       2.60202722      -0.00000735       0.00000560       0.00000711
H        4.82582568       3.42620544       2.60172596       0.00000266       0.00000155      -0.00000141
H        9.43749418       9.50487804       8.10548836       0.00000339       0.00000434      -0.00000456
H       10.66663247      11.10582611       3.44283325       0.00000704      -0.00000470       0.00000777
H        4.70660683      10.78385557       1.75990487      -0.00000043      -0.00000700      -0.00000362
H        4.38498440       4.82405477       3.44369753      -0.00000423       0.00000012       0.00001358
H        9.31775475       5.21597338       2.60109291       0.00000029       0.00000615      -0.00000478
H       10.66638307      11.10583998       1.75901215      -0.00000154       0.00000310      -0.00000905
H        4.70686177      10.78385087       3.44372539      -0.00000971       0.00000021      -0.00000151
C        4.10643221      11.18370844       8.94822244       0.00000961       0.00000249      -0.00000907
C        9.71604080       3.14519338       2.60099611      -0.00000242      -0.00000354      -0.00000846
C       10.11539803       5.17493539       8.94725741      -0.00000071       0.00000409       0.00000255
C        4.78579667       4.22272310       8.94801512      -0.00000941       0.00000008       0.00000192
Pb       6.91122758       7.16444883       5.77461289       0.00000328       0.00000657      -0.00000200
Pb       7.04760082      13.30973206       5.77467053       0.00000406       0.00000710      -0.00001091
Pb       0.90325891      13.17318734      12.12188849       0.00000251       0.00000222      -0.00000026
Pb       0.90230729      13.17327664       5.77558053      -0.00000285      -0.00000273      -0.00000187
N        4.18358695       4.24551864       2.60182464      -0.00001315      -0.00000577      -0.00000302
N        9.63888732      10.08339454       8.94737659       0.00000837      -0.00001937      -0.00000010
N       10.46525304      10.52730100       2.60094770      -0.00000876       0.00000314       0.00000418
N        4.12820336      10.58259332       2.60190228       0.00001539      -0.00000864      -0.00000069
I        6.64894593       7.68066483       8.94780170       0.00000637      -0.00000193      -0.00000340
I        7.17348183       6.64826983       2.60141475       0.00000042      -0.00000189      -0.00000002
I        7.71896978       4.07148422      11.87328809      -0.00000075       0.00000386      -0.00000339
I        6.10733391      10.25713335      25.06109780      -0.00000889      -0.00000457      -0.00000417
I       24.83040863       7.83665599       2.59877173      -0.00000396       0.00000166       0.00000023
I       13.57326738       7.03816379       8.94675932       0.00000090       0.00000316      -0.00000510
I       14.00254166      10.35309991      24.56503091      -0.00000248       0.00000158       0.00000245
I       24.40490449       4.52141826      12.36570525       0.00000310      -0.00000094       0.00000180
I        9.96364514       8.10767673       6.02160993       0.00000133       0.00000431      -0.00000442
I        3.95752194      14.11628600      24.56660167      -0.00000567      -0.00000591      -0.00000065
I        3.85984316       6.22112245      12.36878396      -0.00000023       0.00000355       0.00000119
I        9.96643375       8.10745355      24.56559884       0.00001014       0.00000138       0.00000269
H        4.69837429      11.37303682       8.04856480       0.00000038      -0.00000053       0.00000331
H       11.25663288      11.09658650       8.04757319      -0.00000076       0.00000240      -0.00000572
H       10.70757816       5.36421857       9.84676794       0.00000071       0.00000779      -0.00000782
H        3.11487213       8.96472832       1.70247124       0.00000415       0.00000100      -0.00000532
H        2.56557921       3.23229509       1.70252831       0.00000407      -0.00000071      -0.00001272
H       11.25690248      11.09654882       9.84673512       0.00000217       0.00000556      -0.00000054
H        8.40896191      11.00316777       2.60126745      -0.00000162      -0.00000132      -0.00000105
H        4.60408601       8.52630595       2.60183604       0.00000354      -0.00000296      -0.00000188
H        4.69861707      11.37300558       9.84772678       0.00000208       0.00000549       0.00000115
H       11.69516616       9.60747847       8.94705783       0.00000170       0.00000232      -0.00000226
H        9.21838128       5.80266268       8.94738701      -0.00000221      -0.00000526       0.00000322
H        3.11513389       8.96473182       3.50163180       0.00000649      -0.00000428       0.00000081
H        3.10690758       9.55386413       9.79024335       0.00000420      -0.00000486      -0.00000303
H       10.71550597       4.77507825       1.75898399      -0.00000738      -0.00000103      -0.00000184
H        9.11561609       3.54513771       8.10544450       0.00000488      -0.00000465       0.00000549
H        3.15582325       3.22311294       8.10634229       0.00000478       0.00000055      -0.00000233
H        4.50463942       9.11291610       8.94813008       0.00000407      -0.00000362      -0.00000189
H       10.71573514       4.77504456       3.44280343      -0.00000236      -0.00000471       0.00000639
H        9.11586197       3.54509083       9.78926735      -0.00000078       0.00000145      -0.00000799
H        2.71500507       4.62096424       8.94832301       0.00000054       0.00001823      -0.00000133
H        3.10667219       9.55389255       8.10642164       0.00000192       0.00000185       0.00000476
H        8.99665813      10.90271481       8.94748512      -0.00000294       0.00000866      -0.00000036
H       10.51358327       3.10413959       8.94714054       0.00000052      -0.00000816       0.00000373
H        3.15607341       3.22310874       9.79016263      -0.00000094      -0.00000726      -0.00000059
C        2.75502724       3.82438646       2.60206197       0.00000752       0.00000303      -0.00000307
C       11.06745311      10.50450512       8.94717001      -0.00000545      -0.00000104       0.00000701
C        9.03669720      10.10615680       2.60115776       0.00000844      -0.00000778       0.00000646
C        3.70707026       9.15403419       2.60196490      -0.00000839       0.00000349       0.00000202
Pb       7.04856212      13.30966308      12.12096119      -0.00000669      -0.00000212       0.00000473
Pb       6.91217976       7.16438089      12.12090038      -0.00000168      -0.00000042      -0.00000599
Pb       0.76593327       7.02796487       5.77552958      -0.00000055       0.00000189      -0.00000987
Pb       0.76689299       7.02789069      12.12182385      -0.00000847       0.00000213       0.00000478
N        3.68531829       9.75514410       8.94825504      -0.00000821       0.00000005       0.00000275
N       10.13709891       4.57377427       2.60096836       0.00001663       0.00000797      -0.00000509
N        9.69426839       3.74637586       8.94727743      -0.00001059      -0.00000707      -0.00000097
N        3.35722386       3.80163602       8.94822410       0.00000689      -0.00002078       0.00001586
I        6.26004728       1.28181526      15.29406820      -0.00000405      -0.00000243       0.00000420
I        7.56623503      13.04680578      21.64032707       0.00000198      -0.00000148       0.00000451
I        6.10629074      10.25721136      18.21994703      -0.00000272       0.00000014      -0.00001135
I        7.71998398       4.07139865      18.71445346       0.00000052       0.00000758       0.00000267
I        0.64193398      13.68934541      21.64136745       0.00000564      -0.00000536       0.00000562
I       13.18432057       0.63928266      15.29303315       0.00000614      -0.00000084       0.00000029
I       12.11520730       4.24839490      18.21891317      -0.00000643       0.00000356       0.00000601
I        1.71105948      10.08021715      18.71546668       0.00000079       0.00000118       0.00000039
I       10.14343466      12.50276725      25.06050250       0.00000005      -0.00000179       0.00000314
I        3.86071722       6.22107332      18.22021481      -0.00000079      -0.00000491       0.00000069
I        3.68387171       1.82575633      18.71506095       0.00000705       0.00000446       0.00000538
I       10.14238770      12.50284995      18.21932822       0.00000457       0.00000095       0.00000191
H        2.12917413       4.72119102      15.29474333       0.00000780       0.00001168       0.00000790
H       10.61499819       2.51737939      15.29340584      -0.00000732      -0.00000035       0.00001023
H        8.84919273       9.51394191      14.39419565      -0.00000044       0.00000105       0.00000384
H        4.97686736       4.81463985      20.74103817      -0.00000097       0.00000115      -0.00000844
H        3.21128744      11.81128198      21.64094915       0.00000917      -0.00000355       0.00000825
H        9.12601929       2.95569109      16.19321509       0.00000303      -0.00000503       0.00000773
H       10.70947691       5.36402802      22.53936929      -0.00000591       0.00000353      -0.00000812
H        4.97711224       4.81464707      22.54019902       0.00000078       0.00000222       0.00000557
H        2.56777119       3.23208886      16.19420755       0.00000387       0.00000419       0.00001460
H        9.12576137       2.95574105      14.39405337      -0.00000402      -0.00000462       0.00000193
H        8.41088143      11.00300237      15.29386684      -0.00000248       0.00000159       0.00000413
H        5.41539836       3.32555639      21.64056633       0.00000262       0.00000774      -0.00000800
H        4.38660299       4.82393976      14.45252182       0.00000350      -0.00002055       0.00000242
H        9.43966183       9.50468531      22.48190521      -0.00000044       0.00000710       0.00000049
H       11.10942599       9.70784601      15.29344802       0.00000261      -0.00000323      -0.00000162
H        3.31079888      11.22465608      15.29466749      -0.00000986       0.00001008       0.00000321
H        4.82774006       3.42607755      15.29432196      -0.00000917       0.00002769      -0.00000114
H        9.43940104       9.50470294      20.79808380      -0.00000882       0.00000015      -0.00000534
H       10.66855135      11.10567411      16.13543859      -0.00000001       0.00000300       0.00001010
H        4.70852697      10.78370524      14.45255221       0.00000386       0.00000167      -0.00001282
H        4.38683753       4.82388038      16.13634419       0.00000441      -0.00000477      -0.00001508
H        9.31964752       5.21583277      15.29366911       0.00000012       0.00000646       0.00000052
H       10.66830221      11.10569283      14.45161763      -0.00000297      -0.00000484       0.00000198
H        4.70876061      10.78365771      16.13637344      -0.00000685       0.00000163      -0.00000931
C        4.10832791      11.18358820      21.64082831      -0.00000992       0.00001067      -0.00000863
C        9.71794524       3.14505489      15.29355471      -0.00000447      -0.00000170      -0.00000565
C       10.11729067       5.17476014      21.63985932       0.00000307       0.00000272       0.00000372
C        4.78767925       4.22257894      21.64064674       0.00000055       0.00000119       0.00000058
Pb       6.91313506       7.16430535      18.46720255      -0.00000477       0.00000224       0.00000081
Pb       7.04951042      13.30960544      18.46726192       0.00000434      -0.00000296       0.00000566
Pb       0.90517856      13.17304849      24.81446984      -0.00000400       0.00000569      -0.00000386
Pb       0.90422453      13.17312712      18.46817810      -0.00000881       0.00000487      -0.00000068
N        4.18547787       4.24537333      15.29444028       0.00001517       0.00001027       0.00001424
N        9.64079168      10.08322429      21.63996913       0.00001298      -0.00001817       0.00000549
N       10.46717565      10.52715000      15.29355172      -0.00000672       0.00000750      -0.00000970
N        4.13011389      10.58242040      15.29453665       0.00001675      -0.00001361       0.00002129
I        6.65086202       7.68048932      21.64039502      -0.00000178       0.00000520       0.00000201
I        7.17537170       6.64812323      15.29400199       0.00000617      -0.00000440       0.00000594
I        7.72087020       4.07133655      24.56589220       0.00000382      -0.00000830      -0.00000465
I        6.10540928      10.25727422      12.36852644      -0.00000484       0.00000106      -0.00000373
I       24.83230500       7.83650583      15.29136891      -0.00000299       0.00000187      -0.00000327
I       13.57516601       7.03799711      21.63934935      -0.00000463      -0.00000008       0.00000696
I       14.00063727      10.35325664      11.87244236       0.00000121      -0.00000004      -0.00000330
I       24.40299896       4.52157300      -0.32690549       0.00000232       0.00000216      -0.00000093
I        9.96555164       8.10752285      18.71419453       0.00000140      -0.00000053       0.00000298
I        3.95560311      14.11642454      11.87401123       0.00000141      -0.00000939      -0.00000421
I        3.86174958       6.22099453      25.06138726      -0.00000301      -0.00000130       0.00000304
I        9.96452394       8.10761072      11.87300411      -0.00000028       0.00000173      -0.00000419
H        4.70027200      11.37292791      20.74117470       0.00000251      -0.00000327      -0.00000298
H       11.25852028      11.09641650      20.74014007       0.00000587       0.00001423      -0.00000422
H        9.22027786       5.80249306      21.64000143      -0.00000189      -0.00000637       0.00000347
H        3.11678709       8.96458350      14.39505312      -0.00000047      -0.00000819      -0.00000414
H        2.56752127       3.23215752      14.39504802       0.00000064      -0.00000244      -0.00000604
H       11.25879798      11.09641584      22.53930223       0.00000692      -0.00000063       0.00000138
H        8.84946219       9.51391071      16.19335701      -0.00000465       0.00000152       0.00000619
H        4.60600240       8.52613484      15.29440242      -0.00000338      -0.00000337       0.00000092
H        4.70050075      11.37290457      22.54033625       0.00000319      -0.00000064       0.00000566
H       11.69707682       9.60733252      21.63965052      -0.00000276       0.00000367       0.00000786
H       10.70923898       5.36409661      20.74020803       0.00000682      -0.00000425      -0.00001141
H        3.11704948       8.96452630      16.19421425      -0.00000149      -0.00000171       0.00000406
H        3.10884546       9.55371887      22.48285287       0.00000526       0.00000436       0.00000180
H       10.71739131       4.77495033      14.45154292       0.00000333      -0.00000155      -0.00000093
H        9.11750743       3.54497494      20.79802147      -0.00000026      -0.00000113      -0.00000504
H        3.15773528       3.22293613      20.79895670      -0.00000689      -0.00000379      -0.00000140
H        4.50658236       9.11280217      21.64073341      -0.00000033      -0.00000087      -0.00000110
H       10.71763960       4.77490716      16.13536238      -0.00000465      -0.00000453      -0.00000084
H        9.11773489       3.54491426      22.48184292       0.00001057      -0.00000024       0.00000118
H        2.71688162       4.62077388      21.64094158       0.00000609       0.00000628      -0.00000099
H        3.10860251       9.55374963      20.79903244       0.00000669      -0.00000159      -0.00000687
H        8.99855543      10.90253868      21.64007747      -0.00001066       0.00000839      -0.00000127
H       10.51546397       3.10396246      21.63972827       0.00000129      -0.00000180       0.00000494
H        3.15797376       3.22292250      22.48277879      -0.00000520      -0.00000296      -0.00000145
C        2.75693275       3.82419640      15.29462427      -0.00003138      -0.00000727      -0.00002239
C       11.06935249      10.50435138      21.63975002      -0.00000529      -0.00000169       0.00000110
C        9.03862278      10.10599568      15.29375840       0.00000306      -0.00000106      -0.00000867
C        3.70898444       9.15386023      15.29455342       0.00000250       0.00000777      -0.00000168
Pb       7.05048064      13.30952731      24.81355367      -0.00000630      -0.00000131      -0.00000230
Pb       6.91408922       7.16422803      24.81349758       0.00000059       0.00000420      -0.00000008
Pb       0.76783869       7.02782667      18.46811502      -0.00000437      -0.00000039       0.00000820
Pb       0.76879324       7.02774082      24.81440894       0.00000272       0.00000204       0.00000316
N        3.68724812       9.75501359      21.64086289      -0.00000665      -0.00000952       0.00001124
N       10.13899541       4.57363835      15.29353240       0.00001666      -0.00000211      -0.00000470
N        9.69615213       3.74620286      21.63986178      -0.00001681       0.00000027       0.00001291
N        3.35911681       3.80145798      21.64084390       0.00000371      -0.00000599      -0.00000123
I        6.53089686      13.57251689       2.60159984       0.00000015       0.00000265       0.00000010
I        7.29161168       0.75638342       8.94761681      -0.00000412      -0.00000025       0.00000267
I        6.37715971      22.54794199       5.52742589      -0.00000567      -0.00000152       0.00000113
I        7.99081988      16.36212408       6.02203442       0.00000338      -0.00000527      -0.00000513
I        0.36729867       1.39890250       8.94866484      -0.00000265      -0.00000744      -0.00000659
I       13.45517068      12.93003785       2.60054475      -0.00000370      -0.00000016       0.00000181
I       12.38605430      16.53912830       5.52643150      -0.00000351      -0.00000338       0.00000617
I        1.98193988      22.37095617       6.02298788      -0.00000056      -0.00000157      -0.00000002
I       10.41427095      24.79349239      12.36809511      -0.00000211       0.00000404      -0.00000470
I        4.13157605      18.51182493       5.52771118      -0.00000581      -0.00000455      -0.00000033
I        3.95472444      14.11649560       6.02258162      -0.00000419       0.00000421       0.00000619
I        9.86773385       0.21239100       5.52660882      -0.00000464       0.00000924      -0.00000098
H        2.40008978      17.01205319       2.60225197       0.00000133      -0.00000133       0.00000329
H       10.88575867      14.80803402       2.60096631       0.00002459      -0.00001718      -0.00000131
H        9.11996388      21.80469862       1.70173546       0.00000631       0.00000114      -0.00000824
H        5.24764410      17.10539496       8.04854259       0.00000404       0.00000010      -0.00000064
H        3.48220483      24.10203984       8.94847370       0.00000092      -0.00000661       0.00000652
H        9.39679977      15.24647074       3.50074472       0.00000141      -0.00000341       0.00001535
H       10.98033168      17.65481091       9.84683574      -0.00000568      -0.00000481      -0.00000259
H        5.24792309      17.10539533       9.84770436       0.00000730       0.00000313       0.00000037
H        2.83859847      15.52295974       3.50177199       0.00000325      -0.00000412       0.00000519
H        9.39655709      15.24646259       1.70158357       0.00002320       0.00000918       0.00002841
H        8.68170685      23.29377020       2.60141463       0.00001461      -0.00000167      -0.00000420
H        5.68622429      15.61631780       8.94805581       0.00000099      -0.00000250       0.00000028
H        4.65751182      17.11464129       1.76001779      -0.00000547      -0.00000287      -0.00000137
H        9.71048849      21.79539855       9.78945362       0.00000078      -0.00000473      -0.00000255
H       11.38022334      21.99854966       2.60094175      -0.00000202      -0.00000338      -0.00000198
H        3.58159585      23.51538438       2.60217938       0.00001441      -0.00000031      -0.00000690
H        5.09858043      15.71678013       2.60185008       0.00000384      -0.00001294       0.00000187
H        9.71023300      21.79541424       8.10563143      -0.00000063       0.00000359      -0.00000372
H       10.93939910      23.39638796       3.44293866      -0.00001514       0.00000428       0.00001060
H        4.97933860      23.07448912       1.76005710       0.00000932       0.00000085      -0.00001865
H        4.65776252      17.11462788       3.44383804      -0.00000663      -0.00000338       0.00000144
H        9.59058098      17.50656857       2.60114764      -0.00001143       0.00000436       0.00000646
H       10.93911543      23.39640507       1.75911857      -0.00000183       0.00000413      -0.00000680
H        4.97958388      23.07445428       3.44387706      -0.00000448      -0.00001042      -0.00001158
C        4.37923162      23.47432684       8.94833510       0.00000475       0.00000528       0.00000251
C        9.98874709      15.43576684       2.60108429      -0.00003188       0.00006580      -0.00003157
C       10.38811377      17.46548910       8.94735827      -0.00000907       0.00002248       0.00000500
C        5.05848623      16.51332674       8.94815299      -0.00000429       0.00000568       0.00000276
Pb       7.18399324      19.45502355       5.77471340       0.00000102       0.00001134       0.00000003
Pb       6.77485998       1.01914657       5.77455306       0.00000573       0.00000543      -0.00000450
Pb       0.63052196       0.88261795      12.12175756       0.00000075      -0.00000447      -0.00000051
Pb       0.62955893       0.88267220       5.77546722      -0.00000194       0.00000626       0.00000372
N        4.45636240      16.53610904       2.60195322      -0.00000838       0.00001638      -0.00000544
N        9.91160138      22.37394284       8.94751717       0.00000628      -0.00001195       0.00000318
N       10.73799113      22.81786794       2.60105695       0.00000384      -0.00000060      -0.00000590
N        4.40094042      22.87318469       2.60204641      -0.00001054       0.00000655       0.00003266
I        6.92170790      19.97122444       8.94791318       0.00000225      -0.00000410       0.00000560
I        7.44628055      18.93882924       2.60152202      -0.00000062       0.00000184       0.00000044
I        7.99168062      16.36206692      11.87341790       0.00000365       0.00000106       0.00000421
I        6.38007923      22.54772640      25.06123944      -0.00000440       0.00000858      -0.00000317
I       25.10316258      20.12728446       2.59888377      -0.00000020       0.00000017       0.00000697
I       13.84597777      19.32874408       8.94685122       0.00000186       0.00000367       0.00000284
I       14.27527844      22.64370151      24.56509523       0.00000046      -0.00000494       0.00000866
I       24.67769734      16.81201420      12.36580945      -0.00000912      -0.00000095      -0.00000283
I       10.23640108      20.39827442       6.02172219       0.00000292      -0.00000412       0.00000428
I        3.68475010       1.82569936      24.56648243       0.00000507      -0.00000170       0.00000193
I        4.13259924      18.51172205      12.36893319       0.00000581       0.00000078       0.00000225
I       10.23919403      20.39807918      24.56570375      -0.00000548      -0.00000371      -0.00000533
H        4.97115545      23.66364452       8.04866352       0.00000467       0.00000088      -0.00000430
H       11.52929225      23.38721336       8.04770591       0.00000002       0.00000295       0.00000192
H        9.49108741      18.09320357       8.94750679       0.00001744      -0.00000618      -0.00000129
H        3.38769223      21.25528752       1.70257927      -0.00000104       0.00000255      -0.00001085
H        2.83833655      15.52295666       1.70261028      -0.00000016      -0.00000353      -0.00000437
H       11.52956408      23.38718425       9.84686780       0.00001185       0.00000661       0.00000118
H        9.12027008      21.80467007       3.50089590       0.00000081      -0.00000189       0.00000874
H        4.87692627      20.81692257       2.60193576       0.00001698      -0.00001799      -0.00000035
H        4.97143342      23.66363983       9.84782514      -0.00000889      -0.00000136      -0.00000434
H       11.96790670      21.89813306       8.94719578      -0.00000422      -0.00000886       0.00000340
H       10.98002259      17.65479581       8.04767444       0.00000314       0.00000167      -0.00000441
H        3.38795183      21.25525130       3.50174084       0.00001850       0.00000589      -0.00002011
H        3.37972634      21.84448700       9.79039392      -0.00000006       0.00000695       0.00000138
H       10.98829179      17.06558135       1.75902175       0.00001084       0.00000971      -0.00001775
H        9.38860774      15.83566779       9.78944881       0.00001222      -0.00000372      -0.00000308
H        3.42854748      15.51364110       8.10650033       0.00000360       0.00000417      -0.00000875
H        4.77744792      21.40353483       8.94826723       0.00000205      -0.00000179      -0.00000444
H       10.98855157      17.06557841       3.44284297      -0.00000621       0.00000871       0.00001016
H       10.78632211      15.39469557       8.94731607      -0.00000880       0.00001081      -0.00000654
H        2.98768596      16.91148620       8.94846861      -0.00000239       0.00000338       0.00000621
H        3.37946842      21.84449352       8.10657293       0.00000641       0.00000204       0.00000234
H        9.26933761      23.19323597       8.94762272       0.00000013       0.00001028      -0.00000679
H        9.38833551      15.83564953       8.10562826       0.00001732       0.00000200       0.00000288
H        3.42880752      15.51365248       9.79032186       0.00000206      -0.00000534      -0.00000076
C        3.02779079      16.11501813       2.60216256       0.00000101      -0.00000531      -0.00000742
C       11.34014556      22.79512583       8.94730603       0.00000108       0.00000096      -0.00000907
C        9.30942793      22.39674893       2.60129289       0.00000291       0.00000657       0.00000214
C        3.97987898      21.44460463       2.60207776      -0.00003289       0.00000097       0.00003449