96
Lattice="12.809146746580849 -0.05231573189894782 -0.24498502326990748 0.11725812436036827 12.807512576357935 0.10076183779208894 0.25549660480244313 -0.11586889064970216 12.826522452411924" Properties=species:S:1:pos:R:3:forces:R:3 energy=-418.33121485293236 stress="0.005829172549105239 0.0001328029418240279 3.7031453459854076e-05 0.0001328029418240279 0.007691899309749952 -1.533764462132352e-05 3.7031453459854076e-05 -1.533764462132352e-05 0.00663557784282129" free_energy=-418.33121485293236 pbc="T T T"
I        5.42483751       0.05584826       5.39700496      -0.00000646      -0.00002469      -0.00000620
I        5.64847544      11.50433112      11.89964482       0.00001374      -0.00001577      -0.00001210
I        5.41967131       9.08971826       7.80771185      -0.00001371       0.00000214       0.00000339
I        6.21050800       2.66920538       8.97963594       0.00000133       0.00000116       0.00000128
I       -0.19359292      11.52861903      12.01321199       0.00000880      -0.00000419      -0.00000689
I       12.39018409       0.02710146       5.26508943       0.00000480      -0.00002292      -0.00000153
I       11.79024825       2.64997262       8.86917270      -0.00002334      -0.00002240       0.00000883
I       -0.16067854       9.10974709       7.91265683       0.00001459       0.00003165       0.00000405
I        9.21709603      12.66337206      15.30338159       0.00000744       0.00001159      -0.00000198
I        2.59497446       5.24758390       7.94512375       0.00000140      -0.00000054       0.00001643
I        2.56092362      -0.13480660       8.83342988       0.00000048      -0.00001998      -0.00001294
I        9.07836237      11.61525428       8.88484892      -0.00000091       0.00001626      -0.00000952
H        1.60830307       3.47613443       4.40136850      -0.00001191       0.00000540      -0.00000143
H        8.03084541       1.76004019       5.95117795       0.00003243       0.00002031       0.00000741
H        9.89615635       9.57126326       6.07063205      -0.00002052      -0.00000151      -0.00000491
H        1.72824574       3.16216683      10.72821375       0.00003785       0.00000530      -0.00001111
H        1.77974672       8.14270818      10.85061308      -0.00000974       0.00003046      -0.00000327
H        9.83097414       1.74308064       5.91972086       0.00000135      -0.00000276       0.00002364
H        9.96676386       1.94129592      12.41948660      -0.00003859      -0.00001155      -0.00000032
H        2.66167297       3.87938819      12.08829032      -0.00000513      -0.00000381       0.00002644
H        2.48352101       2.05997573       3.72786934      -0.00000283       0.00003861      -0.00000671
H        8.95568876       3.15912468       6.59338311       0.00001943      -0.00001235       0.00000638
H        8.10120885       9.58414238       6.10300925      -0.00003546       0.00000373       0.00000255
H        3.52300733       3.15088964      10.68737885       0.00002031       0.00001077      -0.00001415
H        2.54154141       2.94000333       6.58507906       0.00002558      -0.00002018      -0.00000695
H        9.92099191       7.94277732      10.79915371      -0.00000456      -0.00002973      -0.00001151
H        8.97170685       7.42142523       5.42602567       0.00002357      -0.00001671      -0.00002520
H        1.76360324       9.90121649       6.29940487      -0.00002546       0.00000822       0.00000885
H        3.35774652       1.60666444       5.94039630       0.00002195       0.00001123       0.00000344
H        9.08023073       9.28627414      10.20940751       0.00001474       0.00002173       0.00001343
H        9.79297086       8.12546721       4.12268945       0.00000871      -0.00000865      -0.00002693
H        2.58483614      10.60533929       4.99608986      -0.00001605      -0.00002176       0.00000791
H        1.68030709       1.62064714       5.97012214      -0.00000673       0.00002696       0.00001171
H        8.08151579       3.61270980       4.38089814      -0.00002291      -0.00000415       0.00001214
H        8.11248695       8.13704090       4.15354231       0.00000611       0.00000371       0.00000381
H        3.44408790       9.88971141       6.26854240       0.00000961      -0.00000775       0.00001454
C        2.68750799       8.74827857      10.93887846       0.00001325      -0.00002727       0.00001971
C        8.93502170       2.36688073       5.83821286      -0.00002333       0.00000303       0.00001152
C        9.05561981       2.01456730      11.81723355       0.00004724       0.00003435       0.00000930
C        2.63937322       3.08886925      11.33048808      -0.00008491       0.00001005      -0.00000159
Pb       5.80414693       5.73658451       8.20533052      -0.00000148      -0.00000544       0.00000707
Pb       5.87718096      12.13771530       8.63057050      -0.00002983       0.00000766       0.00001180
Pb      -0.40411801      12.19855985      15.16703172      -0.00001448       0.00000223      -0.00000077
Pb      -0.53604844      12.16321198       8.75272233       0.00000219      -0.00000338       0.00000037
N        2.52187264       2.21899542       5.83518116       0.00000409       0.00000161       0.00000768
N        9.08977739       8.55259931      10.94710450      -0.00001427       0.00001276      -0.00002416
N        8.96457472       8.20770027       4.74869285      -0.00001532      -0.00000947       0.00002764
N        2.59200086       9.81903859       5.67339280       0.00001329       0.00002372      -0.00001824
I        6.16350749       6.40667696      11.34892422      -0.00000546      -0.00001055       0.00000996
I        6.01446825       5.16353788       4.92427986      -0.00001569      -0.00000907       0.00001035
I        5.48439121       2.43424868      14.16819176      -0.00000947      -0.00000736      -0.00002008
I        6.13696533       8.93711080       2.61430414      -0.00000365       0.00000533       0.00001446
I       -0.95091198       5.19224669       5.05620071       0.00001057      -0.00000456      -0.00000083
I       12.00561894       6.38238300      11.23536379       0.00001080      -0.00004020      -0.00000012
I       11.71722802       8.91704896       2.50937522      -0.00000350       0.00003868       0.00000944
I       -0.09538352       2.45348446      14.27867502       0.00002033      -0.00002000      -0.00003293
I        9.00694609       6.25277129       7.90829834      -0.00000466       0.00001369       0.00000071
I        2.54962985      11.77398101       2.51379662      -0.00001417      -0.00000645      -0.00001585
I        2.73370971       6.29567971      14.36373652      -0.00000106       0.00000730      -0.00001518
I        8.87839279       5.35415142       1.48786703      -0.00001117      -0.00000915      -0.00000451
H        3.57973663       8.12674376      10.81202185      -0.00001444      -0.00000523      -0.00001892
H       10.03222223       9.76814656      12.39800899       0.00000169      -0.00000347       0.00000749
H        9.03337737       1.22411337      11.05936098      -0.00000603       0.00001982      -0.00000162
H        2.57716614       7.70414973       5.70428124       0.00000051       0.00001685      -0.00000462
H        3.40843110       3.45910265       4.36988331      -0.00001080      -0.00000032       0.00001146
H        8.23222827       9.78414202      12.43652894       0.00001666       0.00000774       0.00002556
H        8.97943094      10.32258463       4.71773029       0.00000548       0.00000640       0.00001239
H        1.66051225       8.45550825       4.35135186      -0.00000368       0.00000619       0.00000893
H        2.67878516       9.55340729      10.19723271      -0.00001248       0.00000834       0.00000220
H        9.13313226       8.35743405      13.05128909       0.00000792       0.00003525       0.00000312
H        8.17200327       1.95241352      12.46035422      -0.00002682       0.00000239      -0.00000172
H        3.45545993       8.44265200       4.31907980       0.00001373      -0.00000308       0.00000565
H        1.89102970       9.96817952      12.44937723      -0.00000300      -0.00000680       0.00001245
H        8.89769989       2.27943069       3.73607234      -0.00001491      -0.00002163       0.00002225
H        8.19522496       3.42951742      10.53280375       0.00001352      -0.00003274       0.00003364
H        3.49963808       1.67396783      12.61504412      -0.00002868      -0.00001082      -0.00000484
H        3.56834075       9.95494058      12.41385869       0.00001638      -0.00000115       0.00000139
H        9.75895819       3.59870144       4.35116220      -0.00002757       0.00000322      -0.00000466
H        9.87562348       3.41968712      10.49605101       0.00004610      -0.00001857      -0.00002603
H        2.62713046       0.98995530      11.33446430      -0.00000169      -0.00002566       0.00001003
H        2.73178227       8.62468828      13.03915246       0.00000827      -0.00000969      -0.00000343
H        8.24367567       7.95598860      10.83462847      -0.00000072      -0.00000904       0.00002505
H        9.06768595       4.11348997      11.81343829      -0.00000358       0.00001076       0.00001454
H        1.81923497       1.68393313      12.65179222      -0.00001755      -0.00001954       0.00000962
C        2.50423379       2.85231259       4.48294202       0.00000262      -0.00001925      -0.00002588
C        9.12445207       9.16259899      12.30968072       0.00002731      -0.00001415      -0.00002991
C        8.98701659       9.52006659       5.46310400       0.00003883       0.00000809      -0.00002575
C        2.56961385       8.50669559       4.95893663      -0.00000791       0.00000860      -0.00000788
Pb       6.00793273      12.17435893      15.04324983       0.00000916      -0.00001077       0.00000062
Pb       5.93490600       5.77323753      14.61798772       0.00001854       0.00002018      -0.00001281
Pb      -0.59294125       5.76468401       8.32649429       0.00000331       0.00003132       0.00000775
Pb      -0.46100826       5.80008170      14.74079253      -0.00000466      -0.00002379      -0.00000082
N        2.72222880       9.35833471      12.30142861      -0.00001175       0.00004735      -0.00001010
N        8.91738158       3.00035524       4.48604703       0.00006010      -0.00002116      -0.00003192
N        9.04812931       3.33827018      11.12372081      -0.00006388       0.00000745      -0.00003254
N        2.64674190       1.76522856      12.02411813       0.00007072       0.00001157       0.00001100
