768
Lattice="31.9041647668248 -0.2984105816409888 -0.0448845726052398 -0.15833243158624927 30.616362915541128 0.40574715219564506 -0.2687058913775321 -0.2214231929758207 17.420652531327843" Properties=species:S:1:pos:R:3:forces:R:3 energy=-3660.390177107156 stress="0.0022144756773999344 -0.00019518377783669236 0.00011471031355921687 -0.00019518377783669236 0.001030202100481134 7.748793453803876e-05 0.00011471031355921687 7.748793453803876e-05 0.00013093989243184422" free_energy=-3660.390177107156 pbc="T T T"
H        2.84084890       1.45416826       5.98900427      -0.00000365       0.00000174       0.00000041
H        3.24382372       1.91584197       8.23728437       0.00002252      -0.00001090      -0.00000794
H        2.85392988       0.30114080       8.75406919       0.00000195       0.00002386       0.00000581
H        2.21399530      -1.32514348       6.92379015      -0.00000611      -0.00004284       0.00001712
H        2.17150757      -0.64060114       5.29873468       0.00000371      -0.00001173      -0.00000749
H        7.18903946       1.84819807       1.71588976      -0.00000731       0.00001289       0.00000612
H        7.84924074       4.01417577       1.24365360       0.00000430       0.00001482      -0.00003003
H        7.73208186       4.54749785       2.90899118      -0.00000109      -0.00002272      -0.00000693
H        7.05126858       2.74633809       4.57502631      -0.00000127      -0.00002011      -0.00001517
H        6.70502861       1.18431704       3.89281269      -0.00001645      -0.00002370      -0.00000703
C        2.71389105       0.65996365       6.73149041       0.00000509      -0.00000750       0.00002209
C        7.27767985       2.57472319       2.53027690       0.00001005      -0.00003450      -0.00005327
N        2.97638113       0.95952341       7.98206209      -0.00000166      -0.00000032       0.00000327
N        2.32101207      -0.51622261       6.30129267       0.00000046       0.00004363      -0.00000820
N        7.67331673       3.78757000       2.22231409      -0.00001072       0.00001967       0.00005583
N        6.97034880       2.16162703       3.73842270       0.00000340       0.00006988       0.00005989
Pb       4.22086354      28.44222125       2.95677592       0.00001086       0.00001540       0.00000353
Pb       0.22787694      28.44921987       2.73523573      -0.00000245       0.00001337       0.00000081
I        6.19204285      29.40075838       5.34660353      -0.00000014      -0.00000323      -0.00000673
I        3.59065431       4.10939143       4.98147658       0.00001081       0.00000455       0.00000762
I        6.09324528      29.83928875       9.65768046       0.00000954       0.00001118      -0.00000813
I        3.61736482       4.22140625       9.41814302       0.00000157       0.00000351       0.00000870
I        7.49788679       2.88212806       7.27778487       0.00001418       0.00000167      -0.00000337
I        2.37562988       0.38737263       2.78778740      -0.00000530      -0.00001865      -0.00000842
H        3.32082749       7.07627014       1.63132597       0.00000070       0.00000291      -0.00000731
H        2.65894464       9.20070130       0.99314909       0.00000733       0.00000935      -0.00000201
H        2.46871119       9.76566319       2.64889469      -0.00000112       0.00000542      -0.00000098
H        3.08637471       8.09597392       4.43796541       0.00000134      -0.00000853      -0.00000378
H        3.53187667       6.51045302       3.87723833       0.00001034      -0.00000828       0.00001392
H        6.86368027       9.41647737       7.97472688      -0.00000828      -0.00000163      -0.00001403
H        7.24302539       8.89118421       5.74102715       0.00002491      -0.00003080      -0.00000582
H        6.78259173      10.46709126       5.16806177       0.00000522       0.00002554      -0.00002685
H        6.10862820      12.13547667       6.96068337       0.00000449      -0.00001990       0.00001335
H       15.19284814       9.24059968       8.68592133      -0.00002001       0.00000226       0.00002734
C        3.09715842       7.82630794       2.39559345       0.00000309      -0.00004133       0.00002589
C        6.69416991      10.17899081       7.20781746      -0.00000479      -0.00001622       0.00002575
N        2.67649536       9.00238490       1.99314396      -0.00000581      -0.00000014      -0.00002354
N        3.27304239       7.47505830       3.64776656      -0.00002849       0.00004928      -0.00004082
N        6.96511125       9.85183643       5.96481586      -0.00000902       0.00002814       0.00004540
N        6.24745865      11.34749974       7.60173992      -0.00000130       0.00001096      -0.00003737
Pb       5.56072776       5.47502260       7.16796986      -0.00000218      -0.00000837       0.00000098
Pb       1.59252881       5.44952550       7.16920040      -0.00000865      -0.00000201       0.00000209
I        7.73206003       6.87997358       9.11482311      -0.00000314      -0.00001242       0.00001246
I        2.27917482      12.09797832       8.95707047      -0.00002028      -0.00000065      -0.00000527
I        7.48070288       6.50463283       4.70083683      -0.00001238      -0.00000564      -0.00000155
I        2.19594183      11.50029387       4.63385229      -0.00000893      -0.00001737       0.00000839
I        6.22934370      10.54866121       2.46498704       0.00001684       0.00000829       0.00001164
I        3.52511776       8.06139638       7.24114240       0.00000723      -0.00002196      -0.00000522
H       10.74190127       1.28498018       7.76024606      -0.00000047       0.00000357       0.00001760
H       11.22572765       1.94905804       5.58333802       0.00001886       0.00000885       0.00000756
H       10.87945285       0.38709273       4.90101671       0.00001903       0.00000797       0.00000125
H       10.19883501      -1.41423024       6.56694711      -0.00000373       0.00000997       0.00001296
H       10.08178234      -0.88107503       8.23233761       0.00000583       0.00002662      -0.00001362
H       15.09000512       1.67902171       3.48723087      -0.00000071       0.00000175       0.00000867
H       14.68682880       1.21734101       1.23899246       0.00001297      -0.00000509       0.00001207
H       15.07673886       2.83201816       0.72215411       0.00001334      -0.00000507       0.00001515
H       15.71689456       4.45830703       2.55238023      -0.00000276      -0.00000402      -0.00002980
H       15.75947441       3.77377061       4.17743200      -0.00000476      -0.00000083      -0.00000679
C       10.65321201       0.55852398       6.94580378      -0.00001276       0.00000778      -0.00000454
C       15.21693449       2.47321540       2.74472851      -0.00002887      -0.00001544      -0.00006810
N       10.96042544       0.97173348       5.73766632      -0.00000686      -0.00004775      -0.00001167
N       10.25763316      -0.65436151       7.25368837      -0.00000245      -0.00005114       0.00000672
N       14.95431970       2.17365422       1.49418236      -0.00000674       0.00003145       0.00000365
N       15.60990327       3.64938681       3.17488471       0.00000242       0.00000653       0.00005441
Pb      12.21175804      28.27453236       2.71395912      -0.00000233      -0.00000533       0.00000464
Pb       8.21239949      28.35762860       2.92447004      -0.00000787      -0.00001490       0.00000437
I       14.18179143      29.64015255       4.90048761       0.00000021       0.00000693      -0.00001880
I       11.58048854       4.34893282       4.53523414       0.00000139       0.00000432       0.00000347
I       14.02081039      29.41741843       9.17414519      -0.00000198      -0.00000136      -0.00001886
I       11.54485446       3.79958722       8.93450635      -0.00001100       0.00001286      -0.00000454
I       15.55517503       2.74582705       6.68843466      -0.00000594       0.00001562       0.00000269
I       10.43296058       0.25110816       2.19831973       0.00000524       0.00000080       0.00000047
H       10.98792827       9.02499905       1.70427137       0.00000991      -0.00001733       0.00001663
H       10.60841894       9.55010150       3.93798918       0.00001014      -0.00002554      -0.00000816
H       11.06890448       7.97416841       4.51085546      -0.00000497       0.00003363      -0.00001555
H       11.74309465       6.30597987       2.71817062       0.00000578      -0.00003060       0.00003052
H       11.75684678       6.93978194       1.08001296       0.00000187      -0.00000922      -0.00003841
H       14.53095057      11.36506504       8.04783668      -0.00001136      -0.00000596      -0.00000917
H       14.31982446      11.93094672       5.80193996      -0.00000108      -0.00000971       0.00001139
H       14.76530999      10.34544458       5.24115690      -0.00000126      -0.00000747       0.00001856
H       15.38302638       8.67570246       7.03015278       0.00000121      -0.00001531       0.00000659
H        6.09493708      11.50179124       8.59888414      -0.00000136      -0.00000363      -0.00001791
C       11.15743564       8.26243769       2.47113461      -0.00000063       0.00001142      -0.00002043
C       14.75459305      10.61505032       7.28353882      -0.00000101       0.00003267      -0.00001678
N       10.88638367       8.58947579       3.71414220      -0.00000802       0.00002330       0.00005040
N       11.60425225       7.09398743       2.07715900      -0.00000950       0.00002887       0.00000876
N       14.57867431      10.96633778       6.03138132       0.00000750      -0.00000570       0.00000067
N       15.17526157       9.43895758       7.68593737       0.00001040       0.00000656      -0.00001203
Pb      13.55164035       5.30736804       6.92511709       0.00000112      -0.00001253       0.00000676
Pb       9.56010434       5.39200017       6.95737799      -0.00000691      -0.00000192      -0.00000142
I       15.43810883       6.23268671       9.43234681      -0.00000045      -0.00000599      -0.00001146
I        9.98525834      11.45077981       9.27445522       0.00000621       0.00000761       0.00000976
I       15.65577259       6.94106835       5.04521240       0.00001959       0.00000726      -0.00000072
I       10.37089004      11.93668963       4.97813743      -0.00000641       0.00000943      -0.00001015
I       14.32650845      10.37998033       2.43798115       0.00001250       0.00001783      -0.00001108
I       11.62234176       7.89277399       7.21396513      -0.00000282      -0.00000871      -0.00000672
H        2.70649595       1.34345666      14.69933054      -0.00000365       0.00000174       0.00000041
H        3.10947077       1.80513037      16.94761064       0.00002252      -0.00001090      -0.00000796
H        2.71957694       0.19042921      17.46439545       0.00000188       0.00002354       0.00000616
H        2.07964235      -1.43585508      15.63411642      -0.00000611      -0.00004285       0.00001712
H        2.03715462      -0.75131274      14.00906095       0.00000371      -0.00001173      -0.00000749
H        7.05468651       1.73748647      10.42621603      -0.00000731       0.00001289       0.00000611
H        7.71488779       3.90346417       9.95397987       0.00000430       0.00001483      -0.00003003
H        7.59772891       4.43678625      11.61931745      -0.00000109      -0.00002272      -0.00000693
H        6.91691563       2.63562649      13.28535258      -0.00000127      -0.00002011      -0.00001518
H        6.57067566       1.07360544      12.60313896      -0.00001644      -0.00002369      -0.00000704
C        2.57953810       0.54925205      15.44181668       0.00000508      -0.00000750       0.00002207
C        7.14332690       2.46401159      11.24060317       0.00001005      -0.00003450      -0.00005327
N        2.84202818       0.84881181      16.69238836      -0.00000159       0.00000000       0.00000293
N        2.18665912      -0.62693421      15.01161894       0.00000047       0.00004364      -0.00000820
N        7.53896378       3.67685840      10.93264036      -0.00001072       0.00001967       0.00005582
N        6.83599585       2.05091543      12.44874897       0.00000340       0.00006988       0.00005989
Pb       4.08651059      28.33150965      11.66710219       0.00001088       0.00001541       0.00000350
Pb       0.09352399      28.33850827      11.44556200      -0.00000244       0.00001337       0.00000081
I        6.05768990      29.29004678      14.05692980      -0.00000014      -0.00000323      -0.00000673
I        3.45630136       3.99867983      13.69180285       0.00001081       0.00000455       0.00000762
I        6.22759822      29.95000034       0.94735420       0.00000956       0.00001121      -0.00000817
I        3.75171777       4.33211785       0.70781675       0.00000156       0.00000349       0.00000873
I        7.36353384       2.77141646      15.98811114       0.00001419       0.00000166      -0.00000337
I        2.24127693       0.27666103      11.49811367      -0.00000529      -0.00001865      -0.00000843
H        3.18647454       6.96555854      10.34165224       0.00000070       0.00000291      -0.00000731
H        2.52459169       9.08998970       9.70347536       0.00000733       0.00000935      -0.00000200
H        2.33435824       9.65495159      11.35922096      -0.00000112       0.00000543      -0.00000097
H        2.95202176       7.98526232      13.14829168       0.00000134      -0.00000853      -0.00000378
H        3.39752372       6.39974142      12.58756460       0.00001034      -0.00000828       0.00001392
H        6.72932732       9.30576577      16.68505315      -0.00000828      -0.00000163      -0.00001403
H        7.10867244       8.78047261      14.45135342       0.00002491      -0.00003080      -0.00000582
H        6.64823878      10.35637966      13.87838804       0.00000522       0.00002554      -0.00002685
H        5.97427525      12.02476507      15.67100964       0.00000450      -0.00001990       0.00001335
H       15.05849519       9.12988808      17.39624760      -0.00002001       0.00000226       0.00002734
C        2.96280547       7.71559634      11.10591972       0.00000309      -0.00004133       0.00002589
C        6.55981696      10.06827921      15.91814373      -0.00000479      -0.00001621       0.00002574
N        2.54214241       8.89167330      10.70347023      -0.00000581      -0.00000014      -0.00002355
N        3.13868944       7.36434670      12.35809283      -0.00002849       0.00004928      -0.00004082
N        6.83075830       9.74112483      14.67514213      -0.00000902       0.00002814       0.00004540
N        6.11310570      11.23678814      16.31206619      -0.00000130       0.00001096      -0.00003739
Pb       5.42637481       5.36431100      15.87829613      -0.00000217      -0.00000836       0.00000096
Pb       1.45817586       5.33881390      15.87952667      -0.00000864      -0.00000200       0.00000208
I        7.86641298       6.99068518       0.40449684      -0.00000315      -0.00001242       0.00001248
I        2.41352777      12.20868992       0.24674420      -0.00002028      -0.00000064      -0.00000524
I        7.34634993       6.39392123      13.41116310      -0.00001238      -0.00000564      -0.00000155
I        2.06158888      11.38958227      13.34417856      -0.00000892      -0.00001737       0.00000837
I        6.09499075      10.43794961      11.17531331       0.00001685       0.00000830       0.00001162
I        3.39076481       7.95068478      15.95146867       0.00000723      -0.00002196      -0.00000523
H       10.60754832       1.17426858      16.47057233      -0.00000047       0.00000357       0.00001760
H       11.09137470       1.83834644      14.29366429       0.00001886       0.00000885       0.00000756
H       10.74509990       0.27638113      13.61134298       0.00001903       0.00000797       0.00000124
H       10.06448206      -1.52494184      15.27727338      -0.00000373       0.00000997       0.00001296
H        9.94742939      -0.99178663      16.94266388       0.00000583       0.00002662      -0.00001362
H       14.95565217       1.56831011      12.19755714      -0.00000071       0.00000175       0.00000867
H       14.55247585       1.10662941       9.94931873       0.00001297      -0.00000510       0.00001206
H       14.94238591       2.72130656       9.43248038       0.00001334      -0.00000507       0.00001515
H       15.58254161       4.34759543      11.26270650      -0.00000276      -0.00000402      -0.00002980
H       15.62512146       3.66305901      12.88775827      -0.00000476      -0.00000082      -0.00000679
C       10.51885906       0.44781238      15.65613005      -0.00001276       0.00000779      -0.00000454
C       15.08258154       2.36250380      11.45505478      -0.00002887      -0.00001544      -0.00006810
N       10.82607249       0.86102188      14.44799259      -0.00000686      -0.00004775      -0.00001166
N       10.12328021      -0.76507311      15.96401464      -0.00000245      -0.00005115       0.00000671
N       14.81996675       2.06294262      10.20450863      -0.00000674       0.00003146       0.00000365
N       15.47555032       3.53867521      11.88521098       0.00000243       0.00000653       0.00005441
Pb      12.07740509      28.16382076      11.42428539      -0.00000231      -0.00000532       0.00000462
Pb       8.07804654      28.24691700      11.63479631      -0.00000788      -0.00001488       0.00000435
I       14.04743848      29.52944095      13.61081388       0.00000022       0.00000693      -0.00001881
I       11.44613559       4.23822122      13.24556041       0.00000140       0.00000432       0.00000347
I       14.15516333      29.52813002       0.46381893      -0.00000197      -0.00000135      -0.00001887
I       11.67920741       3.91029882       0.22418008      -0.00001102       0.00001284      -0.00000451
I       15.42082208       2.63511545      15.39876093      -0.00000593       0.00001563       0.00000269
I       10.29860763       0.14039656      10.90864600       0.00000525       0.00000080       0.00000047
H       10.85357532       8.91428745      10.41459764       0.00000991      -0.00001733       0.00001663
H       10.47406599       9.43938990      12.64831545       0.00001014      -0.00002554      -0.00000816
H       10.93455153       7.86345681      13.22118173      -0.00000497       0.00003363      -0.00001555
H       11.60874170       6.19526827      11.42849689       0.00000578      -0.00003060       0.00003052
H       11.62249383       6.82907034       9.79033923       0.00000187      -0.00000923      -0.00003841
H       14.39659762      11.25435344      16.75816295      -0.00001136      -0.00000596      -0.00000917
H       14.18547151      11.82023512      14.51226623      -0.00000108      -0.00000971       0.00001140
H       14.63095704      10.23473298      13.95148317      -0.00000126      -0.00000747       0.00001856
H       15.24867343       8.56499086      15.74047905       0.00000121      -0.00001532       0.00000659
H        5.96058413      11.39107964      17.30921041      -0.00000136      -0.00000363      -0.00001790
C       11.02308269       8.15172609      11.18146088      -0.00000063       0.00001142      -0.00002043
C       14.62024010      10.50433872      15.99386509      -0.00000101       0.00003266      -0.00001678
N       10.75203072       8.47876419      12.42446847      -0.00000802       0.00002330       0.00005040
N       11.46989930       6.98327583      10.78748527      -0.00000950       0.00002887       0.00000875
N       14.44432136      10.85562618      14.74170759       0.00000751      -0.00000569       0.00000066
N       15.04090862       9.32824598      16.39626364       0.00001040       0.00000657      -0.00001205
Pb      13.41728740       5.19665644      15.63544336       0.00000114      -0.00001252       0.00000674
Pb       9.42575139       5.28128857      15.66770426      -0.00000691      -0.00000191      -0.00000144
I       15.57246178       6.34339831       0.72202054      -0.00000046      -0.00000599      -0.00001145
I       10.11961129      11.56149141       0.56412895       0.00000619       0.00000762       0.00000979
I       15.52141964       6.83035675      13.75553867       0.00001960       0.00000726      -0.00000072
I       10.23653709      11.82597803      13.68846370      -0.00000640       0.00000944      -0.00001018
I       14.19215550      10.26926873      11.14830742       0.00001251       0.00001782      -0.00001108
I       11.48798881       7.78206239      15.92429140      -0.00000281      -0.00000870      -0.00000672
H        2.76168268      16.76234972       6.19187785      -0.00000365       0.00000173       0.00000040
H        3.16465750      17.22402343       8.44015795       0.00002252      -0.00001090      -0.00000794
H        2.77476366      15.60932226       8.95694277       0.00000195       0.00002386       0.00000582
H        2.13482908      13.98303798       7.12666373      -0.00000611      -0.00004283       0.00001713
H        2.09234135      14.66758032       5.50160826       0.00000371      -0.00001174      -0.00000748
H        7.10987324      17.15637953       1.91876334      -0.00000731       0.00001289       0.00000612
H        7.77007452      19.32235723       1.44652718       0.00000430       0.00001483      -0.00003003
H        7.65291564      19.85567931       3.11186476      -0.00000109      -0.00002272      -0.00000694
H        6.97210236      18.05451955       4.77789989      -0.00000127      -0.00002011      -0.00001518
H        6.62586239      16.49249850       4.09568627      -0.00001644      -0.00002369      -0.00000704
C        2.63472483      15.96814511       6.93436399       0.00000503      -0.00000768       0.00002207
C        7.19851363      17.88290465       2.73315048       0.00001005      -0.00003450      -0.00005327
N        2.89721491      16.26770487       8.18493567      -0.00000166      -0.00000031       0.00000324
N        2.24184585      14.79195885       6.50416625       0.00000052       0.00004382      -0.00000818
N        7.59415051      19.09575146       2.42518767      -0.00001072       0.00001966       0.00005582
N        6.89118258      17.46980849       3.94129628       0.00000340       0.00006987       0.00005990
Pb       4.30002975      13.13403979       2.75390235       0.00001088       0.00001541       0.00000349
Pb       0.30704315      13.14103841       2.53236216      -0.00000244       0.00001337       0.00000078
I        6.27120906      14.09257692       5.14372996      -0.00000013      -0.00000323      -0.00000673
I        3.51148809      19.41757289       5.18435016       0.00001081       0.00000455       0.00000762
I        6.17241149      14.53110729       9.45480689       0.00000955       0.00001119      -0.00000815
I        3.53819860      19.52958771       9.62101660       0.00000157       0.00000351       0.00000870
I        7.41872057      18.19030952       7.48065845       0.00001418       0.00000166      -0.00000338
I        2.29646366      15.69555409       2.99066098      -0.00000529      -0.00001866      -0.00000843
H        3.24166127      22.38445160       1.83419955       0.00000070       0.00000291      -0.00000731
H        2.57977842      24.50888276       1.19602267       0.00000733       0.00000935      -0.00000200
H        2.38954497      25.07384465       2.85176827      -0.00000112       0.00000543      -0.00000098
H        3.00720849      23.40415538       4.64083899       0.00000134      -0.00000853      -0.00000378
H        3.45271045      21.81863448       4.08011191       0.00001034      -0.00000828       0.00001392
H        6.78451405      24.72465883       8.17760046      -0.00000828      -0.00000163      -0.00001403
H        7.16385917      24.19936567       5.94390073       0.00002491      -0.00003080      -0.00000582
H        6.70342551      25.77527272       5.37093535       0.00000522       0.00002554      -0.00002685
H        6.02946198      27.44365813       7.16355695       0.00000450      -0.00001990       0.00001335
H       15.11368192      24.54878114       8.88879491      -0.00002001       0.00000226       0.00002734
C        3.01799220      23.13448940       2.59846703       0.00000309      -0.00004133       0.00002589
C        6.61500369      25.48717227       7.41069104      -0.00000479      -0.00001622       0.00002574
N        2.59732914      24.31056636       2.19601754      -0.00000581      -0.00000014      -0.00002355
N        3.19387617      22.78323976       3.85064014      -0.00002849       0.00004928      -0.00004082
N        6.88594503      25.16001789       6.16768944      -0.00000902       0.00002814       0.00004540
N        6.16829243      26.65568120       7.80461350      -0.00000130       0.00001096      -0.00003739
Pb       5.48156154      20.78320406       7.37084344      -0.00000218      -0.00000837       0.00000098
Pb       1.51336259      20.75770696       7.37207398      -0.00000863      -0.00000201       0.00000209
I        7.65289381      22.18815504       9.31769669      -0.00000313      -0.00001242       0.00001246
I        2.20000860      27.40615978       9.15994405      -0.00002027      -0.00000064      -0.00000528
I        7.40153666      21.81281429       4.90371041      -0.00001238      -0.00000564      -0.00000155
I        2.11677561      26.80847533       4.83672587      -0.00000892      -0.00001737       0.00000837
I        6.15017748      25.85684267       2.66786062       0.00001685       0.00000829       0.00001162
I        3.44595154      23.36957784       7.44401598       0.00000724      -0.00002196      -0.00000523
H       10.66273505      16.59316164       7.96311964      -0.00000047       0.00000356       0.00001761
H       11.14656143      17.25723950       5.78621160       0.00001886       0.00000885       0.00000756
H       10.80028663      15.69527419       5.10389029       0.00001903       0.00000797       0.00000124
H       10.11966879      13.89395122       6.76982069      -0.00000373       0.00000998       0.00001296
H       10.00261612      14.42710643       8.43521119       0.00000584       0.00002663      -0.00001362
H       15.01083890      16.98720317       3.69010445      -0.00000071       0.00000175       0.00000867
H       14.60766258      16.52552247       1.44186604       0.00001297      -0.00000509       0.00001207
H       14.99757264      18.14019962       0.92502769       0.00001334      -0.00000507       0.00001515
H       15.63772834      19.76648849       2.75525381      -0.00000276      -0.00000402      -0.00002980
H       15.68030819      19.08195207       4.38030558      -0.00000476      -0.00000083      -0.00000678
C       10.57404579      15.86670544       7.14867736      -0.00001283       0.00000755      -0.00000448
C       15.13776827      17.78139686       2.94760209      -0.00002887      -0.00001544      -0.00006810
N       10.88125922      16.27991494       5.94053990      -0.00000687      -0.00004778      -0.00001164
N       10.17846694      14.65381995       7.45656195      -0.00000237      -0.00005091       0.00000662
N       14.87515348      17.48183568       1.69705594      -0.00000674       0.00003145       0.00000364
N       15.53073705      18.95756827       3.37775829       0.00000243       0.00000652       0.00005441
Pb      12.29092425      12.96635090       2.51108555      -0.00000231      -0.00000532       0.00000462
Pb       8.29156570      13.04944714       2.72159647      -0.00000786      -0.00001489       0.00000434
I       14.26095764      14.33197109       4.69761404       0.00000022       0.00000693      -0.00001881
I       11.50132232      19.65711428       4.73810772       0.00000139       0.00000432       0.00000347
I       14.09997660      14.10923697       8.97127162      -0.00000197      -0.00000136      -0.00001887
I       11.46568824      19.10776868       9.13737993      -0.00001100       0.00001286      -0.00000455
I       15.47600881      18.05400851       6.89130824      -0.00000593       0.00001563       0.00000269
I       10.35379436      15.55928962       2.40119331       0.00000524       0.00000078       0.00000047
H       10.90876205      24.33318051       1.90714495       0.00000991      -0.00001733       0.00001663
H       10.52925272      24.85828296       4.14086276       0.00001014      -0.00002554      -0.00000816
H       10.98973826      23.28234987       4.71372904      -0.00000497       0.00003363      -0.00001555
H       11.66392843      21.61416133       2.92104420       0.00000578      -0.00003060       0.00003052
H       11.67768056      22.24796340       1.28288654       0.00000187      -0.00000923      -0.00003841
H       14.45178435      26.67324650       8.25071026      -0.00001136      -0.00000596      -0.00000917
H       14.24065824      27.23912818       6.00481354      -0.00000108      -0.00000971       0.00001140
H       14.68614377      25.65362604       5.44403048      -0.00000126      -0.00000747       0.00001856
H       15.30386016      23.98388392       7.23302636       0.00000121      -0.00001531       0.00000659
H        6.01577086      26.80997270       8.80175772      -0.00000136      -0.00000363      -0.00001790
C       11.07826942      23.57061915       2.67400819      -0.00000063       0.00001142      -0.00002043
C       14.67542683      25.92323178       7.48641240      -0.00000101       0.00003266      -0.00001678
N       10.80721745      23.89765725       3.91701578      -0.00000802       0.00002330       0.00005040
N       11.52508603      22.40216889       2.28003258      -0.00000950       0.00002887       0.00000875
N       14.49950809      26.27451924       6.23425490       0.00000751      -0.00000569       0.00000066
N       15.09609535      24.74713904       7.88881095       0.00001040       0.00000657      -0.00001205