768
Lattice="39.53992396630654 -0.19618913249635872 0.25293795356352633 0.29954919847998923 23.344561730216466 -0.09824499533453598 -0.0578937830636773 -0.13948570676524066 18.484753814738525" Properties=species:S:1:pos:R:3:forces:R:3 energy=-3663.186341733595 stress="0.002999208084312521 9.911891518659892e-05 -0.00014382400748121123 9.911891518659892e-05 0.0025866756781340564 0.00021309986455993185 -0.00014382400748121123 0.00021309986455993185 0.0026553899854134485" free_energy=-3663.186341733595 pbc="T T T"
H        4.73911739      16.03026529       2.63807594       0.00000228       0.00000378      -0.00000600
H        9.22925617      16.19105058       0.21566779       0.00000683      -0.00000880      -0.00000091
H       -0.66247611      10.06729669       2.27850105       0.00000234       0.00000397      -0.00000427
H       14.56265261      10.32607738      -0.20158156       0.00001788       0.00001368      -0.00000642
H        3.01593548      15.16836611      15.06191470       0.00000086      -0.00000043      -0.00000277
H        8.94015043      14.32558454      -1.16588787      -0.00001017      -0.00000006       0.00000225
H        0.96972698       9.19914342      17.57718203       0.00000289       0.00000207       0.00000907
H       14.49404396       8.21562233      -1.18394920      -0.00001156       0.00000123       0.00000976
H        1.82495131       5.35014053       2.80722033      -0.00000398      -0.00000496      -0.00000458
H       10.59622380      13.78253619      -0.92023407      -0.00000021       0.00001127       0.00001184
H        1.86235975      10.72060399      17.46500367       0.00000610      -0.00000199       0.00000131
H       12.93506468       7.82607293      -0.46585036      -0.00000609       0.00000535      -0.00000990
H        3.33391802       6.61553915       1.31362125      -0.00000183       0.00000229       0.00000608
H       11.97635228      15.09446990       0.69031014       0.00002331      -0.00001438      -0.00000366
H        0.99304939      12.55751109       2.12289852       0.00001155       0.00000344      -0.00000026
H       11.98479473       9.50353434       1.06638858       0.00000730      -0.00000860      -0.00000292
H        4.98722297       6.03205455       1.15516961      -0.00000749       0.00000356      -0.00000236
H       10.92401939       5.05893003      -1.33526712       0.00000750      -0.00002141       0.00000903
H       -0.55767304      12.20346023       1.35994954       0.00000694      -0.00000039       0.00000304
H       12.83914487      10.99873543       5.84596125       0.00000419       0.00001417       0.00000059
C        3.78108260       4.92218845       2.36187966      -0.00001608      -0.00001488       0.00001688
C       10.04995306      15.47738571       0.08663962       0.00001701       0.00002465       0.00002169
C        0.19119900      10.71397551       2.50366537       0.00000231       0.00001373      -0.00000730
C       13.71334019       9.66392919      -0.00594915      -0.00001858      -0.00001423       0.00001242
N        2.61923718       4.72197256       2.94126330       0.00001482       0.00001930      -0.00000809
N        9.84409356      14.44365180      -0.69796627      -0.00001737      -0.00002632      -0.00002349
N        1.06565608      10.14106838      17.18019174      -0.00000725       0.00000219      -0.00000592
N       13.70129610       8.48814096      -0.59567768       0.00001897      -0.00001484      -0.00000582
N        4.05719732       5.93572731       1.57223333       0.00001129       0.00001490      -0.00000327
N       11.16828885      15.71735017       0.73258006      -0.00002826       0.00002063      -0.00001306
N        0.22704440      11.90492566       1.94598997      -0.00001735      -0.00001200      -0.00000454
N       12.77741167      10.09938717       0.80443628      -0.00000930       0.00001150       0.00001149
Pb      37.46268823       5.76378273      19.39092712       0.00000090      -0.00000421       0.00000552
Pb      15.85447602      14.29825710       2.71588711       0.00000282      -0.00000402      -0.00000453
Pb       5.83099502      11.98507865      -0.35869932       0.00000085       0.00000306      -0.00000756
Pb       8.08771947       8.44505709       1.91393610      -0.00000248       0.00000114      -0.00000457
I       36.66223622       7.99766629       3.20954936      -0.00001007       0.00000380       0.00000835
I       36.61260523      11.96164372       0.45341187      -0.00000352       0.00000233      -0.00000343
I        6.76778478      14.04817023       1.98784134      -0.00000160       0.00000078      -0.00000413
I        7.08124108       6.41849975      -0.39641948      -0.00000655       0.00000145      -0.00000655
I       14.71089660       4.75439806      -0.05538413      -0.00000007       0.00000186       0.00000031
I       38.66082217      15.46692084       2.86957825       0.00000261       0.00000169      -0.00000363
I        8.94739285      10.62028302      -0.36622814      -0.00000804      -0.00000710       0.00000284
I        4.97661182       9.80941521       1.94025909      -0.00000583      -0.00000817      -0.00000378
I        0.81910114       7.15034725      19.14595743      -0.00000221       0.00000839       0.00000152
I       12.96754877      13.08417919       2.77438978       0.00000883       0.00000458      -0.00000721
I        2.96532529      13.24706044      -0.42872048      -0.00000140       0.00000379       0.00000031
I       10.93674989       7.13424714       1.75773999      -0.00000076       0.00000684      -0.00000231
H        4.72468036      15.99542829       7.25920321      -0.00000310      -0.00000371       0.00000129
H        9.21476504      16.15619485       4.83687235       0.00000122       0.00000551       0.00000259
H       -0.67694582      10.03242103       6.89968042      -0.00000310       0.00000171      -0.00000102
H       14.54820622      10.29115958       4.41956660      -0.00000179       0.00000044       0.00000512
H        3.05928566      15.27297729       1.19834050      -0.00000042       0.00000395      -0.00001129
H        8.92567039      14.29069107       3.45536697      -0.00000389      -0.00000164      -0.00000038
H        1.01317728       9.30377248       3.71363194       0.00000286       0.00000413      -0.00000627
H       14.47958135       8.18067815       3.43726075       0.00000087       0.00000131       0.00000051
H        1.81048681       5.31530252       7.42849107      -0.00001694       0.00000862      -0.00001200
H       10.58175152      13.74766634       3.70102681      -0.00000753       0.00000286      -0.00000588
H        1.90580720      10.82523240       3.60142811       0.00000396       0.00000339       0.00000752
H       12.92059000       7.79116683       4.15535427       0.00000495       0.00000825      -0.00000353
H        3.31943758       6.58066966       5.93484534       0.00000059       0.00000461       0.00000462
H       11.96188081      15.05966184       5.31151394       0.00000436      -0.00000770      -0.00000636
H        0.97857123      12.52264053       6.74406957      -0.00000126      -0.00000593       0.00000774
H       11.97032253       9.46868430       5.68752868       0.00000544       0.00000399      -0.00000428
H        4.97272913       5.99715818       5.77635668      -0.00001274       0.00000741       0.00000574
H       10.90955823       5.02404987       3.28590564       0.00000585      -0.00001431       0.00000180
H       -0.57214483      12.16857894       5.98111404      -0.00000240      -0.00000471      -0.00000444
H       12.82463930      10.96384771      10.46714489       0.00000083      -0.00000238       0.00000691
C        3.76659711       4.88731048       6.98309239       0.00001103      -0.00000904      -0.00000112
C       10.03546977      15.44253753       4.70785592      -0.00000095      -0.00001981      -0.00001173
C        0.17672173      10.67910717       7.12485109       0.00001418      -0.00000078       0.00000036
C       13.69888285       9.62902725       4.61520969       0.00000287       0.00002913       0.00000862
N        2.60476258       4.68711647       7.56250412       0.00000213      -0.00004523       0.00003237
N        9.82961332      14.40877628       3.92328383       0.00000182       0.00001328       0.00001192
N        1.10910070      10.24569397       3.31663068      -0.00000156      -0.00002100       0.00000715
N       13.68683351       8.45322014       4.02552037       0.00000223      -0.00002896      -0.00002052
N        4.04271183       5.90084695       6.19344312       0.00002229       0.00001010      -0.00001632
N       11.15381052      15.68253482       5.35377461       0.00000781       0.00001123       0.00001030
N        0.21256958      11.87005054       6.56716137       0.00000906       0.00000669       0.00000291
N       12.76294647      10.06452333       5.42556576      -0.00001509      -0.00003423       0.00001843
Pb      37.50613000       5.86840172       5.52736462       0.00000028      -0.00000342       0.00000023
Pb      15.83999074      14.26337754       7.33706534       0.00000848      -0.00000070      -0.00000644
Pb       5.81652355      11.95021547       4.26248111       0.00000411      -0.00000977       0.00000497
Pb       8.07321496       8.41019337       6.53511712       0.00000580      -0.00000609       0.00000379
I       36.64775361       7.96279174       7.83074140      -0.00000186       0.00000120       0.00000102
I       36.59812754      11.92677680       5.07459574      -0.00000356      -0.00000016      -0.00000143
I        6.75329379      14.01329674       6.60903660       0.00000011       0.00000003      -0.00000456
I        7.06673607       6.38363251       4.22476080       0.00000672       0.00000067      -0.00000098
I       14.69643181       4.71954505       4.56579656      -0.00000058      -0.00000276      -0.00000073
I       38.64634620      15.43205084       7.49076142       0.00000389       0.00000720      -0.00000495
I        8.93291510      10.58540837       4.25496124      -0.00000266       0.00000541      -0.00000130
I        4.96210530       9.77454385       6.56142988       0.00000577       0.00000314       0.00000318
I        0.86253065       7.25498560       5.28240337      -0.00000018       0.00000283       0.00000209
I       12.95306065      13.04931388       7.39553871      -0.00000344      -0.00000060       0.00000433
I        2.95086270      13.21221151       4.19245252      -0.00000910       0.00000367       0.00000119
I       10.92225858       7.09939849       6.37892611      -0.00000336       0.00000384       0.00000516
H        4.71020268      15.96056709      11.88041833       0.00000095      -0.00000731       0.00000110
H        9.20033084      16.12132532       9.45806828       0.00000228       0.00000014      -0.00000090
H       -0.69141603       9.99757015      11.52084145      -0.00000375      -0.00000017      -0.00000159
H       14.53371985      10.25629491       9.04076889       0.00004113       0.00002960      -0.00001028
H        3.04483193      15.23812855       5.81949455      -0.00000276      -0.00000513      -0.00000027
H        8.91116280      14.25581759       8.07657765       0.00000017       0.00000151      -0.00000036
H        0.99869631       9.26891891       8.33483804      -0.00000478      -0.00000220      -0.00000536
H       14.46511872       8.14582550       8.05843424      -0.00001022       0.00000726      -0.00000111
H        1.79597252       5.28043255      12.04957886      -0.00003357       0.00000869       0.00000951
H       10.56723634      13.71275991       8.32220583       0.00000473      -0.00000300      -0.00001165
H        1.89131131      10.79038880       8.22264033       0.00000393      -0.00000285       0.00000244
H       12.90611276       7.75630344       8.77648895       0.00001671       0.00002265      -0.00000033
H        3.30498818       6.54580965      10.55602215       0.00000451      -0.00000361       0.00000840
H       11.94743654      15.02473628       9.93264301      -0.00000614      -0.00000011      -0.00000746
H        0.96412647      12.48777606      11.36528676      -0.00000495      -0.00000711       0.00000251
H       11.95582502       9.43379230      10.30868931       0.00002009       0.00001680      -0.00000822
H        4.95828457       5.96229951      10.39759785       0.00001963       0.00000558      -0.00001369
H       10.89509304       4.98920650       7.90713027      -0.00000118       0.00000545      -0.00000096
H       -0.58659080      12.13374300      10.60231853      -0.00000035      -0.00000313      -0.00000067
H       12.81022492      10.92895787      15.08837405      -0.00000080      -0.00000399      -0.00000665
C        3.75210696       4.85245275      11.60428921      -0.00000038      -0.00004632       0.00002658
C       10.02101708      15.40764962       9.32903415      -0.00000525      -0.00001681      -0.00000965
C        0.16225974      10.64424109      11.74602448       0.00000026      -0.00001649       0.00000533
C       13.68439699       9.59415795       9.23638968      -0.00004645      -0.00002982       0.00001673
N        2.59024540       4.65225443      12.18364677       0.00005368      -0.00000360      -0.00000864
N        9.81511817      14.37388713       8.54447479      -0.00000443       0.00001993       0.00000545
N        1.09461357      10.21084047       7.93783661      -0.00000864      -0.00000488      -0.00000837
N       13.67235891       8.41835933       8.64668242       0.00000712      -0.00003442      -0.00001951
N        4.02825276       5.86598772      10.81464896      -0.00002588       0.00001773       0.00000133
N       11.13938048      15.64762710       9.97492062       0.00001420       0.00000281       0.00000805
N        0.19811911      11.83519665      11.18836224       0.00000134       0.00001122      -0.00000123
N       12.74844943      10.02963814      10.04674113      -0.00002615      -0.00000327       0.00001536
Pb      37.49165214       5.83352555      10.14855014      -0.00000602      -0.00000293      -0.00000333
Pb      15.82551056      14.22851810      11.95825540      -0.00000261      -0.00000310      -0.00000437
Pb       5.80202273      11.91533601       8.88366743      -0.00000402      -0.00000644      -0.00000267
Pb       8.05874411       8.37532673      11.15631005      -0.00000758      -0.00000456      -0.00000308
I       36.63328272       7.92792870      12.45190858      -0.00000529       0.00000127       0.00000555
I       36.58366206      11.89190555       9.69579068       0.00000499      -0.00000069      -0.00000618
I        6.73880436      13.97842411      11.23020882      -0.00000119      -0.00000172       0.00000056
I        7.05225768       6.34876955       8.84594865       0.00000621       0.00000105       0.00000674
I       14.68195455       4.68467732       9.18699612      -0.00000464       0.00000659       0.00000023
I       38.63187294      15.39718192      12.11194757       0.00000141       0.00000388      -0.00000112
I        8.91841432      10.55054437       8.87614280       0.00000334      -0.00000021      -0.00000033
I        4.94762545       9.73966977      11.18263070       0.00000092       0.00000243      -0.00000320
I        0.84806279       7.22010300       9.90358018      -0.00000474       0.00000824       0.00000282
I       12.93858700      13.01442941      12.01671555       0.00000528      -0.00000342       0.00000799
I        2.93636823      13.17735092       8.81363679       0.00000029      -0.00000186       0.00000089
I       10.90777170       7.06452086      11.00011564       0.00000911      -0.00000154      -0.00000119
H        4.69575599      15.92570220      16.50164359      -0.00000339      -0.00000267      -0.00000285
H        9.18586906      16.08647227      14.07922363      -0.00000167       0.00000389       0.00000975
H       -0.70590497       9.96268027      16.14203413      -0.00000138      -0.00000633      -0.00000591
H       14.51926349      10.22141831      13.66193613       0.00001956       0.00001793      -0.00000031
H        3.03037038      15.20324994      10.44069378       0.00000864      -0.00001815      -0.00000501
H        8.89670045      14.22100354      12.69768662       0.00000122      -0.00001219       0.00000325
H        0.98421598       9.23401683      12.95598292      -0.00000517       0.00000088       0.00000101
H       14.45061886       8.11097005      12.67956308      -0.00000050       0.00000035       0.00000725
H        1.78153433       5.24555949      16.67081543      -0.00001817       0.00000457      -0.00000033
H       10.55275917      13.67790901      12.94333872       0.00001009      -0.00000346      -0.00000670
H        1.87685426      10.75547312      12.84381129      -0.00000033       0.00000216       0.00000061
H       12.89162758       7.72144666      13.39765011       0.00000972       0.00001170      -0.00000334
H        3.29050473       6.51097422      15.17723340      -0.00000829       0.00000300      -0.00000535
H       11.93293701      14.98981613      14.55386147       0.00000291       0.00000426      -0.00000450
H        0.94963944      12.45288222      15.98644829      -0.00000880       0.00000070      -0.00000368
H       11.94139599       9.39891224      14.92991000       0.00000519       0.00000473      -0.00000065
H        4.94379809       5.92746836      15.01874890      -0.00000588       0.00000682      -0.00000355
H       10.88057219       4.95432545      12.52831846       0.00000377      -0.00001989      -0.00000124
H       -0.60107901      12.09884047      15.22348470      -0.00000146       0.00001241      -0.00000195
H       12.85360328      11.03359137       1.22485304       0.00000367      -0.00000487      -0.00000913
C        3.73765499       4.81759129      16.22544638       0.00001963      -0.00000899      -0.00000655
C       10.00654468      15.37278298      13.95019903      -0.00000071      -0.00001115      -0.00001358
C        0.14777019      10.60935407      16.36721059       0.00000412      -0.00000411       0.00000777
C       13.66993957       9.55928466      13.85756762      -0.00001351      -0.00000968       0.00000279
N        2.57581261       4.61737753      16.80483557      -0.00000125      -0.00001896       0.00001061
N        9.80064924      14.33904692      13.16560388      -0.00001395       0.00002856       0.00001467
N        1.08014776      10.17594325      12.55899642       0.00000365       0.00001217      -0.00000497
N       13.65787543       8.38349866      13.26783539      -0.00000865      -0.00001615      -0.00000269
N        4.01377634       5.83114634      15.43582251       0.00000883      -0.00000610       0.00001130
N       11.12489072      15.61272003      14.59613143       0.00000087      -0.00001553      -0.00002152
N        0.18363034      11.80030259      15.80953345       0.00001458       0.00000120       0.00000859
N       12.73401853       9.99475664      14.66795416      -0.00001293      -0.00000434       0.00000916
Pb      37.47715747       5.79866782      14.76973471       0.00000216      -0.00000135       0.00000476
Pb      15.81105577      14.19364149      16.57945335      -0.00000166      -0.00000313      -0.00000351
Pb       5.78755831      11.88046386      13.50485904       0.00000576      -0.00000161       0.00000124
Pb       8.04429128       8.34045131      15.77750180       0.00000374      -0.00000684       0.00000270
I       36.61879562       7.89305220      17.07311392      -0.00000188       0.00000434       0.00000004
I       36.56918111      11.85702939      14.31697302       0.00000083      -0.00000216      -0.00000178
I        6.72434610      13.94354970      15.85139870       0.00000162      -0.00000174       0.00000201
I        7.03780124       6.31389579      13.46713907      -0.00000182      -0.00000117       0.00000747
I       14.66748786       4.64979537      13.80820334      -0.00000615      -0.00000292       0.00000174
I       38.61740046      15.36229918      16.73313292       0.00000740      -0.00000050      -0.00000091
I        8.90395196      10.51566977      13.49733586       0.00000514       0.00000522      -0.00000265
I        4.93317560       9.70479877      15.80382374       0.00000043       0.00000022       0.00000021
I        0.83356615       7.18524029      14.52478284       0.00000076       0.00000250      -0.00000193
I       12.92414312      12.97953722      16.63793953      -0.00000871       0.00000083      -0.00000158
I        2.92190101      13.14246625      13.43484711      -0.00000851      -0.00000231      -0.00000682
I       10.89332246       7.02964660      15.62129663      -0.00000160       0.00000351       0.00000874
H        4.57577617       4.19326940       2.55382519       0.00000381      -0.00000638      -0.00000731
H        9.09154158       4.47919673      -0.02245398      -0.00002749       0.00003328       0.00000859
H       -0.53793093      21.87160970       2.59264302       0.00000014       0.00000850       0.00000690
H       14.69360153      21.85276020       0.25312579      -0.00001514      -0.00000116       0.00001273
H        2.44984992       3.77375796      17.37516766       0.00000050       0.00000505      -0.00000856
H        9.01366898       2.42683814       1.08097124       0.00000246      -0.00000267      -0.00000394
H        1.23710487      21.13715450      17.76949386       0.00000299       0.00000512      -0.00000190
H       14.65092661      19.88727079       1.49288862      -0.00001539       0.00000091      -0.00000887
H        2.16844145      16.79034705       1.31879579      -0.00000352      -0.00000280      -0.00000008
H       10.61814984       1.96353495       0.54729859      -0.00003175       0.00003950       0.00000748
H        2.05291569      22.68694331      17.53823528       0.00000051       0.00000537      -0.00000043
H       12.97243571      19.54504373       1.10009623      -0.00001034      -0.00001224      -0.00000615
H        3.06711089      18.50795708       2.83144236      -0.00000568       0.00000101      -0.00000544
H       11.71515450       3.50607459      -1.08410122      -0.00002026       0.00000541      -0.00000331
H        1.00939969      24.39105491       2.11514891       0.00000105       0.00000041      -0.00000439
H       11.91045166      21.10867954      -0.55234465       0.00000281       0.00000078      -0.00000078
H        4.61886894      18.15187538       3.58699695      -0.00000316       0.00000117      -0.00000499
H       11.23707674      16.56955323       1.30063769       0.00000735      -0.00001277      -0.00000570
H       -0.60072370      23.95364079       1.56131025      -0.00000515      -0.00000130      -0.00000551
H       12.82493892      22.50941949       3.65636378      -0.00000329      -0.00000346       0.00001188
C        3.88283436      16.67610057       2.41887867      -0.00000254      -0.00000072      -0.00000415
C        9.92568071       3.77612073      -0.12299753       0.00003872      -0.00002005      -0.00000851
C        0.30620189      22.55915610       2.71290214       0.00000292       0.00000319       0.00000843
C       13.78905114      21.23479846       0.25759631       0.00000658       0.00001163      -0.00000834
N        2.96978051      16.21392341       1.59744164       0.00000038      -0.00000033       0.00000803
N        9.84364125       2.63023259       0.51739236       0.00001862      -0.00004374       0.00001112
N        1.26711437      22.06302736      17.32481103      -0.00000623      -0.00000658       0.00000214
N       13.80264689      20.13236702       0.97346556       0.00003787       0.00000613       0.00001107
N        3.84027465      17.86002606       2.99046493       0.00000764      -0.00000029       0.00001067
N       10.93366002       4.13837921      -0.88127662       0.00001103       0.00002216      -0.00000748
N        0.24085964      23.71929658       2.09733500      -0.00000394      -0.00001055      -0.00000257
N       12.77156191      21.65183650      -0.45960278       0.00001006      -0.00000219       0.00000117
Pb      37.72639632      17.51774449      19.06693813      -0.00000131      -0.00000011       0.00000262
Pb      15.55389108       2.57067946       2.23849363       0.00000250       0.00000158       0.00000577
Pb       5.66364576       0.37091415       0.20917423      -0.00000991       0.00000111       0.00000280
Pb       8.08398393      20.03008808       2.51142407      -0.00000904       0.00000227      -0.00000084
I       36.75781973      19.67759434       2.89978877      -0.00000174      -0.00000066       0.00000218
I       36.26376001       0.31314949       0.84947983      -0.00000109      -0.00000750       0.00000142
I        6.76738263       2.34697903       2.51428971       0.00000210      -0.00000682      -0.00000821
I        6.99540922      18.04918158       0.17339277      -0.00000168      -0.00000210       0.00000637
I       14.99342405      16.47085061       0.40852763      -0.00000250      -0.00000341       0.00000261
I       38.34818950       3.71887746       3.18941247      -0.00000158       0.00000107      -0.00001019
I        8.99132832      22.19532969       0.20838495       0.00000132      -0.00000092      -0.00000557
I        5.04898397      21.55410196       2.40057441       0.00000067       0.00000020       0.00000168
I        1.03828991      19.01523846      19.16659712      -0.00000452      -0.00000440      -0.00000115
I       12.69232718       1.27189151       2.29007450      -0.00000506       0.00000452      -0.00000610
I        2.82579604       1.72581503       0.26710554       0.00000435      -0.00000235      -0.00000034
I       10.92996858      18.70986077       2.75064200       0.00000456       0.00000658       0.00000904
H        4.56128116       4.15837442       7.17501524      -0.00000374       0.00000465      -0.00000486
H        9.07707524       4.44436898       4.59873467       0.00001426      -0.00000696      -0.00000112
H       -0.55235482      21.83670404       7.21382129       0.00000445       0.00000777       0.00000898
H       14.67911368      21.81793292       4.87432658       0.00000090      -0.00000142      -0.00000098
H        2.49327807       3.87836091       3.51160751      -0.00000124      -0.00000641      -0.00000012
H        8.99917709       2.39202517       5.70219564      -0.00001181       0.00000865       0.00000191
H        1.28051298      21.24176680       3.90593812      -0.00000214      -0.00000581       0.00000194
H       14.63647745      19.85245857       6.11411669      -0.00002568       0.00000095      -0.00001351
H        2.15394719      16.75546827       5.94000934       0.00000272       0.00000070       0.00000513
H       10.60365962       1.92870643       5.16854751      -0.00000251      -0.00000263      -0.00000648
H        2.09631160      22.79156437       3.67469268       0.00000267       0.00000238       0.00000219
H       12.95798828      19.51020251       5.72133994      -0.00001368      -0.00001584      -0.00001158
H        3.05260562      18.47306446       7.45269440      -0.00000389      -0.00000032      -0.00000323
H       11.70066401       3.47118282       3.53708640       0.00004149      -0.00002975      -0.00001028
H        0.99490726      24.35620892       6.73643073       0.00001912       0.00001082      -0.00001123
H       11.89597944      21.07378390       4.06886471      -0.00000312      -0.00000621      -0.00000197
H        4.60439535      18.11700239       8.20819198      -0.00000263       0.00000236      -0.00000330
H       11.22259589      16.53475156       5.92181174      -0.00000018      -0.00000764       0.00000040
H       -0.61518817      23.91875892       6.18253950       0.00001188       0.00000059       0.00000349
H       12.81054380      22.47463655       8.27764295      -0.00000598      -0.00002548       0.00001082
C        3.86837071      16.64124338       7.04004914       0.00000373      -0.00000772      -0.00000009
C        9.91120563       3.74127816       4.49820213      -0.00002410      -0.00000585       0.00001288
C        0.29175711      22.52427040       7.33411284      -0.00001096      -0.00000135      -0.00000393
C       13.77457634      21.19995264       4.87880463      -0.00000602      -0.00000498       0.00000597
N        2.95530807      16.17906065       6.21862507       0.00000105       0.00001708       0.00000131
N        9.82915341       2.59540460       5.13861750       0.00001666       0.00000860      -0.00001141
N        1.31052118      22.16763896       3.46125454       0.00000177       0.00000972      -0.00000544
N       13.78819180      20.09753330       5.59469191       0.00006421      -0.00000144       0.00003024
N        3.82579220      17.82515010       7.61167298       0.00000076       0.00000372      -0.00000367
N       10.91918623       4.10350582       3.73990992      -0.00004141       0.00003336       0.00001749
N        0.22639243      23.68442475       6.71857408      -0.00003628      -0.00002249      -0.00000068
N       12.75707998      21.61695757       4.16159718      -0.00000841       0.00004241      -0.00002079
Pb      37.76980245      17.62236992       5.20337379       0.00000469      -0.00000934      -0.00000434
Pb      15.53941734       2.53583115       6.85968139      -0.00001001      -0.00000515       0.00000300
Pb       5.64915269       0.33603887       4.83035773       0.00000645       0.00000322       0.00000245
Pb       8.06951423      19.99524666       7.13261383      -0.00000188      -0.00000536       0.00000326
I       36.74334243      19.64272880       7.52098606      -0.00000439       0.00000159      -0.00000030
I       36.24931851       0.27826717       5.47066817      -0.00000254      -0.00000285       0.00000584
I        6.75288768       2.31209991       7.13547441       0.00000183       0.00000501       0.00000322
I        6.98092157      18.01432010       4.79460176       0.00000248      -0.00000302       0.00000099