96
Lattice="12.737183279368757 0.027045375443581255 0.0540814107865589 0.02096690190168249 12.733234831555643 0.026834687937654707 -0.0812344220887711 -0.08637577453526604 12.816489742315392" Properties=species:S:1:pos:R:3:forces:R:3 energy=-418.51135969991645 stress="0.005746347430801463 8.861650666723023e-05 -5.081765858746537e-05 8.861650666723023e-05 0.0071543594834659555 -0.00010629705361396906 -5.081765858746537e-05 -0.00010629705361396906 0.005247215568391958" free_energy=-418.51135969991645 pbc="T T T"
I        5.52882379       3.76700520       3.26093171      -0.00001514       0.00000403       0.00001236
I        5.60317004      15.46228645       9.69137791      -0.00000446      -0.00000588      -0.00000663
I        5.36458525      12.68915853       6.08582754      -0.00000033      -0.00000213       0.00001494
I        6.64712960       6.31907056       6.87511259      -0.00000300      -0.00000974      -0.00000789
I       -0.76122943      16.38762076       9.67364064       0.00000409      -0.00000682       0.00000989
I       11.88272162       2.73612323       3.28665047       0.00000251      -0.00000229       0.00000360
I       11.72683859       6.51278737       6.09790765      -0.00000240       0.00001036       0.00000280
I        0.29319160      12.84888809       6.85992427      -0.00001483       0.00000165      -0.00000635
I        8.93745003      15.23603165      12.63503580       0.00000774      -0.00000527      -0.00000710
I        3.05755247       8.91116942       6.19288252       0.00000554       0.00000549       0.00000794
I        2.57922577       3.89362901       6.72602514      -0.00000254      -0.00000950       0.00000710
I        8.97107525      15.27639648       6.78817980       0.00000884      -0.00001474      -0.00000175
H        1.95591265       5.56937501       2.34973523       0.00000615      -0.00000117      -0.00000659
H        8.26180549       5.83871321       4.16998371       0.00001404      -0.00000535       0.00001457
H        8.32390155      13.67296841       2.39198842       0.00000229       0.00001228      -0.00002526
H        4.31717042       5.81851838       9.66800652       0.00003486       0.00001557      -0.00000285
H        3.74586194      12.13912591      10.57057285      -0.00000222      -0.00001418      -0.00000069
H        8.27220669       5.84462042       2.37442331      -0.00000240       0.00000382      -0.00003869
H        8.72621352       7.71324698       9.69506616       0.00000796       0.00000315      -0.00000568
H        3.68648210       7.23904829       8.76848733       0.00001366       0.00000253      -0.00002234
H        1.31957257       6.98624535       3.25085986       0.00005099       0.00001186      -0.00000878
H        9.64771039       5.11874023       3.27791522       0.00000516       0.00000426       0.00001392
H        8.30993460      13.67115864       4.19263325      -0.00000611       0.00002142      -0.00000350
H        3.68084405       7.23532846      10.56923789       0.00000182       0.00000804       0.00000370
H        3.55090484       7.39074843       4.09837768       0.00000764       0.00002788      -0.00001386
H        8.48217687      13.71917220       8.85891825       0.00001310       0.00000858      -0.00002371
H       10.52655454      13.18435087       3.30927931       0.00001955       0.00000862      -0.00001493
H        3.82810372      11.90456685       4.10719066       0.00000338      -0.00001395       0.00000251
H        3.55658796       7.39584631       2.42034749      -0.00001777       0.00001452       0.00001289
H        8.46954824      13.71534372      10.53681873      -0.00000751       0.00000600       0.00000150
H        9.92540190      11.84975636       2.46308410       0.00001536      -0.00001105      -0.00001506
H        3.83126345      11.91489526       2.42566771       0.00000578      -0.00000477       0.00000836
H        4.16206594       6.05709684       3.25752916       0.00000588      -0.00001426       0.00000853
H       10.18683470       7.31513159       4.12875482       0.00000013      -0.00001574      -0.00002768
H        9.91270986      11.84596007       4.14098298       0.00001366      -0.00001656       0.00001319
H        2.52836789      11.22487180       3.25966100      -0.00002072      -0.00004113      -0.00001679
C        3.12436522      12.21421003       9.67274969      -0.00000511       0.00003578       0.00000102
C        8.88944223       5.90909085       3.27602538       0.00000134       0.00001138       0.00001052
C        9.48452464       6.92293734       9.69697782       0.00003319       0.00001576      -0.00000654
C        3.57593281       6.62405428       9.66728320      -0.00000941      -0.00002221       0.00001439
Pb       6.20340746       9.62407885       6.48840151      -0.00001333      -0.00001532      -0.00000407
Pb       5.82564502      15.98906282       6.48381309      -0.00000678      -0.00000275      -0.00000586
Pb      -0.58423119      15.86806404      12.88190152       0.00001793      -0.00000016      -0.00001440
Pb      -0.54565595      15.91396396       6.45735972       0.00000663       0.00001527       0.00000137
N        3.42363302       6.79039680       3.25705545      -0.00003498      -0.00002788      -0.00001185
N        8.60635667      13.11436307       9.69740339      -0.00004498      -0.00005020      -0.00000683
N        9.78851502      12.45074280       3.30248052      -0.00005102       0.00001577       0.00003353
N        3.22143115      11.99766096       3.26571327       0.00002129       0.00003511      -0.00000501
I        6.49120448      10.09573656       9.68635794       0.00000471       0.00001330      -0.00000674
I        6.41891415       9.15040768       3.27211282       0.00001861       0.00000726       0.00001906
I        6.61149050       6.27946213      12.48407567      -0.00001401      -0.00000802      -0.00000048
I        5.39434991      12.73085707       0.47411891       0.00001212       0.00000627       0.00000834
I        0.05457511      10.07574201       3.25439095      -0.00000088       0.00001452      -0.00001279
I       12.84522493       9.06482612       9.71207370       0.00000114       0.00001077       0.00000512
I       13.08175908      12.92059954      -0.29080047      -0.00000063      -0.00001856       0.00000641
I       -1.05591687       6.43896070      13.25129875       0.00000421       0.00001354       0.00000462
I        9.42385056      10.28864694       6.21164012      -0.00000502       0.00000699      -0.00000120
I        2.64832737      16.67576249      -0.20998776      -0.00001647      -0.00001017       0.00000139
I        3.00942768       8.86224803      13.15578427       0.00001281      -0.00001044       0.00000234
I        9.45749218      10.32899749       0.36487649      -0.00001629       0.00000440      -0.00000297
H        3.74704607      12.14973117       8.77490458       0.00000229      -0.00001217       0.00000007
H       10.07086869      11.89194719      10.60779794      -0.00000050       0.00001496      -0.00000481
H       10.11218450       6.99335086       8.80303816      -0.00000702       0.00001016       0.00000525
H        1.91067202      13.38838697       4.17076077       0.00000738       0.00000843       0.00000805
H        1.95019427       5.56576049       4.15048567       0.00002521      -0.00002056       0.00002021
H       10.08481317      11.89386575       8.80715411       0.00000020      -0.00002499      -0.00001769
H        7.68469589      12.25283117       3.28598777      -0.00000345      -0.00000306      -0.00001465
H        3.29499240      14.11098428       3.27805026       0.00000041       0.00000525       0.00000519
H        2.36279576      11.42706459       9.66766423      -0.00000442      -0.00000957       0.00000390
H       10.71019652      13.31208106       9.71387982      -0.00002634      -0.00001793      -0.00000145
H       10.10172744       6.98743659      10.59860179      -0.00000872       0.00000514      -0.00000662
H        1.91196495      13.39891753       2.37509224      -0.00002354       0.00001168      -0.00001035
H        3.12935927      14.31319204       9.68617530      -0.00000401       0.00000981       0.00000661
H        8.89277178       8.00781525       3.28307194      -0.00003807       0.00000146      -0.00000772
H        8.17745294       5.51091446      10.52584296       0.00001006      -0.00001013      -0.00004361
H        2.08584584       5.41397402       8.82058676      -0.00002108      -0.00002606      -0.00001474
H        1.82648323      13.62309319      10.52014228      -0.00001742       0.00000776       0.00000888
H       10.19657016       7.32104960       2.44712397       0.00002301      -0.00000552      -0.00002141
H        9.48130861       4.82421314       9.68991924       0.00000427      -0.00000453      -0.00000633
H        1.47466785       6.74760423       9.66145526      -0.00000732      -0.00000096       0.00000480
H        1.82962941      13.63351944       8.83861917      -0.00001356       0.00001752       0.00000594
H        7.86825390      12.38081682       9.69061919       0.00004272       0.00001738      -0.00001404
H        8.18722404       5.51683857       8.84421041      -0.00001358      -0.00000007       0.00002175
H        2.08020295       5.40886125      10.49861815      -0.00002954       0.00000023      -0.00000617
C        2.06080040       6.18069892       3.25165903      -0.00001751       0.00002399      -0.00001790
C        9.96967825      12.50593268       9.70727846       0.00003020       0.00004094       0.00006981
C        8.42513722      13.05904918       3.29254593       0.00003686      -0.00001351       0.00000818
C        2.53340519      13.32385580       3.27295584       0.00001245      -0.00002185       0.00001223
Pb       5.78555981      15.94615935      12.90389324      -0.00000913       0.00000800       0.00001689
Pb       6.16074187       9.58360798      12.88036262      -0.00000676      -0.00000716       0.00000061
Pb      -0.16786869       9.54898308       6.46194858       0.00000361       0.00000178      -0.00000348
Pb      -0.20900353       9.50549734      12.85833804      -0.00000228       0.00000824       0.00000458
N        2.43630991      13.54038955       9.68008565       0.00002885      -0.00002341      -0.00004604
N        9.58294699       7.23243758       3.28421004      -0.00001699      -0.00003452       0.00005063
N        8.79109116       5.59955657       9.68876757      -0.00003132      -0.00001336       0.00005728
N        2.21311747       6.01432191       9.66191056       0.00000928       0.00004074       0.00001512
