768
Lattice="31.343885341238796 -0.47746557187201905 -1.6062135899949226 -0.40744855527168355 29.62807268781774 -0.02279442302894619 -1.4504438450383712 0.04122985736401602 17.113936445534993" Properties=species:S:1:pos:R:3:forces:R:3:momenta:R:3 energy=-3290.597757512001 stress="0.0 0.0 0.0 0.0 0.0 0.0 0.0 0.0 0.0" pbc="T T T"
I        6.60002701       0.43601384       2.23443107      -0.03903724       0.01477834       0.14148973       0.38636626      -0.98954305      -3.75931997
I        0.92453862       5.88990673       1.87627629       0.34620683      -0.14148464      -0.12173277       1.73230650      -0.97518449      -1.10144924
I        5.77770092       0.61518539       5.55547293       0.05646208       0.19609656       0.20161192       0.35512039      -2.33870381       3.44761258
I        1.78431365       5.59867402       6.45428370       0.03244449       0.29146027      -0.26344645       1.93591908       0.73621933      -2.30049979
I        5.66231037       4.81217586       3.34298113      -0.36727539      -0.45162915      -0.19134413       3.62827572       2.42081771       0.48745333
I        1.69813037       1.83821835       9.31024209       0.60485465       0.29210842      -0.03059706      -0.55559347       2.23585378       1.46373591
H        2.86832396       3.86527981       4.12869841      -0.48188793      -0.08057656      -0.28168195       0.04871018      -0.08817306      -0.44079116
H        4.26980390       4.98922957      15.27066268      -0.52364384      -0.24534436       1.83513378      -0.07891487      -0.06059933       0.33888019
H        0.83521909       3.48367500       4.44150009      -0.57494206      -0.71250264      -0.75441356      -0.14428493       0.04513944       0.32779151
H        4.67049015       4.86105034      17.08449571       1.66506685      -0.23270109       0.64932864       0.07838059       0.28394650       0.16302107
H        2.14556549       3.24554664       5.67538407      -0.42887797      -0.25084857       1.17454751       0.24366474       0.03527903       0.07281126
H        3.43609118       3.77318929      16.37376358      -1.26107809      -1.93982549       0.72325893      -0.01986746      -0.23095528       0.17964888
H        2.39757629       1.23082974       3.10818247      -0.66075960       0.04915640      -0.92474856      -0.26250220       0.04268285       0.05609924
H        3.16179945       6.71831852      16.49413305       0.00742858       0.40442340      -0.14340797       0.49801373      -0.32732260       0.29845471
H        1.93222557       0.72043740       5.01305220       0.26991505       2.16162003      -1.09701064       0.06003572      -0.22117527       0.43804364
H        2.85596675       5.82263562      17.90887688       0.01023218      -0.07002707      -0.65705634      -0.03110187      -0.30560216      -0.01637343
H        3.45776718       1.50660016       4.35758805       0.12176419       0.30614252       0.23833488      -0.04787211       0.06358008      -0.07585240
H        1.79756131       5.62812017      16.45963396       2.28777263       0.07473671       0.59224157      -0.23624165      -0.20100747      -0.01048780
C        1.96078680       3.11943634       4.59670163       2.65805438       0.70874399      -0.17595525      -0.47684229       0.45204090       0.38511951
C        3.81723482       4.74210209      16.40397305       0.81673134       2.27261620      -3.36067046       0.38715454      -0.36847085      -0.75247082
Pb       3.32223334      14.34912394       8.21735104       0.62927214      -0.01481191      -0.09371420      -6.56536048      -0.96955372      -3.24091569
Pb      -0.48844381      14.37741829       8.49059461       0.24624695       0.39399588       0.03734440       2.68952561      -2.29809952      -3.68989807
N        2.41518723       1.57047028       4.17599635      -0.89591968      -2.52462332       2.00961489      -1.48606050      -0.27596991       0.69124405
N        2.84842501       5.78153474      16.83220046      -2.65915092      -0.40561536       0.54255239       0.77273185      -0.74282745      -0.39707842
I        4.97924971       8.14091719       6.33554172       0.52132685       0.15322371      -0.56928128      -4.37660988      -2.05368377      -0.98631814
I        1.47408735      13.30219646       6.12592634      -0.24414300       0.31805268      -0.71051119      -1.80244412      -1.54576837       0.63780727
I        5.24116459       8.79496282       1.62327320       0.03706597       0.02864206       0.32594344      -2.01315762       2.44609951       1.57415632
I        2.41460016      12.63206677       1.59861049       0.18731840       0.16252440       0.04879951      -0.68441138      -0.23285077      -2.12871669
I        4.80079007      12.06570273      16.59159861      -0.08596401      -0.17407028      -0.15450557      -4.73510555       0.08226946       4.14053485
I        1.33549259       9.66237476       4.21054575       0.13561429      -0.19755370      -0.02597617       0.33110494      -2.06703466       0.29091694
H        0.51232013       8.39940358       7.94201057      -0.48590871      -0.50165718       0.56375678       0.13109916       0.16009627       0.01803860
H        6.44157071      11.81025393       5.27735719      -1.18579114      -0.90050757       0.62733455       0.06645577      -0.07227651       0.10762233
H        0.68878056       9.65770033       9.42752517       0.39655784      -0.55037544      -0.62129120      -0.39139086      -0.32233156      -0.19648784
H        5.06437731      14.08645556       4.42078034       0.46883281       0.03461201      -0.68149125      -0.30551806       0.05589367      -0.22102947
H        0.12741861      10.37924682       7.81396642      -0.23085834      -1.07194975       0.09318235       0.39626631       0.17356857       0.11863519
H        4.33830368      11.69239687       3.40259288      -1.82728914      -0.04525189      -0.66733822      -0.03314184      -0.02617608       0.29546933
H        2.32977831      10.86689151       7.80311591       0.04892524      -1.66117968      -0.59545208      -0.01292602       0.22232676      -0.52604899
H        7.67329547      12.43557370       3.78964282      -0.87433904       0.57021435      -0.90702676       0.24972632      -0.05220966      -0.25839621
H        2.36459560       9.66477239       6.52130574      -0.13508568      -0.81666948       1.98346749       0.12192541       0.19006637      -0.16166721
H        6.24502515      13.09398804       2.18476805       0.30275507      -2.42249325       0.49933757      -0.28534398       0.10566403       0.08006720
H        2.97937011       9.24832238       8.25216227       0.26551961      -0.29709017      -0.42410550      -0.14590958      -0.20639809      -0.02842468
H        6.64570623      10.99464641       2.57417269      -0.01105457      -0.09509868       0.06691715       0.08494361       0.14520801       0.04708346
C        0.75991811       9.42305266       8.29458734       0.63911472       2.54108963      -1.48585437       1.38531243      -1.39237727      -0.18976049
C        5.48712512      12.47938581       4.08338364       1.70440113      -0.47003672       1.55186681      -1.19198281       0.08285906      -0.37562573
Pb       3.45738289       7.00075036       3.78771611      -0.24118269       0.23690034       0.41213381      -3.41725720       1.14721513      -1.96280725
Pb       7.37658515       7.27874998       3.67803555       0.20438574       0.33303524       0.55215114      -3.87222597       3.77889295       1.89075186
N        2.21831315       9.76211296       7.63855105      -0.55639161       2.20465159       0.53465328      -0.14290937       1.50106681       2.09365984
N        6.58945307      12.20923221       3.06567819       1.43339125       3.49171703      -0.33060299      -1.07186206       0.21753573       0.75484016
I       14.17831887      -0.16348518       2.00274276      -0.08809876       0.51702758       0.29366360      -1.46493040      -1.28021634      -2.94762103
I        9.09438885       5.90803444       1.63887510      -0.05890421      -0.01247007      -0.54594407       0.52611418      -0.90867922      -2.44683441
I       13.72223775       1.06851239       6.23525470      -0.27972446       0.41463471      -0.94890241       2.14154037       3.09676145      -1.67103542
I        9.27073795       5.41318668       5.56855013       0.10639191       0.18981179      -0.06330458       0.49158344      -0.45147957      -1.42516575
I       12.95163828       4.41092785       2.84942444      -0.05986739      -0.06614445      -0.03672624       2.64641489      -0.46198164      -0.73483689
I        9.69599167       1.92990875       8.38582216      -0.00069430       0.23219199       0.14232029       2.19032915      -0.12568305      -2.39107823
H        9.32418293       1.86081111       3.11356052      -0.55083216      -0.31375492       0.71007474       0.07649380      -0.05077820       0.22639342
H       13.21806515       5.36935252      15.08153251      -0.68954754       0.88239710      -0.00178082      -0.21638059      -0.37097032       0.18968498
H        9.69894387       0.71928520       5.12368114      -0.39306713      -0.43974376       2.17205906       0.09295794       0.43448440       0.05396348
H       12.64668379       4.02291278      17.55857549       1.51965712       0.50646545      -0.07845093      -0.29532048      -0.16234169       0.16999803
H       10.43139311       3.05038528       5.02001176       0.65909670       0.80832367      -0.46209528      -0.15184515       0.27067792      -0.06280835
H       10.78759411       4.06091277      15.63644268      -0.04762587       0.70275027      -0.58761237       0.17034599       0.18980547       0.40243752
H       11.03810798       2.04666369       2.07630881       1.21853819      -0.49273603      -1.45409251       0.21463205      -0.25704819      -0.23765847
H       10.47313680       6.66723560      15.72112905      -0.60963900      -0.21303383       0.22107378       0.10643044      -0.07857621       0.56922805
H       11.54966711       0.23624495       2.96478047       0.42962158       1.34233936      -0.76689663       0.09735735      -0.11464706      -0.09390232
H       12.20734211       6.91893890      16.67816362      -0.48281300       0.63269601       0.41940306      -0.34955109      -0.22402872       0.31399069
H       12.43234030       1.86249452       3.27833191      -1.21303018      -0.11195059      -0.90746683      -0.07473015      -0.11384165      -0.28250819
H       10.85392160       5.81156572      17.55382556      -0.55766170       0.16556218      -0.47443516      -0.02713447       0.49382673       0.07088053
C       10.11484850       1.76958048       4.20386376      -0.17254912       0.46789955      -1.93541311       0.10618825       0.07201905       1.21870968
C       12.00842164       4.88091470      16.10251345      -0.86833530      -2.36520369       1.70589271      -0.16356566       0.33146694      -0.98505514
Pb      11.76789362      14.62971388       7.69867959      -0.70270043      -0.05341738       0.26551281       1.12292354      -2.14403383      -4.47860183
Pb       7.43166316      14.31715862       7.95679056       0.27215214       0.02838500      -0.00988950      -4.76675355       0.44031505       1.63420103
N       11.40697611       1.46033305       3.02663424       0.07076022      -1.60557601       2.97496979       0.38075517       1.20687722      -1.05830389
N       11.26048770       6.15817133      16.56540899       1.99449791      -0.48349115      -1.37103230       0.84333553       2.69499509       0.17086044
I       13.02915590       8.62715119       5.79776086       0.17855154      -0.52397675       0.34763627       4.79828529      -3.58501843      -3.58399369
I        9.49448897      13.24307573       5.62992563       0.17467784       0.24650583      -0.24541623       5.12972348      -6.32047668       4.15017367
I       13.01236613       8.69288887       1.27992388       0.03182044       0.24691650      -0.14615201       0.35864408      -3.79751453       0.78027962
I       10.26806361      13.48312508       1.43038543      -0.23168544      -0.60412413      -0.23210567       1.13356587       2.26611228       1.74192782
I       12.52921950      12.11836218      15.93181624       0.20358022      -0.15634459       0.32104709       5.73845685       5.48733153       5.94309899
I        9.44876959       9.90776566       4.14365159      -0.06652904      -0.36120266      -0.38055941       1.85871518       2.86120402       2.85124320
H        9.02772290       9.52762277       9.04941909      -0.23007027      -0.45230764      -2.18915792       0.09982087      -0.06149108       0.35585734
H       11.93737855      12.02617330       3.43386376       0.77553405       0.05134279      -0.40094690       0.09710508      -0.32851942       0.06137495
H        8.30075416       9.16638435       6.98302587       1.65420408      -1.43716080       0.43665498       0.04540791      -0.29127423      -0.18199909
H       13.55520415      11.98064174       5.43172291       0.66083334      -0.55616454      -0.05030183      -0.02541805      -0.20782687      -0.24171927
H        9.93650859       7.81522346       7.74837040       0.04184702       1.74445966       0.70614722       0.02382792       0.23420627      -0.13298557
H       13.16286371      14.24438865       3.89134500       0.54310451       0.46593098       1.11980419       0.05850409       0.14986025      -0.26458498
H       10.01838268      11.14603354       7.81625601      -0.42661365       0.14955170       0.32969180      -0.12458549      -0.35572130      -0.08057056
H       13.79337565      10.81044944       2.25563869      -0.30127975      -0.72076171       0.43058304       0.03942408      -0.11948684       0.20514527
H       10.69929056      10.16236995       6.42399678      -0.59174879      -0.51357008       0.95373333      -0.08643132      -0.01530343       0.08785647
H       14.95792025      11.72123807       3.30669374       1.23363368      -1.07294858      -0.08359055      -0.02334847       0.40813413      -0.12051391
H       11.44315162      10.10150344       8.05239849      -0.45236602      -0.46838695       0.06749939       0.41135751      -0.03850333       0.22453431
H       14.23976296      12.59476948       1.77279701      -0.77617620      -0.86800543       0.95158800       0.10639537       0.34480088      -0.08556988
C        9.36341572       9.02951279       7.82327644      -1.64065331       0.64421267       0.99067003      -0.18918487      -0.51352234       0.80236359
C       13.14443600      12.54635408       3.95547038      -1.88995333       0.26202656      -1.24987763      -0.31518096       1.54690522      -0.69542079
Pb      11.35291850       7.16080193       3.51358696      -0.69432350       0.17670733       0.46105861       1.13504457       2.37787609      -0.07779852
Pb      15.01661997       6.71761134       3.52780549       0.16796690       0.43289539       0.13842074       1.68575428       3.89385585       0.06641717
N       10.40176455      10.13260630       7.51710837       1.57222108       0.53826509      -1.29440614       0.28511992       1.21165139      -0.38771022
N       14.03704052      11.82491596       2.74336400      -0.32793275       2.59695782      -0.86054153      -0.06203742      -1.88789621       2.01911489
I        6.05550538       1.34190659      10.34040385      -0.25599209      -0.43685335      -0.12106670       2.35654147      -0.04189381      -1.45402213
I       -0.05805854       5.66413701      10.47445654       0.12235546       0.27658351       0.22456977       0.97296787      -0.48148315       0.52877836
I        5.15675214       1.10828378      15.40731535      -0.12869105       0.10452817      -0.43741655      -4.10401412      -2.36445790       0.24081841
I        0.44031024       5.76135625      14.86050563      -0.08595645      -0.25697494       0.12423957       1.23850060       1.50365610      -3.68394798
I        4.48463943       4.46027853      11.70869856      -0.02959934      -0.18871934       0.03518024       0.45025046       2.14564337      -4.60029738
I        2.46794542       1.95469871       0.81830520       0.27980584       0.14466186      -0.30736018       4.61688676      -1.87632723      -0.42372188
H        2.49368239       3.22277190      13.58685520       0.76512902       0.80049309      -0.72356268       0.02650307       0.22870213       0.19473330
H        5.55691970       4.28300801       6.35110055      -0.79878894       0.53840522       0.58042190       0.28168110      -0.42490180       0.04169275
H        0.77154537       2.71425243      12.49679986      -2.08515705      -0.44008929      -0.69973788       0.25403710      -0.04460610      -0.26619139
H        6.24967906       3.50132426       7.89939317       0.02337025      -0.42118922       0.47435718      -0.02649686       0.13505928      -0.22872865
H        1.00949197       1.99597709      14.47561721      -0.21853648      -0.02990333       1.22962585      -0.05433283       0.13132090       0.46492614
H        4.14049925       3.27714710       7.47636244       0.45316984       0.17606218       0.17090117       0.00378656      -0.14515491      -0.41962683
H        2.70992963       0.77029275      12.20734976      -0.27065430       1.21199941      -2.99857660      -0.18147046       0.08581847      -0.09537164
H        5.63810305       6.29140026       8.00476771      -0.30460143       0.14874086      -0.43306942      -0.14339018       0.06551571       0.11594219
H        1.66146054       0.16719279      13.42411861      -0.25562467      -0.60661571       0.55453087      -0.11610098      -0.01595836       0.06717720
H        4.69166820       5.36081103       9.26301666       0.43885260      -0.10498168      -2.06218792      -0.20681695       0.00816439      -0.06691477
H        3.29379142       0.66558991      13.70280726       0.41619465       0.66187805       0.85459911       0.19559275       0.04728034       0.18651910
H        3.87726778       5.75769352       7.72901792       1.47426346       0.98759320       0.79029448      -0.28412723      -0.31293965       0.25195838
C        1.58797461       2.35245181      13.42755222       2.39993928      -1.33431797       0.13797023       0.37530735       0.61100925       1.00497955
C        5.21819264       4.03375684       7.43773304       0.24864427       0.45932486       0.42959860      -0.64140341      -1.06168032       0.75617219
Pb       3.97023183      14.52625518      -0.62929746       0.37178577      -0.28796310      -0.35568386       0.86558536       0.50192004       3.28035003
Pb       0.60814451      14.59591044      -0.04929561      -1.25908555      -0.26397777      -0.23442465       2.96568117       0.81201008      -1.69973438
N        2.37990147       0.96835283      13.16752707      -0.81648823      -0.00351312       1.25330202       0.83856147      -1.38966977      -1.34220028
N        4.87678548       5.49502436       8.17613408      -1.62461652      -2.06089096       0.35833885      -1.05917163       0.12560264      -0.74994534
I        4.39296510       8.25714746      14.43653248       0.04185620      -0.02831489       0.43206105       3.06385567      -0.20283772      -0.04351902
I        0.19062724      13.04826731      14.23954713      -0.01672122       0.25546279       0.10929301       3.13491179      -1.36730857       0.62794707
I        3.82536311       8.63935903      10.56808407       0.67396827      -0.14836198      -0.27218935       2.86634011       3.21107843       0.89452300
I        1.50316227      12.31693112      10.01805557      -0.09035716       0.38118447       0.13018001      -0.07016801      -1.78798595      -0.54012367
I        5.53392562      11.80868836       8.14123351       0.03584466      -0.23000224      -0.35078752       1.45474970       2.10578523       5.54526933
I        0.53025879       9.43528452      12.56823607      -0.10762705      -0.12186754       0.52917475       0.87517231      -3.34851368       0.99162752
H        1.27903941       7.99396009      -0.55261941      -0.22522220       2.32905113       0.26921745       0.09692644       0.21412552      -0.15775624
H        4.18222360      10.30651787      12.43187591      -0.46372709       2.28146352      -0.20906958      -0.09368107      -0.16998231      -0.10921420
H        1.61642356       8.98646237       0.94170520      -0.08023906      -0.00706971      -0.63206296      -0.34932589      -0.04970781      -0.14486613
H        4.03784463      12.15327215      13.47108593      -0.24260432      -0.72599087      -0.69806268       0.24762804       0.12797132      -0.10235855
H        0.67402598       9.90589026      -0.33123439       1.12744598      -0.72191910      -0.22611135       0.24298171      -0.20201925      -0.09350501
H        3.28436186      11.70099439      11.52600943      -0.93266790       0.03973221       0.01982290      -0.22236593       0.00479938       0.09605092
H        3.33432903      10.36056523       0.05401200       0.36072150       1.43185626       0.63185190       0.15967538       0.43730227      -0.14755389
H        6.55923388      11.68997295      12.26000571       0.36352079       0.46201329      -0.15110205       0.19928454      -0.11134089      -0.12251221
H        2.71340986       9.99815991      -1.70794732      -0.53796591       0.18318128       2.30911999      -0.57282896       0.05675063      -0.09471130
H        5.70273087      12.90417733      11.26990338       0.65746323       1.47823974       0.13431656       0.18578119      -0.17980481       0.01328690
H        3.66972505       8.61660562      -0.91494726      -0.41453500       0.58048047       1.16789268       0.17352777      -0.12663172      -0.16426992
H        5.89610219      11.39428676      10.53381647      -1.13169377      -1.11214576      -0.96295211      -0.27054249       0.03138606       0.15236737
C        1.50719253       9.09275888      -0.16927287      -0.49661206      -1.49784354       1.03904938      -0.35005477      -0.72224585       0.87831829
C        4.14417404      11.52645566      12.34352941       2.21878262      -1.78876220      -0.09098772       0.43499174       0.47043935      -0.67322096
Pb       2.43916277       7.02735798      12.36761077      -0.68006500      -0.43507910      -0.13031863      -0.40784653       1.94001442      -3.76156364
Pb       6.43400198       6.68896581      12.07217085       0.03366657       0.45587163       0.12936650       2.20991482       5.37766330      -1.23423000
N        2.88033615       9.58449788      -0.63131057       0.05282038      -1.95835887      -5.06036204      -1.15584387       1.00491818      -1.93070836
N        5.68824741      11.93492889      11.56362735      -0.30432361      -0.59919179       2.20721503       1.21322424      -0.02744155      -1.93307389
I       14.17905270       0.27452248      10.26598924      -0.70704388       0.23064289       0.25393759       1.03564688       2.15461494      -0.12001047
I        8.28036183       6.31113966       9.63572850       0.01034073      -0.25635702       0.12854586       3.58960287       3.36868676      -4.87176034
I       12.75508707       1.22051367      14.67323768       0.08120938       0.14575134      -0.46017589      -1.29661099      -1.45583196      -2.17068547
I        8.33772489       5.27901615      14.48372000       0.03394288       0.39719951      -0.43954554       4.30791432      -1.66859192      -1.00615584
I       12.10641235       4.59602860      11.42083618       0.43361437       0.36148093       0.53030607      -0.06634494       0.23081575      -1.26617668
I       11.08555185       1.81436264      -0.43540677      -0.42996299       0.33722223       0.20436761      -2.38536416      -3.23934264      -1.10119904
H        8.24033005       2.21692955      11.37427756      -0.94257058      -0.60165237       0.33438624       0.28338144       0.26220559       0.00057117
H       11.52448090       4.00272063       6.31096450       0.63679266       0.52697630      -0.27675073       0.01658297      -0.11562795       0.11049872
H        8.33291352       1.23439228      13.70898223      -0.45541564       0.24778300      -2.06079560       0.60030692       0.28241510      -0.08538781
H       13.77736448       4.62228124       6.98042128      -0.01326840       0.50568577       0.66432262       0.17262523       0.41514685      -0.10836008
H        9.69582039       2.97188715      13.03588161       0.45071936       1.08616509       0.28681230       0.07624766       0.07038314       0.39274163
H       12.36052820       3.24887816       8.16575101       0.07561831       0.27605667       0.91737029       0.25361989      -0.12700509       0.08849602
H       10.68824585       1.70587528      10.97240338       0.43286412       0.05511596       0.97625875      -0.00227585      -0.00711667       0.10109369
H       10.72960459       5.17102786       8.03182250       0.86940717      -0.02186054       0.70368508       0.02754184      -0.17660890       0.33031726
H        9.66616875       0.19819746      11.51366891      -0.40146859      -1.78428137       0.47709860      -0.01076091      -0.15881838       0.15324343
H       11.93656181       6.36273523       7.75284668       0.46865428      -0.60982941       0.35969603      -0.07759911      -0.25149687       0.12399975
H       11.00810579       0.97066183      12.97511708      -1.70295029       0.07275738      -1.14510669      -0.35423733      -0.03620331       0.16340885
H       11.90030636       5.41467322       9.28092667       0.44947877      -0.48367051       2.16815704       0.06367164      -0.20100158      -0.11031356
C        8.98398228       1.94434084      12.60653706       1.73805769      -0.45812516       1.11977757       0.76700082      -0.75822881       2.21344257
C       12.45877095       4.27650652       7.46193837      -0.84277306      -0.50110992      -1.12038818      -0.51399988       0.90231088       0.46544638
Pb      12.30922463      14.76813143      -0.71870541      -0.21603281       0.13289099       0.31029922       2.18916660       0.94220002       3.88045070
Pb       8.04083334      14.39512539      -0.90609941      -0.06460693       0.73923299       0.45606711      -0.66452244      -4.74692171       5.00765811
N       10.19844678       1.16308771      11.97210986       1.01367966       1.30776474      -0.01690127       0.63926262      -1.66488977       1.57293805
N       11.78512103       5.36792257       8.27056272      -1.34594690       1.00580959      -3.88370138      -0.21509471      -0.76792457       0.21745323
I       12.33961230       8.80825950      14.03717513      -0.03735379      -0.21297454       0.61658998       3.86990874      -0.45706515       0.20797720
I        8.61331400      13.58519246      14.05957549       0.11848065       0.01034924      -0.06016068      -0.04593768       0.76593980       2.10102261
I       12.45312200       8.96174769      10.41032395      -0.32924872      -0.14693779      -0.31870107       0.95805055      -0.03334476      -0.53944107
I        9.72280062      12.86297184       9.66840580       0.14660167       0.05634448       0.23193032       0.55860393       0.17875107      -1.88520608
I       14.02665253      12.33525045       7.59441596      -0.04195081      -0.64934711      -0.04349575       1.57072636       2.19933119       2.65623410
I        8.30668722       9.53876875      12.24658108      -0.02445407       0.27048737       0.54617271       0.37009561      -2.30887802       0.18050449
H        9.14742978       9.51805523      -0.02831243      -0.36016897      -0.19666051       1.42748724      -0.07751157       0.07094628       0.06065448
H       11.78243861      13.44130427      11.82013335      -1.69217869       0.26717242       0.21333615       0.15428523       0.02116347      -0.02932462
H        8.72702924       9.45926429      -2.08443969      -1.06731641       0.45638890      -0.40013035       0.03305432       0.09007065      -0.23275987
H       12.20827877      12.00408600      13.09518203       0.01185075       1.03356801      -0.37935737      -0.03477841       0.02899832      -0.32588481
H       10.39355663       8.25825047      -1.40407601      -1.06119644      -0.49173568       0.12851027      -0.02068636      -0.32319487      -0.15610342
H       13.11388011      13.69420238      12.89145180       1.06268903       1.14370458       0.64052240       0.33635897       0.06762436      -0.12138422
H       10.40000071      11.25196876      -0.86334393       0.46154060       2.25605892       0.43876167      -0.08497306      -0.10873736       0.07628304
H       13.08773160      11.31229977      10.65758003      -0.26414084      -0.66828452       0.07867390       0.19332144      -0.01205583      -0.10855141
H       11.33416898      10.14875406      -2.26170191       1.05477211      -0.08837041       2.84748857      -0.24140624       0.22277157      -0.03116233
H       14.41829755      11.84045719      11.69073216      -1.85418805       0.51486117      -1.15786186       0.62969609       0.02249207      -0.10678831
H       11.81902130      10.11155888      -0.10029936      -1.50803056       0.76231747      -1.12675897       0.41706794       0.17851018      -0.27569414
H       13.74004098      13.00817672      10.30923152      -0.09663088      -0.85150253       0.65745656       0.16650861       0.02177470       0.45483891
C        9.63096414       9.32879916      -1.14790579       1.65581898      -1.26852436      -0.21572249      -0.29543379       0.26545557       0.03293758
C       12.60711287      12.91986225      12.35814407      -0.61795541      -2.86714733      -1.06168610      -0.57195988      -2.28116447      -1.40309815
Pb      10.32965644       7.13796772      12.39718944      -0.05276004      -0.26665266      -0.52566033      -2.93821963      -4.41285863       0.03470029
Pb      14.47910244       7.28824083      12.05189001      -0.15126258      -0.36165671       0.14659052       1.86886223      -4.98428334       1.89509948