768
Lattice="25.489424268572538 -0.0956594233117733 0.005584256169073863 0.09977264370270744 24.739172851202614 0.6001478684267295 -0.002024446371267937 0.5682806783236378 24.75292066089703" Properties=species:S:1:pos:R:3:forces:R:3:momenta:R:3 energy=-3337.8662790512653 stress="0.0 0.0 0.0 0.0 0.0 0.0 0.0 0.0 0.0" pbc="T T T"
I        6.82002871      23.93634597       1.60898999       0.04486378       0.07238269       0.30618282       0.16625194       0.55318301      -0.00710031
I        5.92840659      10.24590035       7.41691417       0.06716264       0.03265230      -0.05739280       1.32017988       2.56891413       0.41575790
I        6.04052794       7.88060688       3.26235458      -0.02047322       0.21593429       0.15766424       0.29837759      -0.99501735      -0.79056067
I        6.57641241       1.69058965       5.22863848       0.07399826      -0.12884386      -0.01271510       0.56551201       0.69247771       0.46874218
I        0.39665229      10.14332729       7.41145813       0.03506853      -0.03039638       0.29495103       0.32304169      -0.10060775      -0.32268704
I       12.86078013      24.14208267       1.56455770      -0.13335020      -0.16980112      -0.01272884      -0.49203647       0.79391421      -1.08379003
I       12.45963976       1.62031663       5.11333842      -0.17210132       0.01019019       0.05539852      -2.75352036       0.80658498      -0.55849406
I        0.26047576       7.89845071       3.48496958       0.11352262      -0.14200618      -0.19470999       0.44023411      -0.06808564      -2.18574031
I        9.47298187      11.62785579      10.31852031      -0.03667595      -0.04957807       0.03236064      -2.09956664       2.06048320      -0.10001483
I        3.04144787       3.90775771       4.47740749       0.11131125       0.19281081      -0.04336663       1.53683598      -1.91991411      -2.39749001
I        3.29709215      23.65017405       4.20417816      -0.05186872      -0.09195845       0.03749555      -1.28705230       0.25935346      -3.07633483
I        9.55018131      10.64605389       4.91552913      -0.42433543       0.07623056      -0.04958815       0.17699634      -0.82231397       1.10723453
H        2.32603745       0.26907770       0.40344393      -0.56565297      -0.52521471      -0.29051957       0.10462618       0.06217230      -0.10620592
H        9.62554175       0.87990251       2.80494678       0.02046216       0.05894274      -0.09397145       0.12275266      -0.13673409       0.03763116
H       10.54346265       8.80152702       1.97293039      -0.68949810      -0.20965521      -0.19427180       0.17817055      -0.08800771       0.18945761
H        3.08728265       0.17735994       8.13054974      -0.15979780       0.08228655      -0.08611055      -0.03175662      -0.07026194      -0.04807455
H        3.88496634       6.79845495       6.01793719       0.22960855      -0.39411302       0.00041996       0.03013881       0.09460361      -0.22015772
H       10.50541452       2.37971954       2.33872805      -0.05283156      -0.22012305      -0.32100785      -0.01880213       0.08131956      -0.01462564
H       10.35101617       3.10223367       7.66886580       0.40951320       0.01437019       0.24308814       0.09704397      -0.00859001       0.13091630
H        1.96940810       0.71287936       6.74836792       0.39578090       0.16905981       0.67039059      -0.18653785       0.01632411       0.05117462
H        4.10706105       0.71553189       0.09772636       0.28926432      -0.19484938       0.09765494       0.08448322       0.00084745       0.12381606
H        8.71108033       2.33550299       2.23308789       0.47713754      -0.48726567      -0.33285513       0.01820361       0.04874551      -0.15033891
H        8.75675980       8.94909530       2.32219052      -0.89312792       0.28198816       0.25148501       0.19429860      -0.05530709      -0.18413632
H        3.74737468       0.31060550       6.38736566      -0.54289589       0.46638105       0.66876673      -0.13496409      -0.03445956       0.00816696
H        3.77398720       2.77779376       1.56894940       0.55421529       0.41043172       0.28357732       0.18253573       0.03503720       0.12159464
H        9.44922788       8.42499630       6.18453402      -0.09912708      -0.00062895      -0.03720459      -0.13526780      -0.08600873      -0.08563507
H        8.49342991       7.39959903       0.17759067      -0.08647163      -0.01119166       0.16878729      -0.06093609       0.02675866       0.02025692
H        2.16185682       8.30505886       1.62601371       1.18327580      -0.12688564      -0.54421923       0.08215546       0.06985980      -0.11872623
H        3.57108458       1.14389739       2.46427710      -0.22045037       0.16318153      -0.21410630       0.04129066       0.13524180      -0.05952125
H        8.67193220       6.94536863       6.69858961       0.91090234       0.94066524       0.07997128       0.03004482      -0.11597041      -0.07986588
H        9.23987122       6.70574558       1.60923627      -0.24946871       0.14951271      -0.56328232       0.14983888      -0.07733377       0.04070464
H        3.15434918       8.86972986       0.34492938       0.07530670      -0.48370306      -0.05908044       0.04183919       0.16895031      -0.17570410
H        2.08468135       2.07277696       1.77746711      -0.08659315       0.51787931       0.44891478       0.08685522       0.05620485      -0.03459535
H       10.58264728       0.71016869       0.48459386       1.16756046      -0.62711022       0.15619453      -0.10083644       0.11302384       0.02872599
H       10.18726730       7.22311907       0.31618659      -0.20080795       0.08790189      -0.14872649       0.00564763       0.11003677      -0.07779269
H        3.89663012       8.68897444       1.93481075      -1.06393719      -0.29358164      -0.84772342      -0.07338326       0.07735229      -0.03041076
C        3.08902006       7.48318890       6.32115811      -0.51727772       0.71341460       0.04983927      -0.28443478       0.26180268      -0.31990925
C        9.64420892       1.73125715       2.10924414      -0.46686705      -0.04202854       0.16846316       0.47347095      -0.05461346       0.04046000
C        9.32866596       2.59374207       7.37477921      -0.07306373       1.03491406      -0.13146519       0.21025596       0.05401622       0.02660860
C        3.01514960       0.76951588       7.20375684       0.25649066      -0.73209187      -1.49705012      -0.42604459       0.55886182      -0.12136285
Pb       6.21380098       4.91141711       4.41062519       0.04871022      -0.29221642      -0.55508286       0.66989745       0.48673657       1.10204973
Pb       6.24123758      11.10916209       4.27314372       0.10200626      -0.38625138       0.04241753       5.50896262       1.90365804      -1.14654238
Pb      25.49046656      11.09463355      10.57934322      -0.08913210      -0.23257484      -0.08314248       0.29960404      -0.60754092      -0.02259281
Pb      25.41663411      10.73040531       4.41824610      -0.24761679       0.03681807      -0.02761521      -1.62621864      -2.62503245       0.28211471
N        3.14785694       1.82364034       1.63148180      -0.44762414      -0.58432844       0.28156047       0.12608669      -0.20590787      -0.12390047
N        9.47245687       7.65116845       6.87768470      -0.57066548      -1.31760533       0.03045609       0.09803679      -0.78474610      -0.14414486
N        9.31128749       7.43805087       0.84251091       0.41115658       0.25308827       0.82991066      -0.04170518       0.18971154      -0.27498125
N        3.18034807       8.24034406       1.18798554      -0.44155390       0.80923424       1.94629249       0.13021087       0.17018213      -0.08207162
I        6.45879968       5.71112814       7.31140918       0.12691777       0.10807362       0.24126683      -0.62792381       0.96700365      -0.14231400
I        5.96088925       3.83674174       1.26600238       0.11270037       0.07061583      -0.08378507       0.74852410       0.09335375       1.05971693
I        6.24148096       1.82018077       9.64165730      -0.07740811      -0.08253439       0.00329684       0.76162226       1.16482568       0.73592839
I        6.42434708       8.32938751      23.35720259       0.11566337      -0.23815219       0.06409228      -0.85912120      -1.62200346       1.03596985
I       -0.05238501       3.83777436       1.20548312       0.20272506      -0.15853926      -0.38102575      -3.00021767       1.30991519       0.96499593
I       12.25979483       5.73302283       7.18744625       0.19168094      -0.19050522       0.18842552       3.33545462      -0.66312233      -0.20364744
I       12.28534917       8.33177626      23.69421287       0.02937360      -0.23616970       0.05267459       1.66653578      -0.10066772       1.21993926
I        0.29018301       1.96538772       9.54850557       0.08371263      -0.11961371      -0.16967397      -0.22273858      -1.90301495      -2.41875841
I        9.45067364       5.15895289       3.65154041      -0.05967460       0.04707223       0.18639702      -1.40046698       0.04029012       0.48346239
I        3.11781933      11.22204989      23.31257702       0.20444018      -0.14223386      -0.20709936      -0.06728546       1.69836617      -1.59145606
I        3.21687242       5.15165956       9.83826509      -0.21514227      -0.08744953       0.14408515       1.08347708       2.52021446       0.28536552
I        9.42537447       4.93310509      23.28263600      -0.00165230      -0.19297775       0.08625655      -2.90673722      -1.22238561      -0.94331520
H        3.15567116       8.42040185       5.75599131       0.08478438       0.08462637      -0.26171892       0.06012057       0.00094068      -0.18865754
H        9.10044374       7.32549007       8.98339520       0.14173666       0.06638825      -0.07055965      -0.10047159       0.09626315       0.19102304
H        8.58578183       2.79250065       8.23284454       0.27676625      -0.50756635      -0.58970550       0.03985678       0.10366385       0.18059565
H        4.47936573       6.71110689       0.36274146      -0.15828530       0.05540925       0.13699311      -0.19954332       0.20231756      -0.15266977
H        2.76409680       1.88865745      -0.49376073      -0.02370097      -0.67145134       0.41434378       0.10093677      -0.11751962      -0.02640700
H       10.39840896       8.58459340       8.50251358      -0.00818052       0.11624089       0.24572427      -0.02448312       0.03012807       0.09615073
H        9.48709572       9.58045835       0.77572617      -0.46197411       0.79102192      -1.15698235       0.30970713       0.04890221      -0.07870531
H        3.79782226       6.24075837       1.99604636      -0.04754185       0.60899086      -0.77636414       0.04557685       0.02022683      -0.07640438
H        2.05001585       7.08330581       6.17142551       0.29425502      -0.16498541       0.08858063      -0.14088088      -0.10775079       0.02518170
H        8.57536764       8.95894337       8.25883453       0.24645288      -0.00505030       0.26792760      -0.24295275       0.18579003       0.05883761
H        8.98402361       3.09012302       6.34534100      -0.16615385      -0.79767323       0.53191210       0.16077591      -0.08196766       0.03998505
H        2.68496648       6.20415179       0.47187756      -0.43873871      -0.02336467      -0.32652355      -0.18824016      -0.02844658       0.00603439
H        3.26055195       7.06489201       8.42243118      -0.30440466       0.35531401      -0.34536609       0.01206541       0.18479823       0.05943951
H        9.67579251       2.03270063       0.05464400      -0.18388390      -0.37409270      -0.07687883       0.13759132      -0.03740601      -0.03182993
H        9.83190326       0.59778325       8.23521045      -0.16460938      -0.22378233      -0.08327433      -0.22500169      -0.09054546       0.06149491
H        4.38138278       2.19969492       7.97581595       0.17189255       0.43710084       0.45875956      -0.03820964      -0.07321783      -0.16090249
H        2.56301549       8.59463489       7.99853325      -0.74244338       0.18801814       0.34444054       0.04081803      -0.01298539       0.21841274
H        8.95894637       0.54796862       0.50046020      -0.80161804      -0.20458158      -0.15240091      -0.01749991       0.03954267       0.03356468
H       10.32292143       0.95575672       6.55205986      -0.42794107      -0.13682959       0.41675183       0.11176285      -0.04658438      -0.10659483
H        2.66520328       2.54179396       8.25154621       0.31006545       0.37457576       0.00162333      -0.02497287      -0.02714720       0.00212438
H        4.23073689       8.38526353       7.90413000      -1.07073980      -0.68422177      -0.45229094      -0.09634755       0.14972248      -0.12527104
H       10.38133519       7.11460878       6.77448978      -0.20406894       0.06956805      -0.07498400       0.02438485      -0.16486161       0.12646327
H        8.62470532       0.62549660       6.86178238       0.19611953      -0.24694524       0.16374895      -0.01019432       0.11958872      -0.01572030
H        3.39910131       2.82145100       6.72886015      -0.08795104       0.47854158      -0.61233963      -0.35079338       0.05671918      -0.02329818
C        3.09006693       1.10161163       0.33058432       0.31253021       1.01911948      -1.13950040       0.21464449      -0.04516441       0.93295564
C        9.39214307       8.16956568       8.28194814      -0.52964665       0.12736642      -0.47742314       0.73108348      -0.26461049      -0.31472234
C        9.48506866       8.81393400       1.51499567       2.01666484      -1.41253123       0.73253143      -0.47043559      -0.04031879      -0.66605097
C        3.55604470       6.75386843       0.97478005       0.55614036      -0.66026766       0.64076975      -0.18951392       0.25591624      -0.12145347
Pb       6.38894366      11.08832901      10.63222298      -0.26074800      -0.00128756      -0.20976307      -0.02764764       0.57040830       1.46667383
Pb       6.22591457       4.92598159      10.47737035       0.14862528      -0.05167802       0.11622013      -0.81112321      -0.27287803      -0.95289992
Pb      25.37695901       4.61522829       4.21208864       0.02256773      -0.10656121      -0.17345559       0.00358232      -0.33750068       0.10001185
Pb      25.44706241       4.90850561      10.40157361      -0.05335295       0.12372182       0.01051301      -3.15107678      -1.92340510      -1.22776860
N        3.27018562       7.88532203       7.75499058       2.01712068       0.23217762       0.46510301       0.38413140      -0.68096808       0.61951961
N        9.72397337       1.19950974       0.69118327      -0.35922920       2.05682193       0.46977232      -0.00280240       0.03089231       0.14570804
N        9.53622694       1.05727866       7.26714921       0.00038184       1.02211782      -0.77634539      -0.24561061      -0.34140909       0.17629770
N        3.39710724       2.21763657       7.55334502      -0.49321307      -1.33069417       0.44750164      -0.88176027       0.00593130      -0.36298659
I        6.48061030      24.39648416      14.03441785      -0.11376892      -0.09243645      -0.08312485      -1.28935190       0.61951960      -0.29201138
I        5.98784693      10.15115766      19.68029343       0.03468815       0.22172412       0.15782546      -1.51759435       0.93767115      -1.51895108
I        6.06992724       8.24381135      16.20082300       0.00272208      -0.31863912      -0.19513471      -0.22493826      -2.04971793      -0.21146372
I        6.17560730       1.93734611      17.55859299      -0.01316207      -0.00215872       0.04050427      -0.28344337      -2.91140638       0.36839394
I        0.53609719      10.46580449      19.85421998      -0.22227383       0.21395837      -0.21500046      -1.53113432      -0.24569925       2.87513077
I       12.59257579      24.85156276      13.90694596      -0.14108612      -0.09541361       0.22900465       0.09764121       0.28779157      -0.76753289
I       12.40771371       1.87622986      17.20462101      -0.13700998       0.12548396       0.26371248      -0.84481021      -1.70409655      -1.32409943
I       -0.13848738       8.20787196      15.93117483       0.31815315       0.05347231      -0.23491536      -0.05211629       1.34804063       0.25604482
I        9.49967349      11.96514996      22.75068440       0.22837579      -0.07063366       0.02630855      -0.01091222      -0.19207869      -0.20036944
I        3.07957792       4.74017124      16.72481519      -0.29700142      -0.14622702       0.06170419       0.11037428       1.50247871      -1.67118291
I        3.15007114      23.83296578      16.30372598      -0.05759918       0.01681259       0.12104426       0.97155119       2.01002904      -0.31064974
I        9.38478878      10.91109881      17.34672463       0.05874609       0.06099555       0.02778793       0.90696010       2.47794915      -0.58545770
H        2.02380849       1.05765802      12.38624844      -0.13696957      -0.04500912      -0.06750567       0.19078388      -0.05284706       0.04621966
H        9.42849005       1.33305341      15.16144449       0.06995917      -0.27934147       0.32046557       0.17355541       0.22959224       0.06436901
H       10.39462876       9.42267819      14.31888943       0.53077611       0.09998331       0.62321148      -0.00325735      -0.11623433       0.00972116
H        3.21146882       0.29721380      20.62920005      -0.10239937       0.40288597      -0.67618993      -0.09433018       0.19705245       0.12591897
H        4.03608915       7.63187597      18.34637618       0.56950445      -0.51181481       0.03561477      -0.09485278      -0.18228009      -0.05261536
H       10.32284758       2.76663726      14.46103303      -0.88856025      -0.44719780      -0.13355599      -0.15321610       0.19800808       0.01745144
H       10.47484544       2.61191922      20.19348483       0.62937006       0.31375166       0.52645043       0.11087506      -0.06085738      -0.03971309
H        2.06017410       0.42553524      19.09495724       0.16202890      -0.28491983       0.47386214      -0.14330822       0.17414501      -0.08241679
H        3.78061981       1.15843216      12.09517540       1.26151066      -1.07132744       0.20276428      -0.00474137      -0.20558921       0.15001434
H        8.47830535       2.79105755      14.81327897      -0.19753883       0.37033252      -0.04888716       0.06807340       0.07017193       0.13284790
H        8.56872110       9.23630972      14.56191718       0.64026002       0.06670235      -0.08652602      -0.03142235       0.06427808       0.01219799
H        3.82644020       0.47066624      18.83664675       0.21367574      -0.22857414       0.14677925       0.05705822       0.11025718       0.04484792
H        3.91718647       2.81778999      13.83599527       0.75282688      -0.05460013       0.30889118       0.01053294       0.02659591       0.01138459
H        9.24219676       8.83077312      18.77717506       0.14897767      -0.23525710       0.09998141       0.06794922       0.15094999      -0.22515761
H        8.63816918       7.41078540      12.94879678       0.26009120       0.23915112       0.11140844      -0.01786537       0.14987120      -0.04302812
H        2.44183719       8.60625321      14.55841003      -0.41012111       0.07939985      -0.07380363      -0.09775044       0.06556251      -0.03133537
H        3.23598782       1.39988637      14.55662558      -0.23611660       0.29210321      -0.28775457       0.04631290       0.12737915       0.08751218
H        8.45237571       7.41832968      19.32044806       0.61522642       0.34168053       0.20181033      -0.20944982       0.09292251       0.24742874
H        9.57719839       7.07726642      14.28905925      -0.00988447      -0.36067400       0.79277089       0.17435335      -0.15374872      -0.06038268
H        3.34143971       9.26643113      13.27082543       0.11156241      -0.04333177       0.38848391       0.02474956       0.14813150      -0.02961794
H        2.31659640       2.81962902      14.09684227      -0.21821839      -0.65782282       0.01555586      -0.15280329       0.06257915      -0.01387234
H        9.88158162       0.97732924      12.89944041      -0.37200728       0.07464440      -0.27421877       0.17412118       0.16901233      -0.14651900
H       10.35004591       7.51249370      12.84027222      -1.15169161       0.32180165       0.74447928      -0.10799721      -0.09642982      -0.21255960
H        4.09353627       8.54257700      14.72262370      -0.38963061       0.04789378      -0.71504563      -0.10605289       0.15137976       0.06122105
C        3.04397672       7.99187343      18.71630245      -0.43677280      -0.61005799      -0.08875444       0.03356734      -0.31809296       0.21707366
C        9.33145668       2.19029525      14.49927605       0.67099498       0.01205162      -1.09804261      -0.88185408      -0.14657136      -0.29344573
C        9.42063162       2.64372898      19.82099545      -1.49953999      -1.59725956      -0.81831254       0.01035947       0.23765645       0.81461808
C        3.03438088       0.73044450      19.56259063      -0.61356495      -0.10463656      -0.40630988       0.49839207       0.57635348       0.42295148
Pb       6.14117235       4.90928358      16.74861145      -0.00286008       0.48261665      -0.15437175      -0.95818303      -3.29767330      -1.68521477
Pb       6.26150227      11.36885336      16.72031481      -0.01644626      -0.07488704       0.18357362       0.36873965      -2.37018639      -2.45376230
Pb      25.52832168      11.27952896      23.01681493      -0.31559407       0.06892365      -0.25724401      -2.56674106      -2.65392015       2.76532252
Pb      25.38481773      11.25908599      16.68970684      -0.04220600      -0.02613087       0.28627764      -0.49836448       0.31679699       0.37063603
N        3.09696857       2.16347540      13.83066362      -0.04223445       0.58173954       0.30391337       0.37538190       0.34965309      -0.16491491
N        9.33097834       8.01293261      19.43562080      -1.17922216      -0.09142014      -0.75993346       0.01335134      -0.59948896      -0.36865118
N        9.49978887       7.69907773      13.48581442       1.22964288       0.37875260      -1.97941556      -0.45345748      -0.50218160       0.12254146
N        3.29185412       8.49142818      13.98977924       0.03825173      -0.52619068       0.41175157      -0.00712521      -0.46816797      -0.82008105
I        6.52830777       5.88551620      19.81158649      -0.04212702      -0.02258206      -0.23946733      -0.43702736       1.04389413       0.28497891
I        6.06210546       4.04352322      13.59223072       0.00709125       0.10317273      -0.09446690       1.04677960      -0.31860859      -0.87000514
I        6.02276833       1.93749283      21.90747633      -0.15436531       0.00749831      -0.05980520       1.47129745      -0.25644397       0.87433736
I        6.65777934       7.96974085      11.38229586      -0.00854143       0.07189125       0.00539394      -1.54841426      -1.58255885       0.18552425
I        0.15584045       4.07791126      13.50427691      -0.01624084       0.05506744      -0.12431002      -2.09332263       1.32814156       1.21663222
I       12.27678760       6.07969669      19.81532842      -0.03308988      -0.07428380      -0.50492010      -0.14540886       0.68400833      -0.63389505
I       12.31076300       7.96666219      11.07309568      -0.15995640      -0.06414015       0.17925863      -0.04647909      -0.48156752       0.57945976
I        0.38224060       2.12391841      21.82381656      -0.11043670      -0.08544209      -0.05837256       2.78169054      -0.27384150       0.57710739
I        9.24166343       5.54820687      16.46147752       0.50406750      -0.04319383       0.00397266       0.56277557      -0.21048083       0.85403867
I        3.05408746      10.57077305      10.85498956       0.27895129      -0.04694476       0.12548664      -1.71535441       0.99199192       0.30125069
I        3.02848416       5.17933647      22.24544111      -0.03180063       0.09192542      -0.00759686      -1.72426239       0.24779934       0.45989818
I        9.41045334       4.60632055      10.88672247       0.11330900      -0.00839092       0.07309634       2.43731615      -0.10514957       0.46894435
H        2.77058900       8.90312937      18.13838754       0.01474659       0.69255185      -0.08039536      -0.01614182      -0.14253496      -0.16608158
H        9.64402427       7.54096232      21.45379456       0.36118930      -0.46961204       0.15282323      -0.15365200       0.08020595       0.06750620
H        8.64840542       2.79460677      20.64672097       0.58926793       0.03034739      -0.09875456      -0.22530216       0.02450667      -0.05102243
H        4.34541281       7.16281523      12.77125464      -0.30046707      -0.36443560       0.35834784       0.12455251       0.03726321      -0.03130968
H        2.85303341       2.50650625      11.78849588      -0.33620485       1.22024743      -0.69460501      -0.11307783       0.11382925      -0.11149887
H       10.49172221       8.99383510      20.85350736       0.17566674       0.13537966       0.18186206       0.15265787      -0.09616048       0.15337428
H        9.25650152       9.83036240      13.00709208       0.03631306      -0.42136174      -0.27249667       0.16268653      -0.03481014       0.05215158
H        3.16928375       6.28816536      13.99952751       0.20965339       0.09453121       0.25219405       0.01243085      -0.04985017      -0.07014256
H        2.25293015       7.21296434      18.58529349       0.06597978       0.00790874      -0.09727879       0.11794926      -0.10083350       0.04483929
H        8.72164842       8.97308412      21.33664946      -0.68362564       0.62126453      -0.72157795      -0.02482631      -0.12207635      -0.06351724
H        9.22639705       3.39428065      19.00360526       0.15600659      -0.30764111       0.14513757      -0.17257228      -0.01179074       0.09438968
H        2.57338360       7.02903722      12.45203928      -0.33580119       0.38636894       0.00064531       0.05469117       0.34794596       0.06964708
H        2.90882088       7.37895695      20.75776623       0.11721099       0.26111784      -0.28963866       0.05019367      -0.24568907       0.00388502
H        9.10298685       2.33526622      12.33851892       0.05700200       0.70551075      -0.16030277      -0.20455955      -0.02478889      -0.08042700
H        9.34577983       0.49461852      19.97611835      -0.42253086       0.02812371      -0.16032524      -0.00992830       0.05633773       0.09950613
H        3.99739679       2.54777924      20.03149662       0.14301611       0.36834101       0.42485865       0.06107453       0.08394993       0.04583794
H        2.28508427       8.93612582      20.32582983      -0.16754518      -0.00074938       0.34461316       0.04554309       0.02918518      -0.04872990
H        8.15690706       1.08001023      12.95626539       0.62757231       0.31110989       0.64990560       0.17343505       0.00001711       0.16762753
H        9.78810941       1.01738680      18.45116377       1.53870118      -0.52263876      -1.33030181       0.15320954      -0.01910339      -0.00541313
H        2.30851072       2.64688531      20.27079383       0.22588220      -0.28670065       0.02493189      -0.02941807       0.09027042      -0.05262928
H        3.95375076       8.72917048      20.49757597       0.11237360      -0.01371806      -0.18045012       0.06919571      -0.03418058      -0.12665702
H       10.15287525       7.43884405      19.19372669       0.14449682      -0.18003327      -0.43243339      -0.20259841      -0.06158586       0.08948322
H        8.10023786       1.18501921      18.80735372       1.01276085      -0.07230129       0.64315765      -0.02401624       0.01640252      -0.05468964
H        2.97302538       2.74732376      18.70380634       0.13565108       0.29517803      -0.71098223      -0.17809833       0.03981106      -0.02980269
C        2.92308176       1.68094239      12.44382572      -0.99941980      -0.35594306       0.23357217      -0.62117757       0.19454285      -0.10887718
C        9.55610815       8.42247179      20.82291543       0.28754943      -0.13493862       1.25606169      -0.03029058       1.00736395      -0.04945700
C        9.44637768       9.15517833      13.87044033      -1.44333230      -0.38058660      -0.04305127       0.25193938      -0.28189087       0.29996767
C        3.32787830       7.13861059      13.27469103       0.75408447       0.33118501      -0.59109323       0.26848857       0.14758698       1.01613336
Pb       6.40100063      11.52348178      22.72102381      -0.21672282      -0.34587718      -0.14941838       0.86154846       0.85054049       3.48877524
Pb       6.18602459       5.03861675      22.74827453       0.09444297       0.00490469       0.41561502       0.01582492      -2.35139519      -1.51360630
Pb      25.24490812       5.01871648      16.47614821       0.11771827      -0.06790075       0.26428873      -0.69969217      -2.21458421       0.77402598
Pb      25.32947563       4.96412433      22.71501917       0.00040909       0.24419005       0.17393888       1.00323315       0.40742715      -0.43400394
N        3.07046376       8.25730508      20.17393701      -0.13502244       0.07817119       0.54277310       0.10049674      -0.14220798      -0.00817521
N        9.07444828       1.62349760      13.07806489       0.29733069      -0.65659784       0.70960017      -0.16680758      -0.04894747       0.54340791