768
Lattice="25.489424268572538 -0.0956594233117733 0.005584256169073863 0.09977264370270744 24.739172851202614 0.6001478684267295 -0.002024446371267937 0.5682806783236378 24.75292066089703" Properties=species:S:1:pos:R:3:forces:R:3:momenta:R:3 pbc="T T T"
I        7.27287967      24.25796372       1.38718312       0.09838516       0.11081709      -0.06784516       0.80489180       0.11702710       0.49595835
I        6.42863366      10.49234779       7.30450792       0.23256093       0.06550536      -0.01115435       0.57344493       4.45106525      -0.80510891
I        6.29445570       8.09998067       3.23564269       0.27673184       0.23642299       0.12117104      -0.03266218      -0.07171787       0.38708664
I        7.54464304       1.97054686       4.69496641      -0.16060112      -0.16855713       0.08108965       2.40525087      -0.45908451       0.60492438
I        0.70823712      10.19094813       7.13915099       0.01834365       0.26245518      -0.08390439      -0.04627222       0.22190408      -1.66181375
I       13.30888382      24.39908023       1.20802991      -0.16388958       0.04257261       0.01693853       2.01508725       0.62515223       1.08754342
I       13.05008253       2.01526645       4.64197012      -0.07410834      -0.20186119      -0.08292286       3.61812455      -0.06156559      -1.28541555
I        0.55874422       8.29415165       2.86759394       0.20760428      -0.16439585       0.12209173       0.49357270       0.91728337       0.83442623
I       10.24424577      11.86461943      10.05370205      -0.12480797      -0.05683861       0.11935569       0.64512453      -1.16636673       2.22288125
I        3.65961308       4.36783982       4.18686044       0.17598573       0.13112258      -0.02829627       0.50098991      -1.74777416      -1.64660690
I        3.66733010      23.91521010       3.87186113       0.19628188      -0.06112267       0.03675387      -1.08859491      -0.00816115      -1.30465031
I       10.06228463      10.84747066       4.82020568      -0.12784192       0.09949013      -0.14365321      -0.36659141       3.66649701       0.88018146
H        3.10138664       1.27570606      24.17179454       0.52821189       0.29515067       0.42286842       0.06060831       0.04544749      -0.15607010
H        9.99209854       1.18391932       2.73929954      -0.19719479       0.69651370      -0.45235256      -0.06172714       0.10429993       0.07192052
H       10.90778147       9.21253335       1.57857499       0.10472338      -0.12078654       0.20978897      -0.06217798       0.16429280       0.09159400
H        3.83765269       0.33336403       7.24179335      -0.45197942       0.50773522      -1.17887844      -0.02672290       0.09340301      -0.09603430
H        5.09875375       7.38936048       6.62374826      -0.80597501       0.59561351      -0.33141194       0.12569529       0.04714011      -0.03352158
H       10.60613739       2.88612727       2.47533200      -0.23553338       0.32185815      -0.05069756      -0.18509685       0.10453665      -0.03812812
H       11.23099580       3.21150992       7.60719257      -0.28230666       0.72093434       0.30800958      -0.02861237      -0.10784542      -0.14223161
H        2.76717975       1.13560900       5.86664123      -0.67596578       0.00501683       0.18278787       0.03963208      -0.05549313       0.02715612
H        4.94029723       2.24549747      24.20971822      -0.14528819      -0.20749856       0.38097445       0.11180009      -0.12295020      -0.04655723
H        8.73571489       2.44426465       2.16503171       0.29803335       0.24188917       0.22004684      -0.22492863       0.01062094       0.04087258
H        9.08443581       9.00312884       1.64863867       0.14957550       0.29196229       0.28930143       0.22322512       0.06484559       0.29000744
H        4.47375590       1.15150042       5.75252240       1.07274424       0.03826824      -0.48540942       0.05643880      -0.07120477       0.00017687
H        4.18192015       2.72620283       1.52230031       1.48490815       0.24368139       0.50794442      -0.06654783       0.05007753       0.09889841
H       10.18055157       8.77390359       6.11549482       0.24733195      -0.42696139      -0.25013004      -0.16564923      -0.12929505       0.17731728
H        9.05441973       7.23491199       0.29598785       0.35865532      -0.20506651      -0.13738734       0.09256098       0.14274311       0.05513205
H        2.79024174       8.67219504       1.72276564       0.87760308      -0.16380029      -0.97549467      -0.16458737       0.07824769      -0.09012236
H        3.28540928       1.23922831       1.72131626       0.59567541      -0.44204868       0.98004458      -0.13392714      -0.01228036      -0.13794853
H        9.50453868       7.23031319       6.41863314       0.39489220       0.32503626       0.33915824      -0.01301275      -0.01207924      -0.05011066
H       10.21899693       6.89371781       1.58086540      -0.28384697       0.55207059      -0.84021922       0.29197404       0.12971443       0.01920096
H        3.87259738       9.30513972       0.46591139      -0.40455489       0.68346524      -0.32287804       0.04946895      -0.01072400      -0.14727988
H        2.61876183       2.69347210       1.30838523      -0.98182175       0.08853602      -0.16531172       0.16419487       0.07153998      -0.04625760
H       11.01608067       1.13145880       0.63106013       0.58216332      -0.17251440      -0.12525463      -0.05884663      -0.08348274      -0.08109714
H       10.76147456       7.78634629      24.74341515       0.22161791       0.28549563      -0.40300898      -0.12418147      -0.12895140       0.08149119
H        4.46924694       8.58987517       1.86358952       0.55297210      -0.37056825       0.16620385      -0.03645674       0.02782758       0.08327406
C        4.11026672       8.00215537       6.46156877       0.13800693      -0.31347267       0.12679938      -0.54006248      -0.07019088       0.02211673
C        9.84879935       2.12768013       2.12753884       0.39679706      -1.14259214       0.09411793      -0.21321664      -1.02896451      -0.13553366
C       10.24416551       3.05834619       7.13178261       1.45033693      -0.70741272      -0.59087681       0.13145294       1.04531992       0.20750434
C        3.66609339       1.19495848       6.46773523       0.20511684      -0.93184329       2.03985332      -0.21605196       0.61588918      -0.66699794
Pb       6.89145959       5.04977994       3.86128161      -0.03911325       0.06863142       0.11650380       0.37258983       1.87820846      -1.41894541
Pb       6.92713975      11.31117690       4.17167423      -0.15839835      -0.16528481       0.02223823      -2.42279025      -3.90374414       1.69870045
Pb       0.57991261      11.29346199      10.18661500       0.00986014       0.27213696      -0.21370200      -0.57891149       1.24397339       2.06201373
Pb       0.45479490      11.22468137       3.93852964       0.14969196       0.07173840       0.26555261      -2.66867517       1.00567707       0.43377190
N        3.44918206       2.11363199       1.18970785      -0.97030940      -0.48353771      -1.98921423       0.02086366       0.22639321       0.20923749
N       10.28700780       7.89578800       6.69781496      -0.72063633      -0.16160177      -0.28424116       0.05373638       0.18711352      -0.13984445
N       10.02907612       7.48577552       0.67043614      -0.29861216      -0.91757083       1.16598345       0.35476707      -0.51635827       0.00285854
N        3.69895910       8.53500371       1.14948134      -1.42238472      -0.42580226       0.47040577      -0.20630749      -0.15845226      -0.01558672
I        7.29865177       5.91473889       7.03573089       0.02609798      -0.09329962       0.03681535       1.45851267       0.47039296       1.61856646
I        6.50983498       4.03677289       0.90188681      -0.02887235       0.00031611      -0.07123488      -0.58062101      -0.79684325       0.30456495
I        6.66634810       1.96715832       9.31264550      -0.05385519       0.14047264      -0.11845592       1.69466527       1.14425510      -0.42503118
I        6.92930131       8.38199669      23.54768940       0.22396578       0.14672287      -0.03604445      -1.01017995       0.40178254      -2.13934664
I        0.47724167       4.22640070       0.80890059       0.13779846      -0.16260802      -0.05852808       0.19090077      -0.08874799      -0.05697183
I       13.19488153       5.82322627       6.90766697       0.01229438       0.07571204       0.10399829       1.42614618      -0.76279073      -1.17662432
I       12.95068812       8.44390904      23.29772246      -0.05584589       0.10350905       0.07549752      -0.66113847       0.85738679       0.16632562
I        0.79981691       2.05590986       9.11485209      -0.02605176       0.06347064       0.12006856       0.84256965      -0.34889215      -2.56705736
I       10.07075089       5.92369035       3.73509522      -0.04018353      -0.21034107       0.04600610       1.05821210       2.27673901      -2.27813432
I        3.88220857      11.23006071      22.92744046      -0.26399490      -0.01323198       0.03176783       0.13515527      -2.23914455       0.67473516
I        3.68818190       5.47988653       9.75853187      -0.17949828      -0.11414870      -0.09578485      -0.47030417       0.64349889       1.03731305
I       10.04854179       4.96333812      23.08335301      -0.18081985       0.16800193      -0.05992697      -0.07189904      -0.76842390      -2.69550501
H        4.21517625       8.85891768       5.75780884       0.39031099      -0.32156179       0.32014800      -0.08810428      -0.03405901      -0.04503973
H       10.42632957       7.49937552       8.84555588       0.03509343       0.91610956      -0.95075848       0.06969573       0.21698668       0.26874354
H        9.40609929       3.22487102       7.79394722      -0.34854171       0.35366543       0.05612444      -0.01537026      -0.07801787      -0.10399580
H        4.49096073       7.71831769      24.35485152      -0.99721879       0.28839883       0.79801134       0.00685539       0.09723472      -0.10698677
H        3.25399901       3.26428160      23.86223734       0.03555272      -0.44679978       0.56242566      -0.10970198       0.00157262       0.06096018
H       10.87528675       9.25660612       8.23729027      -0.04866596      -0.00822374       0.11615715       0.03627120      -0.13974178       0.03930764
H        9.86941110      10.11611259      24.91825561       0.04536078       0.12687552      -0.46445923       0.17448586       0.01517265       0.03941385
H        3.66782639       6.33461347       1.07370868       0.01063576       0.42242815      -0.56471679      -0.11233665      -0.04878437      -0.10241229
H        3.24853548       7.38662863       6.06622283       0.39678854       0.00928831       0.19110668       0.09445493       0.06305317       0.18236987
H        9.07010567       8.66301817       8.22146094      -0.31210811       0.44092153       0.30013161       0.16512606       0.01909853       0.02774724
H       10.25621503       3.58942456       6.14580263      -0.42935525      -0.16333323       0.54920841      -0.10642539       0.07555196      -0.05989864
H        2.66903198       7.77206130      24.50915764       0.11497833       0.20944110       0.14696567       0.17713591       0.22867489      -0.01460253
H        3.54731614       7.70832927       8.54554673       0.12447826       0.22111617      -0.01973199      -0.03892607      -0.02017781      -0.01228427
H       10.23870925       3.10602525      24.73957606      -0.09973560      -1.08717444       0.97108770       0.07955973       0.15088730       0.06824762
H       10.42556677       1.00341697       7.74866244       0.04452581       0.21142755       0.13189235       0.14963419      -0.11824751      -0.17079103
H        4.50292187       2.46405687       8.04359252       0.02377875       0.06300217      -0.68415525       0.04056794      -0.03637283      -0.06467702
H        2.82099228       9.06316391       7.79062694      -0.90093328       0.48807584       0.36264450       0.11295312      -0.06495748      -0.00609276
H        9.35098881       1.09776482       0.40374802       0.25439767       0.18425315      -0.30165532      -0.13543548      -0.13782582       0.14153213
H       11.16720814       1.36680012       6.31271834       0.79806829      -0.00004545      -0.65719278      -0.21147380       0.18728944      -0.15122657
H        2.86357936       2.62313187       7.84291770      -0.46385412      -0.01735940      -0.16292992       0.13809108       0.13250522      -0.12763936
H        4.49091498       9.17115156       8.29971777      -0.83646686      -0.82448389      -0.39620684      -0.11251807      -0.08110368       0.10903947
H       11.17868902       7.39431202       6.48221276       0.14681963       0.23577325       0.10094986       0.24711603       0.12821184       0.22968057
H        9.50440194       1.16918253       6.34816137       0.38029807       0.41140029       0.05843096       0.04813758       0.06799231      -0.12726200
H        3.86200890       3.26989790       6.56348985      -0.02030956       0.30185041       0.56257209       0.00709806      -0.13693757       0.13520279
C        3.70458762       2.31880688      24.46516328      -0.49862351       0.97626077      -0.64181400       0.13195349       0.25657231      -0.25680517
C       10.16316092       8.36453038       8.10501449       0.11269581      -1.39871271       0.73244307       0.15572608      -0.16196163       0.32520880
C        9.99782944       8.91714966       1.04482394      -0.43971057       0.08060136       0.08546445      -0.02530817      -0.60074746      -0.30543511
C        3.61758008       7.21990964       0.33788028       1.03211532      -0.63361638       0.42172176       0.36650525      -0.27923769       0.30578196
Pb       6.91325356      11.32026909      10.35531686       0.21576966      -0.06450391      -0.07315641       0.05637055      -0.27439776      -0.55290058
Pb       6.60833186       5.18442067      10.11609859       0.47229505      -0.11787317       0.00783737       0.43876274      -2.96489356       1.63292976
Pb       0.55279584       5.07086385       3.79244989      -0.06351207       0.14873126       0.20635883      -0.32393602       1.24846952       0.72682150
Pb       0.31522802       5.28209341      10.11469250      -0.03139552      -0.39038300      -0.25098610       2.15245773      -0.47323851       0.59979563
N        3.71305390       8.51242047       7.88139902       1.24067256       0.01652383      -0.46407246       0.58802397      -0.03401349       0.18222492
N       10.15963552       1.70727983       0.68738822      -0.96669138       0.81355468      -0.51904329       0.26533773      -0.10916504      -0.05486131
N       10.35037357       1.57967054       6.86830850      -1.72557278      -0.83150490       0.15759294       0.32983761      -0.24552958      -0.38877189
N        3.72502782       2.49219227       7.27773852       0.43738363       0.03831899      -0.25431313       0.60899705       0.13018978      -0.03884642
I        7.27186745      24.54210406      13.76364345       0.09838516       0.11081709      -0.06784516       0.80489180       0.11702710       0.49595835
I        6.42762144      10.77648813      19.68096825       0.23256093       0.06550536      -0.01115435       0.57344493       4.45106525      -0.80510891
I        6.29344348       8.38412101      15.61210302       0.27673184       0.23642299       0.12117104      -0.03266218      -0.07171787       0.38708664
I        7.54363082       2.25468720      17.07142674      -0.16060112      -0.16855713       0.08108965       2.40525087      -0.45908451       0.60492438
I        0.70722490      10.47508847      19.51561132       0.01834365       0.26245518      -0.08390439      -0.04627222       0.22190408      -1.66181375
I       13.30787160      24.68322057      13.58449024      -0.16388958       0.04257261       0.01693853       2.01508725       0.62515223       1.08754342
I       13.04907031       2.29940679      17.01843045      -0.07410834      -0.20186119      -0.08292286       3.61812455      -0.06156559      -1.28541555
I        0.55773200       8.57829199      15.24405427       0.20760428      -0.16439585       0.12209173       0.49357270       0.91728337       0.83442623
I       10.24323355      12.14875977      22.43016238      -0.12480797      -0.05683861       0.11935569       0.64512453      -1.16636673       2.22288125
I        3.65860086       4.65198016      16.56332077       0.17598573       0.13112258      -0.02829627       0.50098991      -1.74777416      -1.64660690
I        3.66631788      24.19935044      16.24832146       0.19628188      -0.06112267       0.03675387      -1.08859491      -0.00816115      -1.30465031
I       10.06127241      11.13161100      17.19666601      -0.12784192       0.09949013      -0.14365321      -0.36659141       3.66649701       0.88018146
H        3.10239887       0.99156572      11.79533421       0.52821189       0.29515067       0.42286842       0.06060831       0.04544749      -0.15607010
H        9.99108632       1.46805966      15.11575987      -0.19719479       0.69651370      -0.45235256      -0.06172714       0.10429993       0.07192052
H       10.90676925       9.49667369      13.95503532       0.10472338      -0.12078654       0.20978897      -0.06217798       0.16429280       0.09159400
H        3.83664047       0.61750437      19.61825368      -0.45197942       0.50773522      -1.17887844      -0.02672290       0.09340301      -0.09603430
H        5.09774153       7.67350082      19.00020859      -0.80597501       0.59561351      -0.33141194       0.12569529       0.04714011      -0.03352158
H       10.60512517       3.17026761      14.85179233      -0.23553338       0.32185815      -0.05069756      -0.18509685       0.10453665      -0.03812812
H       11.22998358       3.49565026      19.98365290      -0.28230666       0.72093434       0.30800958      -0.02861237      -0.10784542      -0.14223161
H        2.76616753       1.41974934      18.24310156      -0.67596578       0.00501683       0.18278787       0.03963208      -0.05549313       0.02715612
H        4.94130946       1.96135713      11.83325789      -0.14528819      -0.20749856       0.38097445       0.11180009      -0.12295020      -0.04655723
H        8.73470267       2.72840499      14.54149204       0.29803335       0.24188917       0.22004684      -0.22492863       0.01062094       0.04087258
H        9.08342359       9.28726918      14.02509900       0.14957550       0.29196229       0.28930143       0.22322512       0.06484559       0.29000744
H        4.47274368       1.43564076      18.12898273       1.07274424       0.03826824      -0.48540942       0.05643880      -0.07120477       0.00017687
H        4.18090793       3.01034317      13.89876064       1.48490815       0.24368139       0.50794442      -0.06654783       0.05007753       0.09889841
H       10.17953935       9.05804393      18.49195515       0.24733195      -0.42696139      -0.25013004      -0.16564923      -0.12929505       0.17731728
H        9.05340751       7.51905233      12.67244818       0.35865532      -0.20506651      -0.13738734       0.09256098       0.14274311       0.05513205
H        2.78922952       8.95633538      14.09922597       0.87760308      -0.16380029      -0.97549467      -0.16458737       0.07824769      -0.09012236
H        3.28439706       1.52336865      14.09777659       0.59567541      -0.44204868       0.98004458      -0.13392714      -0.01228036      -0.13794853
H        9.50352646       7.51445353      18.79509347       0.39489220       0.32503626       0.33915824      -0.01301275      -0.01207924      -0.05011066
H       10.21798471       7.17785815      13.95732573      -0.28384697       0.55207059      -0.84021922       0.29197404       0.12971443       0.01920096
H        3.87158516       9.58928006      12.84237172      -0.40455489       0.68346524      -0.32287804       0.04946895      -0.01072400      -0.14727988
H        2.61774961       2.97761244      13.68484556      -0.98182175       0.08853602      -0.16531172       0.16419487       0.07153998      -0.04625760
H       11.01506845       1.41559914      13.00752046       0.58216332      -0.17251440      -0.12525463      -0.05884663      -0.08348274      -0.08109714
H       10.76248679       7.50220595      12.36695482       0.22161791       0.28549563      -0.40300898      -0.12418147      -0.12895140       0.08149119
H        4.46823472       8.87401551      14.24004985       0.55297210      -0.37056825       0.16620385      -0.03645674       0.02782758       0.08327406
C        4.10925450       8.28629571      18.83802910       0.13800693      -0.31347267       0.12679938      -0.54006248      -0.07019088       0.02211673
C        9.84778713       2.41182047      14.50399917       0.39679706      -1.14259214       0.09411793      -0.21321664      -1.02896451      -0.13553366
C       10.24315329       3.34248653      19.50824294       1.45033693      -0.70741272      -0.59087681       0.13145294       1.04531992       0.20750434
C        3.66508117       1.47909882      18.84419556       0.20511684      -0.93184329       2.03985332      -0.21605196       0.61588918      -0.66699794
Pb       6.89044737       5.33392028      16.23774194      -0.03911325       0.06863142       0.11650380       0.37258983       1.87820846      -1.41894541
Pb       6.92612753      11.59531724      16.54813456      -0.15839835      -0.16528481       0.02223823      -2.42279025      -3.90374414       1.69870045
Pb       0.57890039      11.57760233      22.56307533       0.00986014       0.27213696      -0.21370200      -0.57891149       1.24397339       2.06201373
Pb       0.45378268      11.50882171      16.31498997       0.14969196       0.07173840       0.26555261      -2.66867517       1.00567707       0.43377190
N        3.44816984       2.39777233      13.56616818      -0.97030940      -0.48353771      -1.98921423       0.02086366       0.22639321       0.20923749
N       10.28599558       8.17992834      19.07427529      -0.72063633      -0.16160177      -0.28424116       0.05373638       0.18711352      -0.13984445
N       10.02806390       7.76991586      13.04689647      -0.29861216      -0.91757083       1.16598345       0.35476707      -0.51635827       0.00285854
N        3.69794688       8.81914405      13.52594167      -1.42238472      -0.42580226       0.47040577      -0.20630749      -0.15845226      -0.01558672
I        7.29763955       6.19887923      19.41219122       0.02609798      -0.09329962       0.03681535       1.45851267       0.47039296       1.61856646
I        6.50882276       4.32091323      13.27834714      -0.02887235       0.00031611      -0.07123488      -0.58062101      -0.79684325       0.30456495
I        6.66533588       2.25129866      21.68910583      -0.05385519       0.14047264      -0.11845592       1.69466527       1.14425510      -0.42503118
I        6.93031354       8.09785635      11.17122907       0.22396578       0.14672287      -0.03604445      -1.01017995       0.40178254      -2.13934664
I        0.47622945       4.51054104      13.18536092       0.13779846      -0.16260802      -0.05852808       0.19090077      -0.08874799      -0.05697183
I       13.19386931       6.10736661      19.28412730       0.01229438       0.07571204       0.10399829       1.42614618      -0.76279073      -1.17662432
I       12.95170035       8.15976870      10.92126213      -0.05584589       0.10350905       0.07549752      -0.66113847       0.85738679       0.16632562
I        0.79880469       2.34005020      21.49131242      -0.02605176       0.06347064       0.12006856       0.84256965      -0.34889215      -2.56705736
I       10.06973867       6.20783069      16.11155555      -0.04018353      -0.21034107       0.04600610       1.05821210       2.27673901      -2.27813432
I        3.88322080      10.94592037      10.55098013      -0.26399490      -0.01323198       0.03176783       0.13515527      -2.23914455       0.67473516
I        3.68716968       5.76402687      22.13499220      -0.17949828      -0.11414870      -0.09578485      -0.47030417       0.64349889       1.03731305
I       10.04955402       4.67919778      10.70689268      -0.18081985       0.16800193      -0.05992697      -0.07189904      -0.76842390      -2.69550501
H        4.21416403       9.14305802      18.13426917       0.39031099      -0.32156179       0.32014800      -0.08810428      -0.03405901      -0.04503973
H       10.42531735       7.78351586      21.22201621       0.03509343       0.91610956      -0.95075848       0.06969573       0.21698668       0.26874354
H        9.40508707       3.50901136      20.17040755      -0.34854171       0.35366543       0.05612444      -0.01537026      -0.07801787      -0.10399580
H        4.49197296       7.43417735      11.97839119      -0.99721879       0.28839883       0.79801134       0.00685539       0.09723472      -0.10698677
H        3.25501124       2.98014126      11.48577701       0.03555272      -0.44679978       0.56242566      -0.10970198       0.00157262       0.06096018
H       10.87427453       9.54074646      20.61375060      -0.04866596      -0.00822374       0.11615715       0.03627120      -0.13974178       0.03930764
H        9.87042333       9.83197225      12.54179528       0.04536078       0.12687552      -0.46445923       0.17448586       0.01517265       0.03941385
H        3.66681417       6.61875381      13.45016901       0.01063576       0.42242815      -0.56471679      -0.11233665      -0.04878437      -0.10241229
H        3.24752326       7.67076897      18.44268316       0.39678854       0.00928831       0.19110668       0.09445493       0.06305317       0.18236987
H        9.06909345       8.94715851      20.59792127      -0.31210811       0.44092153       0.30013161       0.16512606       0.01909853       0.02774724
H       10.25520281       3.87356490      18.52226296      -0.42935525      -0.16333323       0.54920841      -0.10642539       0.07555196      -0.05989864
H        2.67004421       7.48792096      12.13269731       0.11497833       0.20944110       0.14696567       0.17713591       0.22867489      -0.01460253
H        3.54630392       7.99246961      20.92200706       0.12447826       0.22111617      -0.01973199      -0.03892607      -0.02017781      -0.01228427
H       10.23972148       2.82188491      12.36311573      -0.09973560      -1.08717444       0.97108770       0.07955973       0.15088730       0.06824762
H       10.42455455       1.28755731      20.12512277       0.04452581       0.21142755       0.13189235       0.14963419      -0.11824751      -0.17079103
H        4.50190965       2.74819721      20.42005285       0.02377875       0.06300217      -0.68415525       0.04056794      -0.03637283      -0.06467702
H        2.81998006       9.34730425      20.16708727      -0.90093328       0.48807584       0.36264450       0.11295312      -0.06495748      -0.00609276
H        9.34997659       1.38190516      12.78020835       0.25439767       0.18425315      -0.30165532      -0.13543548      -0.13782582       0.14153213
H       11.16619592       1.65094046      18.68917867       0.79806829      -0.00004545      -0.65719278      -0.21147380       0.18728944      -0.15122657
H        2.86256714       2.90727221      20.21937803      -0.46385412      -0.01735940      -0.16292992       0.13809108       0.13250522      -0.12763936
H        4.48990276       9.45529190      20.67617810      -0.83646686      -0.82448389      -0.39620684      -0.11251807      -0.08110368       0.10903947
H       11.17767680       7.67845236      18.85867309       0.14681963       0.23577325       0.10094986       0.24711603       0.12821184       0.22968057
H        9.50338972       1.45332287      18.72462170       0.38029807       0.41140029       0.05843096       0.04813758       0.06799231      -0.12726200
H        3.86099668       3.55403824      18.93995018      -0.02030956       0.30185041       0.56257209       0.00709806      -0.13693757       0.13520279
C        3.70559985       2.03466654      12.08870295      -0.49862351       0.97626077      -0.64181400       0.13195349       0.25657231      -0.25680517
C       10.16214870       8.64867072      20.48147482       0.11269581      -1.39871271       0.73244307       0.15572608      -0.16196163       0.32520880
C        9.99681722       9.20129000      13.42128427      -0.43971057       0.08060136       0.08546445      -0.02530817      -0.60074746      -0.30543511
C        3.61656786       7.50404998      12.71434061       1.03211532      -0.63361638       0.42172176       0.36650525      -0.27923769       0.30578196
Pb       6.91224134      11.60440943      22.73177719       0.21576966      -0.06450391      -0.07315641       0.05637055      -0.27439776      -0.55290058
Pb       6.60731964       5.46856101      22.49255892       0.47229505      -0.11787317       0.00783737       0.43876274      -2.96489356       1.63292976
Pb       0.55178362       5.35500419      16.16891022      -0.06351207       0.14873126       0.20635883      -0.32393602       1.24846952       0.72682150
Pb       0.31421580       5.56623375      22.49115283      -0.03139552      -0.39038300      -0.25098610       2.15245773      -0.47323851       0.59979563
N        3.71204168       8.79656081      20.25785935       1.24067256       0.01652383      -0.46407246       0.58802397      -0.03401349       0.18222492
N       10.15862330       1.99142017      13.06384855      -0.96669138       0.81355468      -0.51904329       0.26533773      -0.10916504      -0.05486131