768
Lattice="38.36233378009021 -0.17091669423460434 -0.23415642229604455 0.13860846621712591 21.550492846406996 -0.023849043928523623 -0.012701609790407587 0.03213069133637567 18.81004073834508" Properties=species:S:1:pos:R:3:forces:R:3:momenta:R:3 energy=-3331.336346897596 stress="0.0 0.0 0.0 0.0 0.0 0.0 0.0 0.0 0.0" pbc="T T T"
I       18.13797988       5.15248769       3.54014770      -0.21470149       0.31731656       0.04964108       0.11461431       0.64070428      -0.93306239
I       18.34672079       8.76194640       1.06320608      -0.24790822      -0.16825367      -0.03148353      -2.36165991      -0.06162359       1.45341793
I        8.27243738      10.28353179       3.48121601       0.16635586       0.01111861       0.10019160      -1.43891767      -3.00395462      -0.80310836
I        8.65606040       3.07493143       0.94212862       0.34168037       0.19083473      -0.07135913       1.18756356       1.46711606      -0.53526608
I       16.09320888       1.90284665       0.97153159       0.22938032      -0.10539753       0.08093960      -0.95377006      -0.06239660      -0.48349091
I        0.95527839      11.73323829       3.75340071       0.22403876       0.20596737      -0.26958106      -0.91971077      -0.21789400       0.64467880
I       10.51256885       7.20925235       1.10308617       0.01753249       0.03813669      -0.04028563       0.33103594      -0.01343382       0.49004055
I        6.68495720       6.14053920       3.18555206      -0.31134210      -0.02534583       0.08304873      -0.32841617      -0.91970989      -3.69967727
I        3.20169607       4.30572411       1.21162439      -0.07513954       0.19373349       0.14736413      -0.23708136      -0.67263492      -0.30638025
I       14.39149977       9.09239811       3.26336592      -0.04445181      -0.09534853       0.06107755       4.16274874       1.58234234      -1.16605853
I        4.51272873       9.83718549       1.11242518      -0.07405352      -0.20221039       0.00976702      -0.95541463      -0.26212591      -0.30994945
I       12.74619470       3.62514623       3.38764573      -0.17581959       0.14263482       0.01633106       0.31639344      -0.51347189      -2.70263092
H        5.91447458       3.20197827       2.43006456      -0.23261793       0.84084151       0.06681754       0.08963138      -0.19583739       0.11826066
H       11.73229109      10.07653303       1.79682122      -0.04333609       0.27923245      -0.29042534      -0.10518967       0.24939903      -0.05967361
H        1.94602650       8.58252414       4.48759790       0.02180564       1.38722165       0.79154728      -0.14205364      -0.00539985       0.03158019
H       15.01414756       4.86349190       0.01268450       0.50488388      -0.26379439      -0.16957087       0.03027817      -0.00112643       0.04987513
H        6.60336183       2.33797728       3.85919053       0.74363491       0.39854038       0.49997356      -0.13056319      -0.27520221       0.08513136
H       11.41242302      11.84034675       2.09666240       0.27292080       0.19494416       0.00522407       0.01380430       0.05491912       0.08635684
H        1.15673117       8.05253225       2.98236162       0.30654942      -0.12742514       0.17458087      -0.31203607      -0.15131409       0.07261347
H       15.32547341       6.70541239      -0.35114647       0.42072339      -0.74565974       0.50414633      -0.19467010       0.41839481      -0.12438624
H        6.10092590       1.46177929       2.38857403      -0.04692338      -0.52841562       0.11344766       0.09480614       0.16500256      -0.31884059
H       10.73364878      11.07304479       0.57617655       1.32924855       0.24723316       0.38916918       0.05719171       0.00358901      -0.02969308
H        1.26422670       6.94149649       4.41220466       0.40035914       0.31324236      -0.38257171       0.10280393      -0.00313839       0.11505755
H       16.01178036       5.86056722       1.28644260      -0.04575328       0.01675483      -1.08029367       0.03583426       0.26312097      -0.18270092
H        4.55307152       1.26398535       4.21326662      -0.22292720      -0.45649313       0.31721121      -0.05642214      -0.06575941       0.04298391
H       13.08453490      12.28961759       0.17802831      -0.30282536      -0.10362591       0.64462282      -0.14604453       0.05844041      -0.00869337
H        3.51232789       7.90812479       2.62020092       0.12658884       1.01231000      -0.55585965      -0.03530849      -0.03309850      -0.15635506
H       13.38072420       6.68845755       0.33328326      -0.80630599      -0.48336029       0.01026431      -0.29380108       0.21092636       0.06689114
H        3.68449284       2.07681675       3.02815323       0.26143803       0.12362562       0.20867889      -0.03779489      -0.32197035       0.18694253
H       13.39497179      10.63160673       0.01330839      -1.06277768       0.58818936       0.95434918       0.03384652       0.03314151      -0.06912834
H        3.05278703       6.32775769       2.94807745       0.19798822       0.38914283       0.27064788      -0.13410564       0.17411863       0.26066808
H       13.92416458       6.95082704       1.83962291       0.71147635       0.24241199       0.38562562       0.14618560       0.13228030       0.02114226
H        4.28047994       2.96386438       4.39885871       0.25358208      -0.56561355      -0.51497316       0.06176626       0.02415056      -0.08834408
H       13.76319073      11.35960822       1.45579711       0.19975189       0.39013787       0.46094484       0.16361114       0.20728725      -0.18995325
H        3.94542697       7.28509189       4.08130290      -0.91156429       0.01409462      -0.01705303       0.05462376      -0.05821583       0.22301665
H       13.39127517       5.38027609       1.53648753      -0.21238605      -0.67185577       0.21017227      -0.09842127       0.11619217      -0.09169628
C        5.88019760       2.31197329       3.05726994      -0.69075564      -0.34468384      -0.52080601       0.17711557      -0.61627012      -0.42950679
C       11.65379401      11.07939529       1.30852666      -0.69723115      -0.62877993      -0.05063192       0.29182519       0.38649708       0.31818305
C        1.77386002       7.76247395       3.85708003       0.29804334      -1.41834745      -0.43668788       0.22853158      -0.04798415      -0.30015383
C       15.22444774       5.84779503       0.45214985      -0.23261091       0.93113718       1.27236013      -0.09902735      -0.48101869      -0.30433754
Pb      38.54403359       3.05327740       1.09039692      -0.08414064      -0.28722235      -0.15129200      -2.37066374      -1.42997072      -1.90330377
Pb      17.33960482      10.50145065       3.45898603      -0.28235561      -0.20469186       0.01802678      -0.67085326      -0.52193695      -0.75596399
Pb       7.40269373       8.41711332       1.05705686       0.14403511       0.44738561      -0.04569863      -2.67398090       1.27048291       0.72206476
Pb       9.72278033       4.97978617       3.20701056       0.19692516      -0.28344667       0.40647287       0.60163995      -0.88991172      -0.09423774
N        4.50546938       2.14734609       3.69780753      -0.11653553       0.52182218      -0.05527916      -0.53003737      -0.53390596       0.64293232
N       13.01270239      11.37810535       0.72808973       0.03609530      -0.84588653      -1.83352887      -0.59491834      -0.14742782      -0.44394714
N        3.13540106       7.30757282       3.37477914      -0.27729930      -1.53376232       0.07924201       0.08584263      -0.44580792       0.06877820
N       13.90723759       6.18235138       1.11845412      -0.08218449       1.09613826      -0.95004622       0.48012088       0.06443799      -0.12542883
I       18.13556839       4.96258740       8.29650530      -0.00628381       0.31633838       0.16167866      -1.81689029      -1.24496455       0.11786713
I       18.18150180       8.58141113       5.90138700      -0.05348700       0.13481717      -0.06306452      -3.97965245      -0.61884120       0.94837745
I        8.42462190      10.04304953       8.02590742       0.02548007      -0.08250301       0.28000698      -0.55541792      -0.62090834       1.51039581
I        8.58886412       2.99943786       5.70198878       0.25396245       0.21132423      -0.09052668       0.15121612       0.88945623      -3.44184298
I       16.03866047       1.78947400       6.01957589       0.14569123       0.11691239      -0.24845186      -0.42093933      -0.21361352       0.86804694
I        1.10360064      11.87540252       8.29718728       0.11495676      -0.30269602       0.05129331      -1.97335794       2.55851856       3.52286915
I       10.50866437       7.23369612       5.70465670      -0.35447289      -0.26729429      -0.05408742       0.32102817       0.63820142      -1.61625436
I        6.59521231       5.86037904       7.90477839      -0.15756791       0.50143497       0.43619979      -2.50836887       2.05291441       1.61434116
I        3.28245517       4.51410761       6.01816282       0.11128781       0.10816917      -0.15116049       0.41508003      -0.27245035      -0.92956398
I       13.87032858       9.10316013       7.98989776       0.20387064      -0.08227537       0.22888806       0.22641216      -0.10828098      -1.94096187
I        4.44079523       9.75814589       6.00846037      -0.01462610      -0.07446168      -0.40968821      -0.32313527       0.74987269       0.37150002
I       12.56730508       3.50876806       8.05864126       0.13238459       0.11975589      -0.09961516       1.93447814      -2.13977761       1.03313961
H        6.20705830       1.27906692       9.09876830       0.70121191      -0.75777995       0.47855216       0.03232051      -0.01247499      -0.15313161
H       11.31899576      10.36376600       6.63676835      -0.83873501      -0.35035547       0.77059542       0.03796625       0.12353960       0.11732211
H        2.05751466       8.66734917       7.12244680       0.00365431      -0.09763206      -0.60694948       0.04279152      -0.13039097      -0.20435040
H       15.14998610       5.50337902       7.30857932      -0.01548239       0.33391566      -0.43736613      -0.12401319       0.01630551      -0.08216619
H        6.48903850       2.32459238       7.66722305       1.07544683       0.08568919      -0.37832128      -0.10078953      -0.08535845      -0.04980135
H       10.84592063      11.64779664       5.28783836       0.26183448      -0.56192100       0.05607587      -0.01336487      -0.09417444       0.33220535
H        1.60066859       6.83993048       6.99960516      -0.10522303       0.60215274       0.04859453      -0.09399531       0.02610108       0.00824956
H       15.90170267       5.41998578       5.41570536      -0.62666953       0.29155344       0.64023450       0.04034008       0.32475058      -0.13258077
H        5.85094778       3.04768743       9.15324732       0.05087878      -0.29414089      -0.07362671       0.19959243      -0.18374544       0.02087067
H       11.94342404      10.05184691       4.94254013      -0.07505364      -0.37089343      -0.52782667       0.05051468      -0.28404169       0.02854695
H        1.13575159       7.93490545       8.37572041      -0.98737828      -0.03209312       0.64069949      -0.01109334       0.05726312       0.09471429
H       15.74168667       7.20794451       6.36758392       0.39753513       0.60480973       0.44751411       0.14570739      -0.18134746       0.06891997
H        4.16057890       2.65062815       7.41751391       0.03475609      -0.15809256      -0.00488348      -0.02997891      -0.28426525       0.24456774
H       12.67771343      12.37865861       6.64701803       0.39448840      -0.03478946       0.52893653      -0.09257239       0.01068510       0.09589649
H        3.42527951       8.23252617       8.89824919       0.59623822       0.17634993       0.42461669       0.21258309       0.05366772       0.18330247
H       14.04478496       7.08921447       4.74949101      -0.64409273      -0.80801322       0.54888691       0.20885500      -0.03457444      -0.10915493
H        3.86190972       1.53090479       8.66479186      -0.05402688       0.28046859       0.07381847       0.13877990       0.04081403      -0.02272691
H       13.43578434      12.25915649       5.09092181      -0.43770740      -0.81673340       0.81092589      -0.03936987      -0.17060443       0.00642075
H        3.88494833       6.92975444       7.79011704      -0.45783259       0.34409403       0.49641178       0.02504107      -0.00596646      -0.03567015
H       13.30750624       6.68373668       6.29507398      -0.42210780       0.52034534      -0.13975088      -0.26182713      -0.21963815      -0.00705073
H        4.69556561       0.98447971       7.35373229      -0.40289911       0.66378873      -0.05413678       0.04105170       0.17338970       0.28361372
H       13.67689316      10.83764477       6.40769171       0.14109208       1.11090101      -0.65734711      -0.02521595      -0.10793763       0.09526583
H        2.87191371       6.62925105       9.12486654       0.24293805      -0.13675129       0.10480149      -0.10418370       0.09394598       0.14761081
H       13.47498045       5.45082379       5.17038264      -0.22398556      -0.69205653      -0.80086218      -0.14301734      -0.08306627       0.00678668
C        5.90002900       2.12941253       8.53497709      -1.17833076       1.57604326       0.14022292      -0.11651230       0.26053096      -0.06376170
C       11.65309759      10.83978010       5.64732630       1.81473166       1.68759627      -0.11981557       0.58202292      -0.27910209      -0.16137111
C        1.86992303       7.72254167       7.62943296       0.16892387      -0.20798979      -0.39646049      -0.24155361       0.05239778       0.86697933
C       15.27920536       6.10841571       6.20794866      -0.19005679      -1.51156773      -0.89607972       0.31613241       0.44701481      -0.07100583
Pb       0.38152270       3.17800369       5.96282029      -0.24777051       0.14170036       0.42734763      -2.43317834       2.53033688      -3.23045677
Pb      16.94502044      10.46087632       8.11804410      -0.04766254       0.16715303       0.07753685      -1.97597592       0.89152667       0.80013299
Pb       7.15698474       8.27178252       5.66275474       0.58355066       0.00635040       0.06647589       1.25842000      -1.33990326       0.66306541
Pb       9.63184116       4.88910636       7.99360182       0.12315479      -0.11608426       0.11748017      -1.44556372      -2.60501021       2.33138769
N        4.56195023       1.84742901       7.96348800      -0.30959129      -1.36294388      -0.05673940      -0.14997998       0.30678551      -0.36584817
N       13.01438440      11.61014131       5.97070806      -1.48833482      -0.47788996      -1.25395584       0.22038622      -1.29099703       0.70020711
N        3.09718090       7.37093013       8.39800308       0.46953611      -0.89172435      -0.68306547       0.78285864       0.05071645       0.83322051
N       13.91282337       6.32832435       5.53674688       1.62576300       1.07703824       0.57655472       0.00245231       0.11201315       0.07960143
I       18.23996634       5.05475775      13.15126774       0.05699108      -0.23672525      -0.50880469      -0.77597688      -2.18841116       1.76652657
I       18.10446973       8.62939232      10.38945441      -0.01662786      -0.28770495       0.00090548      -3.13752924       1.08146470      -0.00315974
I        8.55173786      10.14429484      12.88503167      -0.24883272      -0.01642785      -0.46358177      -0.87031641      -2.49199969       1.13117389
I        8.87985369       3.11437057      10.63483216       0.14711512       0.26541215       0.04838727       0.85664379       2.54291716      -0.83472522
I       16.22993487       1.80574899      10.38263028      -0.05637837      -0.16988513       0.12565703       0.10136427       3.18797960       3.48001505
I        1.21883253      11.88061012      13.03403574      -0.01292366      -0.06545753      -0.02435602       1.29580650       3.63218340       0.28370887
I       10.52514142       7.18663143      10.53753864      -0.13286230       0.13242281      -0.31069669      -3.32452935      -0.03783060       1.07671018
I        6.85802681       6.29721130      13.34522406      -0.37252340      -0.07803244      -0.45195778      -0.75096243       1.57167236      -1.60301129
I        3.14742158       4.34852070      10.49898009       0.11100811       0.09131936       0.17517165       0.73500027       1.93894567      -0.66909242
I       14.26475463       9.19403619      12.72202703      -0.24733286      -0.37120196      -0.07159689       2.32345173      -2.60337607       2.98396285
I        4.39158873       9.75896423      10.41357024       0.14950209      -0.08424835       0.32652347      -0.00046026      -0.41461346      -0.17866286
I       12.54852286       3.61500431      12.80994865       0.42541786       0.23941757      -0.21345820       2.04593568      -0.65806651      -1.26227045
H        6.12945505       3.23533138      12.19335020       0.04293873      -1.24661666       0.07787379      -0.08105616       0.17464664      -0.38504404
H       11.60654972      10.02206491      11.27164234      -0.35132019       0.58164906      -0.41248440       0.10026192       0.08879148       0.31036961
H        2.22901555       8.47764871      14.06841291       0.09251747       0.03161214      -0.05199846       0.14524246       0.03050922      -0.07615186
H       15.56808926       4.70856995       9.91893576      -0.57407030      -1.08732152      -0.87849983       0.06044428      -0.04789637       0.08489024
H        6.73321107       1.39941695      13.14076500       0.32613224      -0.05966646       0.11576575      -0.31133528       0.05066285       0.10587061
H       11.42412362      11.84941329      12.24220173       0.07240109       0.19093747      -0.31299620       0.11108204       0.00391376       0.07107845
H        1.41710937       7.63636215      12.68280433      -0.07121526       0.18752629      -0.07175540       0.04573847      -0.01050971      -0.04432028
H       15.81985558       6.51347768       9.52304426      -0.18634699      -0.40040784      -0.06080215      -0.09120694       0.06594173       0.06545869
H        5.79322941       1.14912064      11.33460664       0.39490672      -0.30587445      -0.79667281      -0.04177649      -0.03169192       0.09989880
H       10.60355518      11.57465400      10.34691352      -0.66420401      -0.08756401      -0.14104140      -0.01859571      -0.02321725       0.02851224
H        1.72550407       6.73801956      14.17627624       0.28293688      -0.00681526       0.00469577      -0.02038495       0.07508120      -0.05089403
H       15.94442434       5.96236236      11.27979859      -0.98041230       0.20370809      -0.47192575      -0.20421874       0.00572578       0.02921866
H        4.28345002       0.77003238      13.05440291      -0.08996780      -0.27345133       0.79560726      -0.10996501       0.32809903      -0.13175331
H       12.88948380      12.63227972      10.24396302      -0.31933782       1.11164838      -1.27753882      -0.07126434       0.10812966       0.17771021
H        3.77921816       7.88725922      12.22887223      -0.06556634      -0.60187222       0.56426187      -0.05329753      -0.02556489      -0.01666755
H       13.36698767       6.21246553       9.37931890      -0.60906814      -0.03516511      -0.49501811       0.17345471       0.12693852       0.34398012
H        3.50678757       2.21806126      12.16498191       0.05308447       0.28244830      -0.19109304      -0.05211904      -0.04486447      -0.01506099
H       13.02422498      10.87045455       9.62296878      -0.32196243       0.60190170       0.09397255      -0.01459059      -0.11533039      -0.03758359
H        3.28777198       6.25017305      12.35972464       0.29009617       0.06859793      -0.07840748      -0.20388895       0.10436186       0.06627234
H       13.84757554       7.18090898      10.66697515      -0.37651818       1.47786612       1.32209052      -0.05759608       0.08194235      -0.29345124
H        4.40687882       2.59833060      13.77768976       0.00646077      -0.49755116      -0.30839415      -0.05635990       0.09610207       0.15463872
H       13.53296253      11.30772950      11.22983574       1.97967441       0.61166778       1.22943114       0.00957009       0.00491046      -0.02485130
H        4.24027730       6.89043976      13.59370422      -0.30850426       0.33888014      -0.18119082      -0.18821411      -0.18882351      -0.04981916
H       13.42996839       5.54547555      10.99488660      -0.48748288       0.38888277       0.00580349       0.02969327       0.15785798       0.15619748
C        5.86708748       1.90007435      12.29277339      -0.09522078       2.03594673       0.34525087      -1.21824088      -0.19214958       0.50678072
C       11.47304562      11.24903772      11.13026554       1.39571933      -0.92462670      -0.32169713       1.06544272      -0.10622825      -0.25043706
C        2.10952223       7.53636786      13.52796379       0.86966809      -0.51662261      -0.35863253      -0.10786998       0.60470050      -0.10351621
C       15.36446038       5.79254985      10.23646508       1.26354846       1.67666134       0.93330248       0.79676486      -0.21294514      -0.20233085
Pb      38.56708777       2.98234756      10.53773625      -0.19107524       0.02891769      -0.22652017       0.09003976       2.02910564      -1.18882577
Pb      17.09835555      10.27784627      12.81327147       0.08808447       0.34902645      -0.10310365       3.96334017      -2.99801393      -1.19101143
Pb       7.38769325       8.33250969      10.47199827       0.05078821      -0.10733749      -0.11883166      -1.86232234       1.99710294       3.51795210
Pb       9.84260203       5.27018101      12.90626734      -0.00388251      -0.53343891      -0.11135980       0.16125961      -0.27483633       1.00306831
N        4.43371644       1.87706349      12.84324279      -0.73955188       0.43894843       0.20687477       1.28346195      -0.73669376       0.92008196
N       12.82417420      11.57749682      10.45626462      -1.83150333      -2.32675502       0.88176656      -0.08166746       0.44315407      -0.68554581
N        3.47146595       7.11823672      12.91798898      -1.30218799       0.63091519      -0.13832249       0.80892348      -0.38231400       0.55285487
N       13.85125117       6.23162905      10.32500446       1.70774659      -2.35896327      -0.04913509      -0.39091956       0.33117964       0.55134997
I       18.53187248       5.23874491      17.62103419      -0.13351700      -0.03321334      -0.11464145      -1.86879519       1.22278091      -0.23175680
I       17.90120363       8.36450408      15.10025980       0.15867700      -0.17609858       0.25665451      -0.11797206       1.39292506      -1.09759641
I        8.57973518      10.54557361      17.62858834      -0.10213738      -0.21661201       0.04157869       1.84490174       1.94817592      -2.99723106
I        8.88164690       3.12312666      15.11137952      -0.04697417       0.00803290       0.19413368      -0.51009093      -1.42362362       3.46493178
I       16.44652198       1.79344218      15.30300274      -0.18473574       0.07391930      -0.34813852       0.17711124       3.06073623      -0.68206253
I        0.69521674      11.91423221      17.81604445       0.66360325      -0.10740907      -0.50513511      -1.92350960      -0.27685720       2.71286316
I       10.78075365       7.45790300      15.31821781      -0.29230544      -0.10009115      -0.01613613      -0.64940787       2.57474029      -2.44888634
I        6.59507414       6.42392426      17.66763685       0.01808653      -0.28611091      -0.21056107       1.61752288       0.07021256       0.26469097
I        2.93454184       4.41946478      15.24299386       0.50213896      -0.09928871       0.07771630       1.50517845       0.55265688      -1.02655229
I       14.04624115       8.91157728      17.37440848      -0.01034429       0.05138845      -0.11516751      -3.04451777      -0.37769727      -0.08120807
I        4.45888900       9.90923282      15.38152291       0.40116527      -0.16180177      -0.12536396      -0.73632345       3.05560333       1.97619241
I       12.39878293       3.42332625      17.62917587       0.21990873       0.19567077      -0.23860252       0.50708402      -1.43963482      -1.84372435
H        6.64451022       1.94311748      18.30799017      -0.48937779      -0.73331605      -0.23251354       0.33315932       0.06308198       0.02231589
H       10.53508298      10.76570829      15.46789782       0.61271073      -0.19792863      -0.77141347      -0.07350857       0.15905542      -0.30653332
H        2.09615943       8.46625659      16.51487261       0.00434563      -0.19227270       0.76393886      -0.20277555       0.01981352      -0.07271803
H       14.65127804       4.68684891      16.48848900      -0.24616598      -0.93317818       0.25059202       0.14817859       0.20135028      -0.15345684
H        6.18560008       3.21692034      16.93388191      -0.38315398       0.19348584       0.81155183       0.15257897       0.03701396       0.09030070
H       10.83084731      11.93984407      14.17360712      -0.25019233       0.36274933      -0.57483141      -0.22498721       0.11997755      -0.18010547
H        0.99275896       6.96063496      17.26385553       0.60252818      -0.06910926       0.19261577       0.20018806      -0.17419768       0.31507891
H       15.89926814       4.84853368      15.04524367       0.47395435      -0.50997552      -0.40182904       0.01117865       0.01938031      -0.02012055
H        5.62564313       3.42300985      18.85039797       0.06241196       0.20328079      -0.58218406       0.28720266      -0.12198538      -0.20019335
H       11.48720704      10.22117280      13.92103834      -0.12509654       0.57051290       0.50041346       0.17434175      -0.04600618      -0.00488203
H        1.42280176       8.42392531      18.41558654      -0.74927221       0.72521885       0.91137101      -0.17373388      -0.22668033       0.09350002
H       15.78322650       6.15511277      16.23250139      -0.44282161       0.32732155      -0.03924600       0.11897102      -0.05184254      -0.04122928
H        3.76102467       2.76996194      17.13455375       0.14141374       0.19429720       0.48886492       0.05428187      -0.04665081       0.21879817
H       12.35733562      12.36335999      16.00503119       0.06709629      -0.88027764      -0.38102155      -0.12228143      -0.04908648      -0.07404690
H        3.80348921       7.98462000      18.30636171       0.25662802       0.56338210       0.64915663       0.14433751      -0.16331784       0.06981459
H       14.48095051       6.82606408      14.10129505       0.11245990       0.15210029       0.30270973       0.00935775      -0.01213909      -0.10186551
H        3.93430951       1.58645088      18.49144066       0.47561962       0.42903573      -0.53865199       0.06468455      -0.02988802      -0.06104369
H       13.23503069      11.94753158      14.64566075       0.18794805      -0.13603479      -0.31526291       0.13272724      -0.07615097       0.05796080
H        3.67054075       6.76109196      17.09572252      -0.46063898       0.59977313       0.31673008       0.11131196      -0.23010491       0.21186940
H       13.38973445       6.66286157      15.46886837      -0.36671109      -0.09540587      -0.63644508      -0.10613974      -0.03551964      -0.00004027
H        4.71733722       1.35906091      16.97783763      -0.53004360      -0.64309842      -0.30130528       0.05211558      -0.07556988      -0.02610464
H       13.01064301      10.71432538      15.86313857      -0.53737704       1.18000395      -0.82370352      -0.01834879       0.05719049       0.10195746
H        3.18146536       6.41344989      18.60200742      -1.04154401       0.11785079       0.48295832       0.11355486      -0.12363152       0.04367292
H       13.56973071       5.36103178      14.22954956       0.04051208       0.36332512       0.79421284       0.01860793       0.12841906      -0.21431563
C        5.80084111       2.70859716      17.95681106       0.37083241       0.96780604      -0.31987077       0.25451835       0.39709483       0.30569652
C       11.24812896      11.05458652      14.64222202       0.81593713      -0.17178625       1.22340153      -0.17800846      -0.06325859       0.14939126
C        1.83999684       7.82752441      17.52276701       0.08521309      -0.79470131      -1.31148169       0.33386723       0.09327795       0.42745985
C       15.16847974       5.37562999      15.72605712      -0.14193577       1.35647862      -0.87173694      -0.99296176       0.16647790      -0.20091661
Pb       0.17170063       3.11832670      15.35122069      -0.37013572      -0.14511089      -0.08955517       1.85916331       2.03740590       0.61385903
Pb      17.03992985      10.39986385      17.28446413      -0.05134476      -0.14368503       0.32048463      -0.55735491      -1.90549062      -2.19986455
Pb       7.53956278       8.55434730      15.35353017      -0.07066604       0.24533984       0.28259650       1.17901094      -3.75817918       0.61449339
Pb       9.78455065       5.12487751      17.40900560      -0.35110276      -0.33106795       0.12498764      -0.66454578      -3.46184909      -1.05212351
N        4.44081406       2.11446635      17.65525785       0.32984453      -0.97433204       0.29626864      -0.29686304      -0.17006696       0.36743364
N       12.54644005      11.54361514      15.32135787      -0.49559806      -0.70928784       1.21402139      -0.25581441      -0.02731955      -0.63499025