768
Lattice="31.343885341238796 -0.47746557187201905 -1.6062135899949226 -0.40744855527168355 29.62807268781774 -0.02279442302894619 -1.4504438450383712 0.04122985736401602 17.113936445534993" Properties=species:S:1:pos:R:3:forces:R:3:momenta:R:3 energy=-3328.471259279015 stress="0.0 0.0 0.0 0.0 0.0 0.0 0.0 0.0 0.0" pbc="T T T"
I        6.46695350       0.58796537       2.34213287      -0.26831018       0.01922067       0.19262554      -0.08371153      -1.60012850      -0.51818429
I        1.34475211       6.48500901       1.89997838      -0.26617666      -0.16491473      -0.10495049      -2.04159076      -1.30830410       1.92906728
I        5.44544918       1.32276609       6.32540596       0.18488036       0.19658230      -0.15101583      -0.41054354      -0.72620748      -1.38790267
I        1.23920037       5.82656349       6.31410789       0.27987105       0.30513679       0.03635156       2.06523781       1.25486293       1.33245251
I        5.11341860       4.93793538       3.67628196      -0.07803981       0.04668852      -0.04094361      -1.40016698       1.19779872      -0.68806668
I        1.72464469       2.69377272       9.22617126       0.12762706      -0.19539075      -0.11279427      -0.59837892      -0.00831442       0.75537940
H        1.96406454       3.91369499       3.85926524       0.34444199      -0.03464077       0.09348564       0.23150019      -0.11955590       0.10084839
H        4.36742444       5.17463186      15.17739400       0.18556172       0.35609787      -0.36034641       0.02536130      -0.18499074      -0.06316226
H        0.65892894       2.66826499       3.84008604       1.25613266       0.02133414       0.34576144       0.09220044      -0.00481030      -0.00297053
H        5.78773625       5.25565854      16.37496045       0.08305023       0.02213288       0.35067907       0.15196637      -0.02870873      -0.18927218
H        1.62052089       2.90268885       5.36216920       0.14906535       0.32366700       0.27341923      -0.00849628      -0.19211759       0.18852605
H        4.44870986       3.99887146      16.47311695      -0.25273409      -1.73760360       0.56056355       0.10463388      -0.01529565      -0.19339616
H        2.62349857       1.60406252       2.80931127       0.28308053       0.51010438      -0.84244016      -0.04063852       0.11324280      -0.08360673
H        3.96941616       6.90068638      17.14782950      -0.30666413      -0.79084816       0.10475860      -0.08502297       0.07323104      -0.20648586
H        2.42117600       0.91255525       4.40687770      -0.29575122      -0.30675174      -0.02657666       0.03644797       0.14572511      -0.20736973
H        3.68233637       5.42582022      18.13447062       0.03870627       0.51647187      -0.77855651      -0.09488587       0.22241158       0.05561346
H        3.65301091       2.01311802       4.21914655      -0.80843193       0.33087565      -0.53204060       0.07617021       0.10538162      -0.10127653
H        2.74254861       5.72097846      16.71107391       0.66783507       0.30952831       0.29791576      -0.12759584      -0.07389917      -0.02157838
C        1.68877656       2.92930517       4.26725171      -1.37931505      -0.59535128      -0.69345949      -0.65154496       0.33365547      -0.30836906
C        4.69465206       4.99704790      16.24294578      -0.98275119       1.92028472      -0.06486874      -0.75728918       0.60423805      -0.04211504
Pb       3.97783356      14.62043197       8.42440008       0.05900055       0.10718072      -0.06485694       1.05414924       1.54937337       3.50159404
Pb      -0.08191270      14.98234381       9.01720392       0.04096439      -0.24284414      -0.06202944      -1.53515828      -0.45299711      -1.03163038
N        2.66307217       1.82509547       3.86533069       0.56163009      -0.41714808       1.66015899       0.75202875       0.54975444      -0.29244899
N        3.71794053       5.84744238      17.12484420       0.33215393      -0.87805807       0.18774073       0.99335049       0.71418939       1.00022540
I        5.14353349       8.59287939       6.49878203       0.08550629      -0.08083850      -0.20530714       0.65835390      -0.42788886      -1.29602866
I        1.69094691      14.09397083       6.24201263      -0.24107660      -0.03638527       0.14392272       1.22587114      -0.36646030       0.18836973
I        5.43830008       8.93428964       1.93517642      -0.27977232      -0.11720128       0.28736053      -0.98044413       0.58422535      -2.08196003
I        2.72630944      13.31725760       1.84378471      -0.15489310      -0.07629594       0.34030427      -0.70272923       0.79189659       0.37222911
I        5.10789631      12.16999379      16.98695104      -0.04736840       0.21843399      -0.42229134       0.13502824       0.16296135       3.32150613
I        1.59897049      10.41017830       4.67350487      -0.24109985      -0.38240684      -0.20730985       1.44908387       1.67769000      -0.14369816
H        0.40476672       8.96569588       7.94348074       0.33006485       0.33767490      -0.32597588      -0.20044694       0.02819584       0.01276980
H        5.70034527      11.31329767       4.69955539      -0.29215329       1.06352510      -0.57499592      -0.06921906       0.09360301      -0.08958074
H        1.29268914       9.35260589       9.73254582       0.13771412       0.11827944      -0.90708793      -0.13675738       0.26435968       0.18311353
H        5.77447763      13.12321574       4.90355666       0.55151708       0.30663863       0.26102388       0.05615648       0.11034557      -0.10963943
H        0.10092139      10.77426364       8.93971149      -1.01800164       0.48766291      -0.57296682      -0.04387833       0.13758261       0.22255043
H        4.62720921      12.52844082       3.73165709      -0.04599340      -0.37780544      -0.61172751      -0.07843597      -0.16223708       0.14100279
H        2.31033164      11.31078229       8.77108165       0.68360258       0.48464533       0.62914478       0.06573492      -0.23735632      -0.14024403
H        7.64267569      11.89456574       3.42964999       0.16560023      -0.24416323       0.40675375      -0.19561696       0.12222756       0.15947935
H        1.72624262      10.99820007       7.09744507      -0.05514313      -0.35046205      -0.52283833       0.04400146      -0.19508511      -0.20641627
H        6.94314885      13.20211462       2.59023131      -0.40657308      -0.18743346       0.50364395       0.04340121      -0.04803883       0.24603537
H        3.03080300       9.79826495       7.77664694      -0.99436093       0.40752781       0.41397467      -0.26463689       0.00184499       0.22070050
H        6.39133932      11.62663666       2.39099670       0.17488426      -0.27244831      -0.84744889       0.09487971       0.17383145       0.01649063
C        0.91338059       9.85562861       8.66093699       0.31346006      -1.59602287       2.24399347      -0.49609976      -0.58976215      -0.65322872
C        5.61761977      12.31510024       4.15837285       1.20575290      -0.75357091       0.45613368       0.12778180      -0.15085526      -0.01710210
Pb       3.14091117       7.54619499       4.19856524       0.71213955       0.00026174       0.06519041      -0.52585900       1.47571632      -0.68295829
Pb       7.25767669       7.32876836       4.13953976      -0.51589729       0.04844630       0.21182165       2.95600315      -3.05299762      -2.12616914
N        2.08645102      10.49224890       8.08069121       0.81128394      -0.03325357      -0.93959712      -0.35588923      -0.77272746       0.36743890
N        6.74475571      12.28291119       3.08930450      -1.35799308       0.46975634       0.77067689       0.52361566       0.07535337      -0.28119103
I       14.19144758       0.83353054       1.75975140       0.21026608       0.35816662       0.50960076      -0.41553499      -3.24072374       1.55540758
I        8.94455941       6.14903903       1.79777383      -0.06174713      -0.12867024      -0.26437170      -3.99933345      -2.69643482      -1.42929032
I       13.26719034       1.26654111       5.69637538       0.24662033       0.04558187       0.10617712       0.13736424       0.18680007       0.23723301
I        8.99656485       5.76799529       6.28231734       0.32727884       0.17887167      -0.06558211      -0.56630363       0.37768908      -3.12075540
I       12.86565033       4.80545321       3.60366584       0.24801277       0.03099359      -0.21891850       0.26660299      -0.73210335       0.91782726
I        9.92580206       2.51410207       8.58263666       0.05258490      -0.15756787       0.10346647      -2.63063329       1.48391942       3.36604202
H        8.70586118       3.00732253       3.44931130       0.98172721       0.18408279       0.63421958      -0.29400977       0.02966201       0.08494417
H       12.01686650       4.55428236      15.36488828      -0.03250080       0.58349438      -1.09258409       0.10318056       0.06163359       0.12208888
H        9.15132533       2.36149048       5.34921522       0.48180645       0.08996487       0.92173494      -0.03056182      -0.05999779       0.18674694
H       12.90790519       4.55630870      16.87116754       1.82006085       0.21016473       0.53445411      -0.02048748       0.07006539       0.10134954
H       10.37966301       3.69927974       4.28934888       0.02020968       0.02528437       0.67080580       0.16484962       0.10147204      -0.07963302
H       11.58167805       3.50097929      16.64434606      -0.48416071      -0.84470722       0.28951484       0.03157254      -0.17919800       0.12037781
H       10.53042022       1.92397273       2.65412585       0.31158600      -0.41854933       0.90831175      -0.26226914      -0.00207302      -0.14910573
H       10.11390115       5.58293916      16.69125211       0.06643723      -0.40483327      -0.75182114       0.00602135       0.12578784       0.03605486
H        9.90566759       0.71748495       3.81628305       0.85568258       1.28519057      -0.40498140      -0.17141147      -0.06408530       0.18695542
H       11.49531274       6.46509642      16.85722532      -0.08650165      -0.46073271       0.03435013       0.20833889      -0.10500353       0.04440634
H       11.37600460       1.62193520       4.23272157      -0.51207686      -0.52523398      -0.57787038       0.04915569       0.12549940      -0.20745700
H       10.90277690       5.47251878      18.08227565       0.83711039      -0.49526687      -0.24992796       0.15068114       0.18243068       0.19729212
C        9.65046889       2.76772571       4.30891933      -2.17006453       0.08256259      -2.35722102       0.47866525      -0.51451599       0.91819900
C       11.97465152       4.46523522      16.42309956      -1.76123171       0.05274012       0.89587497       0.44471509       0.49298068       0.37840342
Pb      11.66112853      14.80042214       8.01893816       0.00103612      -0.00864908       0.23155327      -0.21055884      -3.42462741      -0.52956370
Pb       7.77979465      14.79221928       8.17214488      -0.11242914      -0.03170968      -0.04149767       3.09719891       1.90596332      -2.77064635
N       10.44009187       1.66737061       3.70401325      -0.17530931      -0.96305742       0.18549332      -0.29732422      -0.03067906      -0.44921662
N       11.08986227       5.50984054      17.03257718      -0.23920190       1.32196789       0.51254286       0.62276983      -0.83816422      -0.36853657
I       13.01961570       8.50927023       6.07779727      -0.11588010      -0.08831706       0.21761127      -1.26863676       2.46143141      -0.65865277
I        9.56639972      13.91710904       5.69749290       0.09488215      -0.20082839      -0.05520607      -1.08983327      -3.78000227      -0.34349674
I       12.79916193       8.75823201       1.74279219      -0.11256732       0.14160168      -0.08224693       2.10674972       0.93042692       0.87171610
I       10.58317608      13.09367619       1.84917172      -0.05692145      -0.07978195       0.06899602      -2.10284170       0.10897524      -0.78350396
I       12.84697668      12.05998945      16.48538918      -0.20625896      -0.05782121       0.04320564      -0.98809668       1.99242948       0.61413706
I        9.11424219       9.94680086       4.11353122       0.06926581       0.07288315       0.13031860      -0.37293328      -0.50353996      -0.77506282
H        9.06634364       9.12243889       9.26011881       0.20409608      -0.26170101       0.79563324       0.16501492       0.12208223      -0.13114800
H       12.32638113      12.57502780       4.11409355       0.92429695      -0.03655374       0.01436406       0.03572738      -0.06424768       0.12456954
H        7.76110148      10.03213562       8.40200335      -1.47495509       0.30121561      -0.72786374       0.03809443       0.18938754       0.24583424
H       13.25105409      11.11265250       4.64727753       0.47854344       1.15875604      -0.17859113       0.08594791       0.11559585       0.02633155
H        8.75150369       8.56696145       7.51466944      -0.36027436       0.26878813       0.10566496      -0.03210053      -0.05608847       0.10465825
H       13.93260135      12.89752245       4.95981575      -0.44184324      -0.83412323       0.05602669       0.04004870       0.01590021      -0.01279429
H        9.61496494      11.33208515       8.36820357      -0.07448380       0.38425300      -0.30236681      -0.11341256      -0.07526322      -0.05669762
H       13.69174475      11.76445309       2.17208497       0.04553470       0.39558473       0.49481402       0.09828163       0.24824338      -0.24230373
H        9.44461143      10.79937670       6.68700369       0.32883517      -0.05694831      -0.69031641      -0.05418156       0.02417075       0.03225758
H       15.16474353      11.75350840       3.04063516      -2.00505354       0.59272097       0.10410093      -0.24042663      -0.06826287       0.34198587
H       10.63445985      10.14743724       7.77562381       0.77652849      -0.60570572      -0.45899973      -0.24728230      -0.08244755       0.05277211
H       14.29839492      13.21670100       2.75855547       0.03136721       0.66815201      -0.42496388      -0.11894055       0.06654416      -0.09128785
C        8.72377306       9.45986188       8.23249817       0.81722193      -0.87835375       0.07173450       0.83003510      -0.32158824       0.29907132
C       13.37701229      12.18506386       4.28980326      -0.48238494      -0.29924474       0.36636143       0.48898099       0.00396303       0.20903741
Pb      10.90545010       7.15184688       3.92713078       0.26775100       0.20401788       0.40526015       1.19000532      -2.17047901      -2.47161648
Pb      14.90350786       7.53284245       3.66712913       0.03176249      -0.20211333       0.00852377       2.35473665      -1.03177918       3.71672487
N        9.67141122      10.48795872       7.67343211       0.04134467       0.78213219       1.25470392       0.13792772       0.76139114       0.67455850
N       14.15002094      12.23073536       3.01392238       1.58708108      -1.67107838      -0.51176423      -0.30874798       0.98563868       0.00471944
I        5.78797096       0.99672326      11.04748447       0.03991201      -0.03627679      -0.26542510      -1.39775772      -1.10337848       1.14005681
I        0.67615168       6.29967774      10.63518128      -0.05207719       0.01208683      -0.18784937      -3.59209604       0.77412374      -0.80347276
I        4.96617969       1.34181781      14.90131198      -0.19658628       0.28608829      -0.39917359       0.56397446       0.49476430       2.23029637
I        0.74444419       5.88667231      14.98774803       0.28456179       0.25807171      -0.02252681       1.56402156       1.48146343      -2.17851682
I        4.55994486       4.87482818      12.13058710       0.12243901      -0.29226593       0.00802196       0.67726447       1.36488259       2.06912326
I        2.75255584       2.48613254       0.55539742      -0.06588569       0.02174506      -0.27838956       0.68714012       4.23330067       1.55216647
H        1.93186109       3.79943707      13.59139067       0.04743223      -0.13902050      -0.80041844      -0.21615017       0.16517974      -0.05512998
H        5.89042917       5.45364759       7.01994857       0.22578908       0.60911411       0.20436567      -0.04971754      -0.13221268      -0.36531357
H        0.14837733       3.19409760      12.28411910      -0.19791510       0.04654987      -0.27652324       0.12544609       0.11507600       0.41279200
H        6.01265942       4.44664313       9.15402642       0.00670139      -0.21509465      -0.71854743      -0.07914561      -0.12507327       0.12397931
H        0.46335470       2.31097864      14.25784908      -0.01056974      -0.25857992      -0.20099306      -0.03593689      -0.03954673       0.30004403
H        4.30738306       3.95355494       7.56719804       0.36919633       0.59427265       0.13044722       0.01100998      -0.03647272       0.13833906
H        1.88955854       1.62835375      11.63236338       0.23178118      -0.01567478       0.27168202      -0.13513715      -0.04862932      -0.22879868
H        4.96108645       6.80431465       9.00801476       0.36592442       0.95286404      -0.19113007      -0.03269643      -0.21332925       0.09371204
H        1.35371098       0.77783822      13.14170211       0.27165550       0.38811983      -0.64559538       0.22228518      -0.25408926      -0.20186075
H        3.99967625       5.39322126       9.67055425      -0.04770086       0.17772967       0.13220875       0.15409114      -0.00175954      -0.15762440
H        2.77130109       1.62129471      13.12224264       0.70355098       0.23648663      -0.04997676       0.13010390       0.10184752       0.17166343
H        3.53129047       6.19264015       8.04661178      -0.65258039      -0.03644902      -0.23653262       0.13112308       0.08239939      -0.15837683
C        1.04429129       2.81451946      13.18143229       0.07250457       0.54253358       1.42804833       0.61110075       0.11708117      -0.18192740
C        5.22610590       4.89693646       8.03625253      -0.20234547      -1.32888867       0.48035587      -0.26984748       0.16798343       0.37748856
Pb       4.66333296      14.82716328      -0.07533010       0.17665284      -0.19909743      -0.14479390      -1.05893707      -1.45788580      -0.95373286
Pb       0.62164052      15.20637458       0.13438884       0.24545162      -0.48243065      -0.23788798      -1.03894713      -5.95600352       0.28173489
N        1.84305794       1.65932973      12.69100332      -0.94798135      -0.70500430       0.19113327       0.77012532       0.41143400       1.19350668
N        4.36928284       5.89513857       8.71136948      -0.28160273      -0.85275972       0.13819912       0.38098285       0.14928589       0.10638153
I        4.80988510       8.27259002      15.08319027      -0.01112527       0.37765210       0.01790116       3.30029708      -1.53777758      -1.65214777
I        1.16620095      14.05453111      14.66271311      -0.23808526      -0.22333744       0.32854473       1.38190158      -1.18069709      -0.33103190
I        4.47392215       8.95219693      10.49314905       0.14156358       0.05919309       0.19817130       0.29884784       1.28557546       1.37835979
I        2.15957311      13.08403963      10.51598575      -0.05336767      -0.09229085       0.14939073       3.75717528      -0.21228075      -2.28196325
I        6.06748965      12.07286579       8.02124553      -0.30074059       0.14228860       0.06104481      -1.76376883       2.46533869       0.07332938
I        0.91073060       9.88723775      13.29108059       0.11462768       0.46285845       0.25624521      -0.67673271      -0.63860625      -2.37054500
H        1.81444445       8.61909903       0.51296590       0.18460546      -0.76401604      -0.10878379       0.03057146       0.02834455       0.07132961
H        5.01979531      11.22250778      13.23089044      -0.42245990       1.65411962      -0.84508855       0.04680464      -0.20721845       0.12048238
H        1.55002219      10.20539421       1.72730819      -0.14385974      -0.22484231      -0.77794101       0.38559368       0.18361324       0.04303863
H        6.19133190      12.70506073      13.81768750      -0.00357787       0.24697654      -0.03691900      -0.16574071      -0.04822053      -0.02711192
H        0.96165977      10.26027779      -0.25022130       0.09832663      -0.40724931       0.49259011      -0.11448380      -0.05719281       0.39418238
H        4.33448886      13.20695379      13.03005307      -0.00214456      -0.34216534       0.06235412      -0.10305381       0.26345853       0.17365162
H        3.11029822      11.38000095       0.23464757      -0.26348719      -1.09231350      -0.49315569       0.13844894       0.18578873       0.19581659
H        6.82236068      11.65162343      11.66261905      -0.82392039       0.60903050      -0.46821208       0.09379395       0.25635815       0.07017165
H        3.16363579      10.19334640      -1.02742501       0.02619633      -0.08176078      -0.44746525      -0.20990697      -0.24512718       0.15267602
H        6.11256109      13.18412724      11.18606965       0.26644542       1.32575576      -0.17524825       0.13726635       0.07283790       0.00728021
H        3.94503440       9.93020636       0.50261437       0.15529941      -0.60399016       0.18112760       0.04089519       0.25242780       0.00035329
H        5.26474673      11.75094251      10.91404137      -0.05364032      -0.09322825      -0.12015114       0.05195290       0.10906476       0.18189349
C        1.75789238       9.75708636       0.56369268       0.10806462       1.70497889       0.05920512       0.42810573      -0.28269540      -0.34571491
C        5.28256004      12.37338483      13.00570322       0.65285910      -1.47566391       0.47835697       0.01359996       0.14341663       0.32751331
Pb       2.86303281       7.38956063      12.63565912      -0.53723863      -0.17544308       0.31161405      -0.37198545      -1.85651424       2.09854458
Pb       6.61823205       7.39245704      12.76124391      -0.17299136       0.08119033      -0.43110875       2.10488698      -0.24476355      -2.12771010
N        3.08125042      10.30671254       0.01009472      -0.26159220       1.52292959       0.59655526       0.21380776      -1.06739522       0.04693666
N        5.90772099      12.27896251      11.58705584       0.42391955      -2.20954107       1.39897077       0.05631316       0.33053079       0.72061152
I       13.52528417       0.91940349      10.42879819       0.12541252      -0.16062116       0.09470637      -1.54181188       0.54354856      -0.75530676
I        8.23103394       6.26226631      10.17650504       0.30061029      -0.01887028       0.26549985       2.01731366       1.18098321      -1.29584414
I       12.73812060       1.35583449      14.46847957      -0.06270087      -0.30311067       0.30779015       1.12468859       0.37035020      -2.02837494
I        8.36074357       5.90802747      14.73331532       0.10204260      -0.04178165       0.16460939      -0.66277587      -0.74739663       3.11057419
I       12.58143028       4.73170057      12.21245943      -0.39643314      -0.12606173      -0.24545700      -1.30653873       3.03001541      -0.39791734
I        9.93759974       2.46885006       0.36627943       0.67842280      -0.19194489      -0.22333540      -1.11346170      -1.06085613       3.54967248
H        7.79322089       2.98124815      12.30637633      -0.46912487       0.13753425       0.23996976       0.13978416      -0.00467743       0.12272684
H       13.33895363       5.47815054       6.70895384       0.13793128       0.06563589      -0.34465331      -0.15790908       0.00645360       0.13244255
H        8.71923841       2.74679152      13.86759138      -0.37120465       0.31856150       1.13779845       0.06708153      -0.00362013      -0.02998175
H       14.15898610       4.78198904       8.30361131      -0.73835664       0.40851853      -0.21144038       0.06184482       0.07812571       0.22188615
H        9.20687541       4.04508242      12.67480194       0.29422390      -0.48511419      -0.04829630       0.28611816       0.20092398       0.04359990
H       12.78813825       3.79440517       7.45209863      -0.18531256      -0.05398167      -0.02189023      -0.09443775       0.09543053       0.28780080
H        9.77440618       2.02644068      11.18910027      -0.26038449       0.32291872       0.35887965      -0.07528607      -0.13669751      -0.00853598
H       11.22374941       5.59315114       8.15617193       0.15671369       0.42036431      -0.53430227       0.16716911       0.16596741       0.20515759
H        9.18602452       0.96360549      12.31045823      -0.17450479       0.19606363       0.61951879       0.04807578       0.06763479       0.18966644
H       12.55299849       6.63080562       8.79959486      -0.94801894      -0.50363834       0.14775514       0.16497045      -0.10027541       0.11069283
H       10.56198794       1.89163460      12.63526750      -0.28520462      -0.14100304       0.29821817       0.08933959       0.10276440       0.07754156
H       11.96554197       5.13426064       9.56501493       0.49299720       0.03041367       0.11195252      -0.06503061      -0.00410788       0.07237096
C        8.75842225       3.04379406      12.83300442       0.48114828      -1.05639900      -1.18680032      -0.90738103       0.81143891       0.50184024
C       13.18238795       4.88530041       7.70217542       0.56900638      -0.93106161       0.43906592      -0.34102569       0.39133394       0.89807537
Pb      12.44895814      14.65835176      -0.31593609       0.08642185      -0.02285651      -0.09571789       1.11546067      -1.52999447      -0.51608220
Pb       8.60005857      14.78743927      -0.09740651      -0.27475870      -0.17550943      -0.06281018       2.26098878       0.20677323      -2.58559934
N        9.59376894       1.92215147      12.23697777       0.97249194       0.33792931      -1.31666537       0.27043246      -0.39696990      -0.09511345
N       12.16422048       5.60402056       8.59493493       0.41528356       0.71282000       0.32891431      -0.01872553       0.21544222       1.64423137
I       12.59551220       8.05570094      14.75208182      -0.45573325       0.18990565       0.25472376      -0.12920273       1.20478487       0.84049417
I        8.91512096      13.67235839      14.66627686      -0.08943097      -0.25281722      -0.33199389      -3.38151546       0.29523618      -0.39505805
I       12.09870195       8.94329547      10.34132274      -0.00811258      -0.22125629       0.05494077       1.07835567      -0.75958339      -1.85058597
I        9.82918877      13.07583977      10.08837026      -0.09569750      -0.04082482       0.11853842      -1.99854613      -1.07688151       0.28810680
I       13.63327258      12.17586473       8.09177582      -0.15993337      -0.21838867      -0.13215145       3.85383732      -1.89297470      -2.14396203
I        8.51095404       9.98859627      12.75646162       0.16964835      -0.08733935       0.17831468      -1.03447053      -0.35699361       0.58869932
H        9.29352135       9.79963403       0.93444638      -0.19970565       0.19138011       0.77196399       0.09937534       0.05816280      -0.22673008
H       12.08930790      12.81311443      12.15935983      -0.10620518       0.21833911       0.63563489      -0.28131395      -0.07181812      -0.02657821
H        8.61617506       9.69929418      -1.02483066      -0.71473401       0.17851928       0.41443922       0.08981444      -0.07802261      -0.18427800
H       12.49308094      10.76898146      12.45897952      -0.28242005       1.02720096      -0.27825529       0.21809471      -0.03273036      -0.30938578
H        9.86684133       8.29738674      -0.23967393       0.32266568       0.54773070      -0.22696366       0.27338137       0.01432582       0.15333080
H       13.56453383      12.14912319      13.66427824      -0.30476116       0.62822607       0.50161730      -0.16192853      -0.20521482       0.11200011
H       10.52215480      11.27740045      -0.09715084       0.42281227       1.35916195       0.55953377      -0.09248973       0.07917295       0.33126095
H       13.47540652      12.15773380      10.38044018       0.37303866       0.58307920       0.86426016      -0.34309499       0.03891529       0.20958015
H       10.81776496      10.56970252      -1.61272977      -0.53752747      -0.24039156       0.16017372       0.04725346      -0.07717226       0.03709073
H       14.66154394      11.30458281      11.73502067       2.10959245      -0.28966340       0.28554337       0.22858099       0.18372007      -0.09320419
H       11.59932149       9.99817749      -0.28398406       0.42258824       0.00944492       0.54425149       0.09451676       0.09628798       0.23501189
H       14.53093411      13.30943192      11.48617631      -0.02115932      -0.63707917       0.68766319      -0.01264645       0.12745296       0.14871644
C        9.51994242       9.47404697      -0.18052978       0.87190007      -0.28380247      -1.39191436       0.55865693      -0.36856551       0.06459946
C       12.92699411      12.01943716      12.54082181      -0.28182571      -1.61185964       0.18289095      -0.71467160       0.05832637      -0.39870666
Pb      10.39963506       7.19720962      12.47729167       0.05099084       0.22882027      -0.18236283      -0.00359190       0.90348180      -0.36646954
Pb      14.31831551       7.26624537      12.37179772       0.42179195       0.52250462      -0.07311812      -0.95748041      -1.04720511      -0.97437611