768
Lattice="25.489424268572538 -0.0956594233117733 0.005584256169073863 0.09977264370270744 24.739172851202614 0.6001478684267295 -0.002024446371267937 0.5682806783236378 24.75292066089703" Properties=species:S:1:pos:R:3:forces:R:3:momenta:R:3 pbc="T T T"
I        5.88255345      24.60700735       1.59189643       0.11909911       0.08930912      -0.43663556      -0.55973816       0.29366362      -1.37302889
I        5.42353646      10.62660492       7.38028896      -0.09177390      -0.06903890       0.31547969       1.49085343      -1.35666091      -3.03735143
I        5.11273889       8.20448667       3.13777680       0.13756242       0.00773771       0.05319040       2.43900633      -0.81585163      -1.43203482
I        5.84989109       1.98565619       4.71931861      -0.05738457       0.01894792      -0.04519564       1.14525813      -0.55578741       1.07165245
I       24.94430931      10.63771702       7.39092148      -0.19078639      -0.01428458      -0.03684515       0.66695176       0.86002232      -1.21980927
I       11.89973975      24.52629170       1.41498393      -0.03835625      -0.01511178       0.07965997       1.68087959       1.76121645       2.79352689
I       11.58566317       2.02815100       4.95814477      -0.00063539       0.03845895       0.11885530      -0.93364792       0.85488737      -0.32364731
I       24.75175770       8.21511534       3.27729061       0.13304404       0.03455254       0.02392558      -0.76607356       2.44542760      -0.86652988
I        8.59028053      11.77993816      10.15240002       0.37112574       0.23537219       0.03498272       2.43392468       0.42658653      -1.45203959
I        2.49597854       4.76103429       4.34506758      -0.41485345      -0.02753283      -0.04945760      -2.16154225       0.76737764       1.74411770
I        2.68256973      24.02756773       4.23965445      -0.41360696       0.12562519      -0.15527081       0.71178795      -0.16886761       0.93306433
I        8.90520150      11.11543429       4.69628292       0.08205522      -0.29253362       0.17618268      -0.13914354       0.44357660      -0.42305734
H        1.70903237       1.66692346      24.61164992      -0.46271669      -0.53265827      -0.09769778       0.09606127       0.08920500      -0.15146693
H        8.49703695       1.05197285       2.27042554      -0.36499887      -0.42993179       0.33959838      -0.00623184       0.10148973       0.21609086
H        9.58083253       9.53866797       1.60250772      -0.76922315      -0.23049674      -0.95920039      -0.00415823       0.08474123      -0.01633127
H        2.73247974       0.89543874       8.02130571       0.40981219       0.14971785      -0.45835326       0.09941169      -0.02005184       0.12032389
H        2.97033902       7.47209427       6.18893635       0.28946674       0.49661455      -0.13564465      -0.06686126      -0.02330235      -0.11407688
H        9.63652758       2.44358938       2.23043962      -0.51889805       0.28114509      -0.08140266      -0.24104195       0.15746302       0.05351804
H        9.29595117       3.06537973       8.11442625      -0.07957663       0.65899294      -0.17846666      -0.17055859      -0.01356350       0.10499189
H        1.32525788       0.88122405       6.77020880      -0.06981497      -0.00171987      -0.71574515       0.07896775       0.01464361      -0.06067807
H        3.53041103       2.34378626      24.44967858       0.33457449      -0.39794525       0.12286039      -0.09547206      -0.00942354       0.06958014
H        7.78558069       2.67747623       1.86062790      -0.23568961       0.32836705       0.32110258       0.02972931      -0.02882013       0.19079073
H        7.82785586       9.58721346       1.93739145      -0.61547256      -0.15911535      -0.12718102      -0.26739362      -0.02616639      -0.23440941
H        3.14834124       1.47484187       6.25201428       0.84595078      -0.46901366      -0.70160095      -0.00436501       0.18254022      -0.05122884
H        3.05387801       3.14591772       1.66325516       0.42748822       0.14594488      -0.16492801      -0.00560116       0.01755945      -0.06995518
H        8.64208418       8.91588425       6.60323459       0.27240601       0.30118267      -0.12995334      -0.03089772       0.07238165       0.18678783
H        7.59874827       7.58171153       0.36042502      -0.92452275      -0.06016925      -0.38359769       0.16931051       0.24527339      -0.03374278
H        1.53791096       9.09603944       1.78953956      -0.72866901       0.29685808       0.21199837      -0.14827832      -0.14394428       0.05457464
H        2.41718807       1.64030697       2.05855499      -0.00342379       0.05157814       0.17106946      -0.11653063       0.00774567      -0.08153238
H        8.01380650       7.45983644       6.90738566      -0.68342934      -0.77952620       0.20862398       0.00924098      -0.03572453      -0.07680589
H        8.53429017       7.25633769       1.72729117      -0.14873698      -0.23435683       0.24735886      -0.21444436      -0.04982971      -0.07148655
H        2.21624034       9.79104519      24.89913552      -0.02948179      -0.44302400       0.76837190      -0.21141933      -0.02506407       0.20346895
H        1.37856980       2.93468946       1.60617939       0.43326291      -0.45609527      -0.25970279       0.00242149       0.13888632       0.08699635
H        9.67451375       1.80901261      24.78378763       0.72702338       0.19510921       0.27185124      -0.01108677      -0.19771232      -0.14692880
H        9.23909026       7.51225760       0.23128714       0.08921068       0.23200599       0.03362008       0.12279631       0.36672673      -0.12243608
H        3.17238700       8.99575792       1.59971561       0.40526829       0.44676348       0.15249223       0.01833354       0.04145289      -0.07021302
C        2.13155666       8.16468951       6.33851977      -1.75179311      -0.93768128       0.98231997      -0.43111333       0.02123085      -0.74006772
C        8.65390391       2.03394606       1.78658035       1.62104501      -0.12661526      -0.24550547       0.50312005      -0.20661652       0.04695934
C        8.44981192       2.99939979       7.39999087       0.61128357      -0.25852672      -0.19787172      -0.19466672      -1.03556826       0.12127222
C        2.36766798       1.41939558       7.02581441      -1.06069953      -0.37031949       1.90914545       0.38670255      -0.23606723      -0.41126168
Pb       5.64731387       5.15238712       4.01128447      -0.04674678      -0.06010405       0.24747301       0.78734409       1.04050045      -0.96540508
Pb       5.75522778      11.13931894       4.25884715      -0.12984551       0.20161575       0.19930441       0.34087730       0.03237569      -1.81989111
Pb      24.61667855      11.49267473      10.39499122       0.19263796      -0.04823994       0.20614025       0.93437611      -0.76901229       0.16513781
Pb      24.82688682      11.26284802       4.23601008       0.07754722       0.00475548      -0.12976962       1.98453753      -2.07994163       0.76224602
N        2.31896619       2.45551437       1.41824187      -0.69171434      -0.77043645       0.04655045      -0.33663186       0.11158728      -0.07172330
N        8.79903587       8.05381620       7.17915839      -0.75977007       1.42718484      -0.18330124       0.63921967      -0.12840956       0.19683275
N        8.45735650       7.81995378       0.85535982       1.01119589       0.35520910       0.57386444       0.77835264      -0.65782369      -0.50909371
N        2.26906406       8.75894809       1.14690364       0.19150040      -0.46527171      -0.89191515       0.42557783      -0.22268728      -0.38400199
I        5.57334198       6.19260284       7.12945193       0.22411607       0.02265274      -0.04271082       1.40117099      -0.45260342       0.15807320
I        5.32635423       4.42718073       0.94891177      -0.05064604      -0.14218015       0.07652380      -0.22296862       3.11129317       1.48833626
I        5.21740136       2.36316618       9.41219674      -0.20191547      -0.00605028      -0.08093128       1.62592623      -0.48902265       1.69980624
I        5.64929006       8.74769837      23.73288105      -0.14338946       0.14666654      -0.11681187      -0.94467798      -1.44716099       0.36512711
I       24.81208005       4.20848503       1.22294093       0.01167016      -0.02623438      -0.35330937       1.20841151       0.32847917      -0.81013002
I       11.73228114       6.02706281       7.25433904      -0.07851209       0.00792726       0.14389097      -1.50513725       2.13667175       0.91715062
I       11.49089273       8.82096490      23.74469709       0.10365907      -0.04771963      -0.01647765      -1.43509328      -1.40639267       0.44774882
I       24.82253623       2.36409963       9.77684896      -0.03564928      -0.14697422      -0.22717107      -2.56302598       0.83032784       1.31168255
I        8.72620084       5.54714024       3.68693317       0.22038642       0.12588548       0.21085036      -0.22711086       0.28039406      -0.08768078
I        2.34333008      11.37009833      22.95528986      -0.21993176       0.01520789       0.04840556      -0.10100582      -1.40148819       0.70624236
I        2.43144860       5.73952383       9.80080579      -0.03445729      -0.00667292       0.08620077      -2.11312041       1.06088627      -0.97405906
I        8.82844428       5.47175123      23.25917852      -0.04637250      -0.01402222      -0.06238825      -1.18020488      -0.43509816       0.37555670
H        2.02083116       9.01216638       5.67047849       0.35874405       0.08876601      -0.57482206       0.02159218       0.04500507      -0.00608001
H        9.17026555       7.51989772       9.25964486      -0.04535182      -0.17319279      -0.23031744       0.20320216       0.00774236       0.07037284
H        7.50535487       3.24489206       7.88158189      -0.43669888      -0.30110287       0.31716936       0.10260961       0.10878448       0.05859076
H        2.94203699       6.87143393       0.39065795       0.78466185      -0.15900117      -0.50967985       0.03103445       0.11851986       0.00616867
H        2.00361666       3.53208765      24.14528791       0.10069569      -1.49096026       0.55106875      -0.20257384      -0.14212092       0.17305083
H        9.50845643       9.28156565       8.74136578      -0.51080287       0.36036076       0.09555127       0.05411973      -0.00555298      -0.04256815
H        8.39753503      10.37782448      24.93154962       0.03350462       0.49846818      -0.31156070      -0.20415690      -0.04393515      -0.20357632
H        2.40135014       6.79026330       2.20075311       0.03468667       0.59768949      -0.58176303       0.06318843      -0.07756291      -0.14263462
H        1.20528743       7.51100728       6.32169544       0.56597803       0.62972337      -0.12539747       0.09187915       0.06663296       0.16593752
H        7.61844723       8.60448021       8.94912848      -0.08699711       0.75022703      -0.04916964      -0.03005351      -0.04301962       0.09297277
H        8.52060942       3.61834086       6.49820771       0.44695532       0.18489097       0.09217104      -0.15823484      -0.28294733       0.10843875
H        1.16640409       6.77413745       0.76679345       0.07466695       0.30864856       0.06064085       0.04361044       0.03159521       0.10683115
H        2.18356625       8.00560350       8.45644523       0.21595768      -0.78461627       0.32430309      -0.12902330       0.13200828       0.05788581
H        8.84650593       3.31383367      24.55516969       0.18969006       0.15670434      -0.51821775      -0.28994403       0.00354196       0.03930980
H        8.32774431       0.92054594       7.81498108       0.13615732       0.77797611      -1.37109925      -0.15298200       0.04536965      -0.00475774
H        2.78637978       3.42145849       7.86691081      -0.17502909      -0.44310625      -0.44745279       0.00996920      -0.14609447      -0.02762242
H        1.43183563       9.40885022       8.03996035       0.14141066      -0.40584312      -0.87697013       0.02429397       0.12483236      -0.03771614
H        8.07581704       1.80326531      24.74106396      -0.60336329      -0.05991216      -0.34349179      -0.00004060      -0.02916858      -0.30740865
H        9.48945636       1.41609134       6.56396150      -0.04901321      -0.28376141      -0.12233423       0.32178048       0.23715786       0.19805885
H        1.15838970       2.89193832       7.92579665      -0.38313963       0.41787983      -0.33328539      -0.05293928      -0.03576468       0.03386595
H        3.08259341       9.28162013       7.84741677      -0.11876636      -0.30856838      -0.04638887      -0.15865337      -0.17166805      -0.09278835
H        9.67635596       7.61860795       6.82633178       0.69217847      -0.49317016       0.37940739       0.05306860      -0.07380643       0.23942767
H        7.80353779       1.40134288       6.18891620      -0.33212157      -0.17136403      -0.20577100      -0.08107876       0.11125369      -0.03155306
H        1.88162936       3.40407543       6.36294751      -0.37970967       0.15904913       0.60898950      -0.10172910      -0.14840830       0.06926736
C        2.40702271       2.54258144      24.73449227      -0.05583135       3.20175413      -0.24682227       0.83301862       0.25280585       0.23885127
C        8.75554400       8.43139108       8.64554979       0.99148335      -1.28414981      -0.45365267      -0.03581012      -0.11708682       0.38423276
C        8.55613572       9.30202539       1.13990371       1.49488113      -0.44259066       1.10067293      -0.17028054       0.16368983       0.15925791
C        2.19110362       7.20038049       1.11083153      -0.85902229      -0.51633643       0.79973874      -0.16171144       0.50702749       1.05455484
Pb       5.57544357      11.67516918      10.57808993      -0.27185720      -0.07093915      -0.17897158      -1.34583294      -0.31720699       0.99200097
Pb       5.68820397       5.48554441      10.32690506      -0.13660528      -0.09417780      -0.21739988       1.44811784       0.43926800       1.17042543
Pb      24.64603300       5.04247667       4.15352807       0.13086464       0.09036434       0.03710343       2.55122954      -0.25344879       1.37173492
Pb      24.78612131       5.44510004      10.38181825       0.00534231       0.08132885       0.06129593       2.41949649      -0.21337764      -0.70856747
N        2.19455078       8.72560938       7.73173375       0.72335736       1.25450149       0.36363956       0.30956475       0.42858477      -0.09381207
N        8.86804952       1.81947991       0.29420759      -0.86170578      -0.42077895       0.32597909       0.19910061      -0.08122310       0.41807912
N        8.51280565       1.57591290       6.95007280      -0.06205119      -0.54479410       1.60597138       0.55692105       0.18485811      -0.09204918
N        2.00557737       2.88374971       7.30132121       0.99795277       0.48824746       0.30401483      -0.02327117       0.01328527      -0.34740008
I        5.88154123      24.89114769      13.96835676       0.11909911       0.08930912      -0.43663556      -0.55973816       0.29366362      -1.37302889
I        5.42252424      10.91074526      19.75674929      -0.09177390      -0.06903890       0.31547969       1.49085343      -1.35666091      -3.03735143
I        5.11172667       8.48862701      15.51423713       0.13756242       0.00773771       0.05319040       2.43900633      -0.81585163      -1.43203482
I        5.84887887       2.26979653      17.09577894      -0.05738457       0.01894792      -0.04519564       1.14525813      -0.55578741       1.07165245
I       24.94329709      10.92185736      19.76738181      -0.19078639      -0.01428458      -0.03684515       0.66695176       0.86002232      -1.21980927
I       11.89872753      24.81043204      13.79144426      -0.03835625      -0.01511178       0.07965997       1.68087959       1.76121645       2.79352689
I       11.58465095       2.31229134      17.33460510      -0.00063539       0.03845895       0.11885530      -0.93364792       0.85488737      -0.32364731
I       24.75074548       8.49925568      15.65375094       0.13304404       0.03455254       0.02392558      -0.76607356       2.44542760      -0.86652988
I        8.58926831      12.06407850      22.52886035       0.37112574       0.23537219       0.03498272       2.43392468       0.42658653      -1.45203959
I        2.49496632       5.04517463      16.72152791      -0.41485345      -0.02753283      -0.04945760      -2.16154225       0.76737764       1.74411770
I        2.68155751      24.31170807      16.61611478      -0.41360696       0.12562519      -0.15527081       0.71178795      -0.16886761       0.93306433
I        8.90418928      11.39957463      17.07274325       0.08205522      -0.29253362       0.17618268      -0.13914354       0.44357660      -0.42305734
H        1.71004460       1.38278312      12.23518959      -0.46271669      -0.53265827      -0.09769778       0.09606127       0.08920500      -0.15146693
H        8.49602473       1.33611319      14.64688587      -0.36499887      -0.42993179       0.33959838      -0.00623184       0.10148973       0.21609086
H        9.57982031       9.82280831      13.97896805      -0.76922315      -0.23049674      -0.95920039      -0.00415823       0.08474123      -0.01633127
H        2.73146752       1.17957908      20.39776604       0.40981219       0.14971785      -0.45835326       0.09941169      -0.02005184       0.12032389
H        2.96932680       7.75623461      18.56539668       0.28946674       0.49661455      -0.13564465      -0.06686126      -0.02330235      -0.11407688
H        9.63551536       2.72772972      14.60689995      -0.51889805       0.28114509      -0.08140266      -0.24104195       0.15746302       0.05351804
H        9.29493895       3.34952007      20.49088658      -0.07957663       0.65899294      -0.17846666      -0.17055859      -0.01356350       0.10499189
H        1.32424566       1.16536439      19.14666913      -0.06981497      -0.00171987      -0.71574515       0.07896775       0.01464361      -0.06067807
H        3.53142326       2.05964592      12.07321825       0.33457449      -0.39794525       0.12286039      -0.09547206      -0.00942354       0.06958014
H        7.78456847       2.96161657      14.23708823      -0.23568961       0.32836705       0.32110258       0.02972931      -0.02882013       0.19079073
H        7.82684364       9.87135380      14.31385178      -0.61547256      -0.15911535      -0.12718102      -0.26739362      -0.02616639      -0.23440941
H        3.14732902       1.75898221      18.62847461       0.84595078      -0.46901366      -0.70160095      -0.00436501       0.18254022      -0.05122884
H        3.05286579       3.43005806      14.03971549       0.42748822       0.14594488      -0.16492801      -0.00560116       0.01755945      -0.06995518
H        8.64107196       9.20002459      18.97969492       0.27240601       0.30118267      -0.12995334      -0.03089772       0.07238165       0.18678783
H        7.59773605       7.86585187      12.73688535      -0.92452275      -0.06016925      -0.38359769       0.16931051       0.24527339      -0.03374278
H        1.53689874       9.38017978      14.16599989      -0.72866901       0.29685808       0.21199837      -0.14827832      -0.14394428       0.05457464
H        2.41617585       1.92444731      14.43501532      -0.00342379       0.05157814       0.17106946      -0.11653063       0.00774567      -0.08153238
H        8.01279428       7.74397678      19.28384599      -0.68342934      -0.77952620       0.20862398       0.00924098      -0.03572453      -0.07680589
H        8.53327795       7.54047803      14.10375150      -0.14873698      -0.23435683       0.24735886      -0.21444436      -0.04982971      -0.07148655
H        2.21725257       9.50690485      12.52267519      -0.02948179      -0.44302400       0.76837190      -0.21141933      -0.02506407       0.20346895
H        1.37755758       3.21882980      13.98263972       0.43326291      -0.45609527      -0.25970279       0.00242149       0.13888632       0.08699635
H        9.67552598       1.52487227      12.40732730       0.72702338       0.19510921       0.27185124      -0.01108677      -0.19771232      -0.14692880
H        9.23807804       7.79639794      12.60774747       0.08921068       0.23200599       0.03362008       0.12279631       0.36672673      -0.12243608
H        3.17137478       9.27989826      13.97617594       0.40526829       0.44676348       0.15249223       0.01833354       0.04145289      -0.07021302
C        2.13054444       8.44882985      18.71498010      -1.75179311      -0.93768128       0.98231997      -0.43111333       0.02123085      -0.74006772
C        8.65289169       2.31808640      14.16304068       1.62104501      -0.12661526      -0.24550547       0.50312005      -0.20661652       0.04695934
C        8.44879970       3.28354013      19.77645120       0.61128357      -0.25852672      -0.19787172      -0.19466672      -1.03556826       0.12127222
C        2.36665576       1.70353592      19.40227474      -1.06069953      -0.37031949       1.90914545       0.38670255      -0.23606723      -0.41126168
Pb       5.64630165       5.43652746      16.38774480      -0.04674678      -0.06010405       0.24747301       0.78734409       1.04050045      -0.96540508
Pb       5.75421556      11.42345928      16.63530748      -0.12984551       0.20161575       0.19930441       0.34087730       0.03237569      -1.81989111
Pb      24.61566633      11.77681507      22.77145155       0.19263796      -0.04823994       0.20614025       0.93437611      -0.76901229       0.16513781
Pb      24.82587460      11.54698836      16.61247041       0.07754722       0.00475548      -0.12976962       1.98453753      -2.07994163       0.76224602
N        2.31795397       2.73965471      13.79470220      -0.69171434      -0.77043645       0.04655045      -0.33663186       0.11158728      -0.07172330
N        8.79802365       8.33795654      19.55561872      -0.75977007       1.42718484      -0.18330124       0.63921967      -0.12840956       0.19683275
N        8.45634428       8.10409412      13.23182015       1.01119589       0.35520910       0.57386444       0.77835264      -0.65782369      -0.50909371
N        2.26805184       9.04308843      13.52336397       0.19150040      -0.46527171      -0.89191515       0.42557783      -0.22268728      -0.38400199
I        5.57232976       6.47674318      19.50591226       0.22411607       0.02265274      -0.04271082       1.40117099      -0.45260342       0.15807320
I        5.32534201       4.71132107      13.32537210      -0.05064604      -0.14218015       0.07652380      -0.22296862       3.11129317       1.48833626
I        5.21638914       2.64730652      21.78865707      -0.20191547      -0.00605028      -0.08093128       1.62592623      -0.48902265       1.69980624
I        5.65030229       8.46355803      11.35642072      -0.14338946       0.14666654      -0.11681187      -0.94467798      -1.44716099       0.36512711
I       24.81106783       4.49262537      13.59940126       0.01167016      -0.02623438      -0.35330937       1.20841151       0.32847917      -0.81013002
I       11.73126892       6.31120315      19.63079937      -0.07851209       0.00792726       0.14389097      -1.50513725       2.13667175       0.91715062
I       11.49190496       8.53682456      11.36823676       0.10365907      -0.04771963      -0.01647765      -1.43509328      -1.40639267       0.44774882
I       24.82152401       2.64823997      22.15330929      -0.03564928      -0.14697422      -0.22717107      -2.56302598       0.83032784       1.31168255
I        8.72518862       5.83128058      16.06339350       0.22038642       0.12588548       0.21085036      -0.22711086       0.28039406      -0.08768078
I        2.34434231      11.08595799      10.57882953      -0.21993176       0.01520789       0.04840556      -0.10100582      -1.40148819       0.70624236
I        2.43043638       6.02366417      22.17726612      -0.03445729      -0.00667292       0.08620077      -2.11312041       1.06088627      -0.97405906
I        8.82945651       5.18761089      10.88271819      -0.04637250      -0.01402222      -0.06238825      -1.18020488      -0.43509816       0.37555670
H        2.01981894       9.29630672      18.04693882       0.35874405       0.08876601      -0.57482206       0.02159218       0.04500507      -0.00608001
H        9.16925333       7.80403806      21.63610519      -0.04535182      -0.17319279      -0.23031744       0.20320216       0.00774236       0.07037284
H        7.50434265       3.52903240      20.25804222      -0.43669888      -0.30110287       0.31716936       0.10260961       0.10878448       0.05859076
H        2.94102477       7.15557427      12.76711828       0.78466185      -0.15900117      -0.50967985       0.03103445       0.11851986       0.00616867
H        2.00462889       3.24794731      11.76882758       0.10069569      -1.49096026       0.55106875      -0.20257384      -0.14212092       0.17305083
H        9.50744421       9.56570599      21.11782611      -0.51080287       0.36036076       0.09555127       0.05411973      -0.00555298      -0.04256815
H        8.39854726      10.09368414      12.55508929       0.03350462       0.49846818      -0.31156070      -0.20415690      -0.04393515      -0.20357632
H        2.40033792       7.07440364      14.57721344       0.03468667       0.59768949      -0.58176303       0.06318843      -0.07756291      -0.14263462
H        1.20427521       7.79514762      18.69815577       0.56597803       0.62972337      -0.12539747       0.09187915       0.06663296       0.16593752
H        7.61743501       8.88862055      21.32558881      -0.08699711       0.75022703      -0.04916964      -0.03005351      -0.04301962       0.09297277
H        8.51959720       3.90248120      18.87466804       0.44695532       0.18489097       0.09217104      -0.15823484      -0.28294733       0.10843875
H        1.16539187       7.05827779      13.14325378       0.07466695       0.30864856       0.06064085       0.04361044       0.03159521       0.10683115
H        2.18255403       8.28974384      20.83290556       0.21595768      -0.78461627       0.32430309      -0.12902330       0.13200828       0.05788581
H        8.84751816       3.02969333      12.17870936       0.18969006       0.15670434      -0.51821775      -0.28994403       0.00354196       0.03930980
H        8.32673209       1.20468628      20.19144141       0.13615732       0.77797611      -1.37109925      -0.15298200       0.04536965      -0.00475774
H        2.78536756       3.70559883      20.24337114      -0.17502909      -0.44310625      -0.44745279       0.00996920      -0.14609447      -0.02762242
H        1.43082341       9.69299056      20.41642068       0.14141066      -0.40584312      -0.87697013       0.02429397       0.12483236      -0.03771614
H        8.07682927       1.51912497      12.36460363      -0.60336329      -0.05991216      -0.34349179      -0.00004060      -0.02916858      -0.30740865
H        9.48844414       1.70023168      18.94042183      -0.04901321      -0.28376141      -0.12233423       0.32178048       0.23715786       0.19805885
H        1.15737748       3.17607866      20.30225698      -0.38313963       0.41787983      -0.33328539      -0.05293928      -0.03576468       0.03386595
H        3.08158119       9.56576047      20.22387710      -0.11876636      -0.30856838      -0.04638887      -0.15865337      -0.17166805      -0.09278835
H        9.67534374       7.90274829      19.20279211       0.69217847      -0.49317016       0.37940739       0.05306860      -0.07380643       0.23942767
H        7.80252557       1.68548322      18.56537653      -0.33212157      -0.17136403      -0.20577100      -0.08107876       0.11125369      -0.03155306
H        1.88061714       3.68821577      18.73940784      -0.37970967       0.15904913       0.60898950      -0.10172910      -0.14840830       0.06926736
C        2.40803494       2.25844110      12.35803194      -0.05583135       3.20175413      -0.24682227       0.83301862       0.25280585       0.23885127
C        8.75453178       8.71553142      21.02201012       0.99148335      -1.28414981      -0.45365267      -0.03581012      -0.11708682       0.38423276
C        8.55512350       9.58616573      13.51636404       1.49488113      -0.44259066       1.10067293      -0.17028054       0.16368983       0.15925791
C        2.19009140       7.48452083      13.48729186      -0.85902229      -0.51633643       0.79973874      -0.16171144       0.50702749       1.05455484
Pb       5.57443135      11.95930952      22.95455026      -0.27185720      -0.07093915      -0.17897158      -1.34583294      -0.31720699       0.99200097
Pb       5.68719175       5.76968475      22.70336539      -0.13660528      -0.09417780      -0.21739988       1.44811784       0.43926800       1.17042543
Pb      24.64502078       5.32661701      16.52998840       0.13086464       0.09036434       0.03710343       2.55122954      -0.25344879       1.37173492
Pb      24.78510909       5.72924038      22.75827858       0.00534231       0.08132885       0.06129593       2.41949649      -0.21337764      -0.70856747
N        2.19353856       9.00974972      20.10819408       0.72335736       1.25450149       0.36363956       0.30956475       0.42858477      -0.09381207
N        8.86703730       2.10362025      12.67066792      -0.86170578      -0.42077895       0.32597909       0.19910061      -0.08122310       0.41807912