768
Lattice="31.343885341238796 -0.47746557187201905 -1.6062135899949226 -0.40744855527168355 29.62807268781774 -0.02279442302894619 -1.4504438450383712 0.04122985736401602 17.113936445534993" Properties=species:S:1:pos:R:3:forces:R:3:momenta:R:3 energy=-3337.864028404414 stress="0.0 0.0 0.0 0.0 0.0 0.0 0.0 0.0 0.0" pbc="T T T"
I        6.43043664       0.92133597       2.18370475       0.14576319      -0.15588968      -0.10200804      -0.34011058       1.09434635       2.05951964
I        1.14182162       6.12434991       2.15145064      -0.13245153       0.27779854       0.33176842       1.18801526      -2.30006033       0.35349558
I        5.69057864       1.69691937       6.36087384       0.08692046      -0.18204204      -0.02285663      -2.04687175       0.56110662      -0.97277053
I        1.12803451       5.82618125       6.51622799      -0.10105576       0.09046433      -0.03770389      -2.61660903       1.04781656      -0.87995906
I        5.24116423       4.84946710       3.84264756      -0.10275703      -0.02800783       0.05708982      -0.52889512       0.58387467       0.00375801
I        1.72312420       2.51220052       9.14235140       0.24401073      -0.04899884      -0.20377253      -0.30173002       1.01735038      -1.39575293
H        2.04387939       3.98941365       3.55353856      -0.11961709      -0.15277255       0.38457984      -0.16573273       0.01779248       0.07517331
H        4.25616089       4.78149925      15.75395990       0.45245029       0.05302132       0.60940169      -0.21626855      -0.08082192      -0.20140389
H        0.80952698       2.65002039       4.04161207      -0.16338732      -0.23562221      -0.04662769      -0.03968578       0.08067689      -0.06003433
H        5.47940518       4.97708832      17.22176408      -0.30978999      -0.23483992      -0.57900887       0.07446538       0.02515254      -0.11220008
H        1.97612963       3.33263914       5.43325927      -0.14377378       0.31888964       0.09196532      -0.15266409       0.17662046       0.03490110
H        4.09567256       3.76241243      17.23049031       0.13346568      -0.20581981       0.16124320       0.02915019       0.14435439      -0.07888633
H        2.93496680       1.63365835       2.97526136      -0.01970557       0.42771466      -0.64891407      -0.03721255      -0.20077173       0.02777411
H        3.88582711       6.72982512      17.26511825      -0.22070713      -0.09186279      -0.05012398      -0.04043137      -0.05805039       0.12097295
H        2.65870115       0.98662238       4.58959961      -0.62187262      -0.85518718       0.18590542      -0.04154136       0.12400140      -0.11207647
H        3.48427649       5.64701882      18.53496141       0.18832942       0.02920542      -0.31804984      -0.09566774      -0.00942397       0.02221877
H        3.81794035       2.16811478       4.46785109      -0.73334427       0.18448312      -0.48901895      -0.00935355       0.04559840      -0.02982587
H        2.61461073       5.60900677      17.07381690      -0.05826874       0.49085808       0.14551283      -0.26865261       0.11888856      -0.02949842
C        1.82175894       3.06832087       4.30738411       1.10521043      -0.57483281      -0.72227897       0.41450233      -0.40028994       0.28580304
C        4.43719810       4.75071168      16.87843900       0.56075863      -0.23184764      -0.41541963       0.04809887       0.21715394      -0.29805722
Pb       3.50686616      14.93444529       8.36526227       0.06962669      -0.21806104       0.10656567      -2.77218958      -0.26162534       0.60843635
Pb      -0.40108743      14.87436890       8.69226551      -0.02595844      -0.11280557       0.09134192       1.25341057       2.38961572       1.66573760
N        2.86180612       1.89287310       4.03419608       0.69622998       0.85727879       1.26859265       0.27756905       0.17612039      -0.61362949
N        3.56776494       5.76209291      17.48870889      -0.85192933       0.13615637       0.34635891      -0.92688349       0.05231229      -0.87188480
I        5.10627913       8.21571609       6.72782916       0.11912704       0.18410435       0.20642704      -0.99216277      -0.65291054       1.67901128
I        1.45814780      13.90821741       6.13655688      -0.06586824      -0.10514300       0.04244005      -0.22799398      -1.03265763      -0.02269926
I        5.04090497       9.03425882       2.42119434      -0.12882508      -0.17373830      -0.28414355      -0.59687871       1.07935709       2.24505176
I        2.05464012      13.01633104       2.10817764       0.16525453       0.16281737       0.00545246      -0.40828737       1.03232392       0.84642180
I        4.57845125      11.96768159      16.81020745      -0.13323507       0.51702225       0.14672702       1.11254821       0.50092853       1.83015403
I        1.33947483       9.96769105       5.02237052      -0.11499173       0.00895824      -0.21319601       1.90587041       1.28256157      -1.31727724
H        0.86267426       8.52046854       8.39261101       0.14662095      -0.01108703      -0.51190491      -0.10199998      -0.15038152      -0.05658434
H        5.48172401      11.06835419       4.88522500      -0.25905484       0.25773194       0.00954448       0.17609736       0.04889493      -0.00092801
H        0.69795897       9.50703886       9.86159105      -0.07669821       0.23448564      -1.12812520       0.01302260      -0.05380618      -0.01928177
H        6.25129965      12.68845375       5.19258093       0.27155503       0.72336079       0.86253699      -0.09347857       0.06641509      -0.10045261
H       -0.00612113      10.09508055       8.28611044      -0.70094316       0.40955415      -0.37518745       0.20420271      -0.03989862       0.03272380
H        4.64400763      12.63012522       4.26015388       0.74204036      -0.33936446       0.52276517       0.05255473      -0.12071930      -0.08046757
H        2.08971445      11.21677050       8.78404135      -0.09237353       0.68555082       0.37531364      -0.12784212       0.21736835       0.05969090
H        7.28833534      11.36093265       3.30092602       0.33671761       0.08286090       0.37322982       0.16967194      -0.16965585      -0.03244175
H        2.17665346      10.32210063       7.37143008       0.59066117      -0.12126763      -0.18967855       0.07916044       0.02720695       0.06507430
H        6.67143193      12.99332460       2.96488338       0.25959584      -0.10653246       0.11248170      -0.05537668      -0.07909831      -0.02662755
H        2.92350513       9.80589649       8.90266204       0.68475661      -0.35081324      -0.27220312       0.07195284       0.12601687       0.03117735
H        5.89543246      11.63566248       2.39078695      -0.74825851      -0.73438017      -0.33642222       0.02301549       0.07151909      -0.07816753
C        0.83712634       9.56779795       8.70878413      -0.02236809      -0.85230208       2.76740467       0.01381434       0.66921733      -0.02167038
C        5.63102819      12.10492994       4.51500200      -0.81638111      -0.97971343      -1.52548604      -0.16690696      -0.04946782       0.19203054
Pb       3.14073569       7.27234512       4.39917495      -0.16711172      -0.09867341      -0.04580429      -0.65425168       0.65194347       1.43518137
Pb       7.07121194       7.43792690       4.33659346       0.18687174      -0.17062964       0.02626726       0.55051839      -0.07117248      -0.29327785
N        2.11196721      10.26354575       8.41526954      -0.49703952       0.11549527      -0.63445776      -0.15225091      -0.62302000      -0.76609568
N        6.41555763      11.99415167       3.23037487       0.21186096       1.17979129       0.19057655      -0.93638210      -0.00482314      -0.42754715
I       14.56920519       0.65682122       1.88319901      -0.07641465      -0.19143997      -0.25235552      -1.90413707       1.69376101       0.00869365
I        8.98822287       6.01115457       2.09233612      -0.02186021       0.03178562       0.07631210      -0.21532607      -1.59905118      -0.30869166
I       13.55835295       1.42955212       5.93763202      -0.00288762      -0.06793554      -0.08373787      -0.74830411      -1.18239023       0.17546205
I        9.04303480       6.13316952       6.66468145       0.01987353      -0.06941945      -0.25665145       0.31620106       0.61098447      -1.99903368
I       12.91145334       4.76762385       3.51172503       0.04199921      -0.07382464       0.11344330      -0.57711708       0.45275364       0.01418033
I        9.74064390       2.39696082       8.97881545      -0.07049232      -0.28866866       0.00013424      -0.85006851       0.52160119       1.64683341
H        8.33869825       2.33344848       4.18484363       0.00036779      -0.28879319      -0.43427569      -0.01540239      -0.09759646       0.09591044
H       11.98563032       4.61234895      15.52866436       0.42361560       0.08416416      -0.63147398      -0.15473109       0.00106266       0.06582409
H        9.60551697       2.73681690       5.43249943       0.03780273      -0.03148351       0.41585064       0.15516383      -0.00375033       0.02074063
H       13.44839278       5.31554532      16.80218975      -0.04938173      -0.30110551      -0.22177932      -0.17934121       0.03360953       0.09917241
H        9.49527724       3.75114374       3.92609912       0.27993871       0.51362951      -0.30596717       0.14038150       0.06309118       0.12464460
H       12.21832680       3.73952034      17.26888394       0.66604089       0.51769490      -0.02277553      -0.17516535       0.09604280      -0.18722439
H       10.49915709       1.80648916       2.65879674      -0.46018305      -0.26565146       1.63353247       0.12007432      -0.05703265       0.04517077
H       10.37744607       5.51360769      16.94158362      -0.13221152      -0.27604662       0.06541409       0.06297029      -0.07502997       0.11935274
H       10.20559386       0.78328722       4.10396533       0.15438355       0.30110536      -0.42842516       0.09380530       0.10341202      -0.17130733
H       11.51527079       6.75030877      16.76356672       0.60949374       0.93641401      -0.25365542      -0.00887984       0.01767268       0.14813280
H       11.41540864       1.90999137       4.06569243       0.22641719       0.45959544       0.50269286      -0.22172929      -0.06194814       0.32653052
H       11.54999086       5.80486909      18.23448411      -0.41432606      -0.05075481       0.54668194      -0.11233272       0.06065402      -0.12510939
C        9.39089244       2.72341650       4.34684641       0.95384070      -0.75355830       0.04570031      -0.02041121      -0.40324924       0.07941913
C       12.36892267       4.78306667      16.65071197      -0.86977543      -0.85007092       0.20736351       0.54659132       0.28224575      -0.03883276
Pb      11.41982309      14.57945969       8.20444159      -0.13878924       0.18209824       0.03894313       1.53281405      -1.46687790       3.29763941
Pb       7.45789150      14.90340416       8.40515900       0.13417699      -0.10293726      -0.07562296       2.22780168       1.37993523       2.47791426
N       10.44614893       1.76167733       3.75394618      -1.11627740       0.06281609      -1.27382371       0.46345834       0.29834590      -0.09814736
N       11.38692305       5.76992539      17.18111854      -0.43786034      -0.30777883       0.13832505      -0.49724386      -0.36248256       0.55662508
I       13.07301608       8.45249852       6.51171422      -0.02801215      -0.29022499      -0.17284531      -0.76685979       1.88443385       0.49414145
I        9.32429276      13.68934633       5.91098350      -0.04873266       0.14590883       0.04022289       0.61571574       1.91009789      -1.77641718
I       12.78346913       8.81599376       2.03520418      -0.07887972      -0.01700687       0.02177915       0.39920428      -2.01978118      -1.75610015
I       10.17499276      12.89970476       1.53229360      -0.10515053       0.00335496       0.24309769       0.77558403      -1.40536990      -2.52389489
I       12.17704685      12.00558546      16.62602028       0.22886969       0.26868707      -0.13469114      -0.58166089       1.70922945      -1.56201764
I        8.99595236       9.97532923       4.44595559       0.23143335      -0.14315673      -0.00481265       0.59807530      -1.04001306       0.26141911
H        9.56772305       9.11594927       9.87023253       0.25431804       0.03630241       0.25937805       0.17606265      -0.17004006      -0.03223901
H       12.31162427      12.89627546       3.86880512       0.29571109       0.10140792       0.12027623       0.03466040       0.02607873       0.01642827
H        8.01062305       9.78642734       9.02546214       0.12860461      -0.17255125      -0.27214869       0.03270204       0.08638201      -0.25662812
H       12.73620282      11.06322907       4.39280556       0.29715677       0.86834321      -0.11381376       0.00588223       0.08285212      -0.01045027
H        9.02742526       8.33871785       8.30805928      -0.06122654      -0.27799301      -0.30972748      -0.03253539       0.14563599       0.04651943
H       13.83149781      12.60564336       5.04456546       0.04105166       0.11641615       0.39924541       0.11140724       0.03716075      -0.07801502
H       10.04222253      11.21516860       8.27839329      -0.27909384      -0.41517260       0.18984629       0.02934156       0.02464472      -0.10719692
H       13.64290474      11.68296784       2.19668426       0.05208020      -0.12758067      -0.06678715      -0.01374982      -0.06097137      -0.05104999
H        9.50884246      10.26261181       6.91371818       0.11052970       0.15549069       0.07456297      -0.15321761       0.01165542       0.08072085
H       15.02758278      11.53724029       3.20319262      -0.35775225      -0.05619019       0.21247254       0.20086383      -0.06191849      -0.09327636
H       10.97391632       9.88070798       7.78304274       0.75373894      -0.37920828       0.31551266       0.00370900       0.08823155       0.05325004
H       14.41952447      13.09539267       2.73145364      -0.10015771      -0.81935001       0.32978730       0.02500242      -0.12259895      -0.08401055
C        9.08840247       9.29133109       8.83431742      -0.49749031       0.71692913       0.58811313       0.18042042       0.19105320       0.48976302
C       13.20740867      12.18454013       4.18232879      -0.77516153      -1.18017536       0.09852858      -0.01558124       0.62592919      -0.51333553
Pb      11.01924259       7.13515583       4.25312754      -0.12192590       0.28766923       0.12149788      -1.31811521       1.45956791      -1.09438666
Pb      14.99379967       7.30010852       3.90130378      -0.17660909      -0.03237324       0.10252263      -3.51182234      -2.21800775      -1.36600525
N        9.95232764      10.22614614       7.93618773      -0.54494696       0.39036872      -0.94242408      -0.04121963      -0.08689019       0.31676017
N       14.13270486      12.09272786       3.04264749       0.53388907       1.26029481      -1.16090258      -0.24252619      -0.09212669       0.27202593
I        5.87907011       0.53713387      10.83355709      -0.07100442       0.03287935      -0.18459245      -0.58926284      -0.86410211      -1.69131004
I        0.22899658       6.34526657      10.70677733      -0.01169177      -0.04005008       0.01516352      -0.71686088       0.29508804       2.32047754
I        4.93778930       1.48321867      14.68564769       0.12667984      -0.21987781       0.42272007       1.55875103       1.28415473      -0.37931959
I        0.62676935       5.86787494      15.18022081      -0.01002439       0.15359959      -0.17560664      -0.85959922      -0.70937997      -0.68425403
I        4.31121058       4.76208508      12.05577616       0.31455426       0.04548355       0.26431883       4.57944424      -0.69947788      -0.47435368
I        2.55463103       2.68699929       0.61152997      -0.01723502      -0.39473608      -0.18306592       0.50755013       2.53965470      -0.09212436
H        1.90413288       3.53381235      13.27030611      -0.32297733       0.01338871       0.04353505       0.17901720      -0.08572210       0.01635458
H        5.41164081       4.36790411       7.50447865       0.02837615      -0.00343903       0.11196830       0.04350508      -0.03946887      -0.07895515
H        0.36423910       2.55809455      13.04189012      -0.62728280       0.14713201      -0.14513643      -0.10739538       0.08451889       0.05506220
H        6.18254311       5.25475699       9.21283635       0.61551224      -0.40354023       0.28335158      -0.07815066       0.32023246      -0.07963812
H        1.50165977       2.18966874      14.40816318      -0.03595915      -0.01339536       0.77387160      -0.06717748      -0.01980300      -0.09150680
H        5.18436844       3.47186663       9.10893413       0.54576384       0.73819004       0.12765611      -0.08984931       0.05423582      -0.07952057
H        2.04757087       1.74054050      11.48117705      -0.19311530      -0.06674829      -0.86219672       0.22162569      -0.11456620       0.06490302
H        4.03536685       6.53415852       8.34611572       0.10766846       0.23800910       0.10775432      -0.08429283       0.06590953       0.02115151
H        1.87511515       0.61175873      12.79280189      -0.66705612      -0.77307786      -0.46529553      -0.05138033      -0.12280049      -0.23868942
H        3.67292138       5.70086942       9.84876952       0.22449714      -0.16217544       0.22323021      -0.13671577       0.14921354      -0.11337512
H        3.15278587       1.56684548      12.76807564      -0.28433627       0.20476982      -0.37798003       0.04826419       0.03755723       0.04874637
H        3.02493925       5.13432531       8.18402845       0.38812137      -0.17135711       0.02143762       0.07738072      -0.05118606      -0.02057394
C        1.39681454       2.54404456      13.37627588       0.71229746       0.02998787      -0.94505905       0.57422056       0.48728893      -0.01873875
C        5.29117759       4.56900570       8.66177828      -1.37492076      -0.36727815      -0.61680468       0.05331682       0.56329533      -0.65804815
Pb       4.15682568      14.80975113       0.22028266       0.10096489      -0.31322511      -0.28218686       0.82720885       1.31773114      -0.71359956
Pb       0.19536964      14.73184793       0.01902591      -0.29699866       0.22228618       0.23841662      -1.52631207       2.64699607       1.50947950
N        2.13265260       1.55067365      12.48519708       1.25095997       0.33969697       2.08510975       0.06905444       0.23834556       0.60947463
N        3.91549653       5.53080590       8.77745480      -0.60263062       0.19002230      -0.44726576       0.32959156      -0.58472434       0.19065528
I        4.40629380       8.27278373      15.15907250       0.09248597       0.09013625       0.07711272      -1.51026099       1.34437970       1.50309342
I        0.64934727      13.92500703      14.85737917       0.19461040      -0.19536538      -0.02760635      -0.61623202      -3.40778569       1.13398042
I        4.26722968       8.84279162      10.77608104       0.19406246       0.21045098      -0.12167021      -2.23482294       0.66870351      -1.11234473
I        1.64389001      13.14622476      10.47080681       0.00574335       0.05781581       0.11504706      -0.79018571       1.83894887       0.56633586
I        5.42000801      12.31668316       8.40031382       0.20292183      -0.00019451      -0.14158149      -1.52227185      -0.24948934       0.23198453
I        0.72796234       9.92528188      13.29773583      -0.22113683       0.16283299      -0.00183732       0.14859752       0.16745982      -0.71505371
H        1.36259672       8.74697337      -0.42411079      -0.33709370       0.32186158       0.50487201       0.00380707      -0.00664232      -0.03303222
H        4.43710523      11.19090481      13.60379462      -0.08675296       0.34658982      -0.20689922      -0.10867441      -0.20212681       0.13429321
H        1.65740156       9.25026465       1.39109665       0.06511762       0.03938792       0.33447335      -0.01146563      -0.13337260      -0.06991656
H        4.78500911      12.94820120      13.91626342       0.05564988      -0.33889655      -0.13214956      -0.10968870      -0.11522371       0.18434234
H        0.44541374      10.24610261       0.34350638      -0.18086892      -0.11135324       0.07013707       0.06046205      -0.18647774       0.08626353
H        3.65257738      12.55373582      12.55468909       0.14010495      -0.42284463       0.05132349       0.18762675       0.10282903      -0.00592773
H        2.43276669      11.48280532       0.20284626       0.14363707      -0.60011896       0.12246089      -0.13923598       0.08082962       0.16346041
H        6.65766527      11.81461083      12.57770630      -0.38491300       0.09568146       0.07847231      -0.04409178      -0.16834586      -0.10131441
H        2.37705309      10.61374630      -1.23794244      -0.05843182      -0.17829667      -0.05876331       0.16396131       0.17537474      -0.02674769
H        5.91523941      13.13232129      11.74474329      -0.35721796      -1.18409027      -0.06522912      -0.03627446      -0.14019677      -0.03969515
H        3.37440972      10.07540886      -0.01658605       0.28506789       0.21781707       0.04740509      -0.08725013      -0.00219624       0.04446730
H        5.52570728      11.43471120      11.37182341       0.18539322       0.70029407      -0.05530177      -0.05081936      -0.11044440       0.06857063
C        1.38836801       9.62901769       0.34695982       0.02203520      -0.58063451      -1.10385239      -0.34276901      -0.34664086      -0.32913452
C        4.57293121      12.18556248      13.12008566      -0.13630984       0.53876148       0.59202242      -0.46815118       0.14911754       0.75104307
Pb       2.48541197       7.18296371      12.83354401      -0.35003156      -0.01964764       0.24438073      -0.76848089       3.38564408      -2.75173050
Pb       6.45617745       7.33799910      12.79579383      -0.17590724      -0.11363349       0.01909967      -1.42152746       0.71963530       0.66006570
N        2.46141530      10.50674347      -0.20439633       0.17954526       0.66887839       0.01214803      -0.58560817      -0.04629221      -0.72527217
N        5.73768229      12.14653536      12.13639082       0.51735512       0.35861287      -0.50334599      -0.65221687      -0.36788747      -0.08880758
I       13.75466327       0.88647528      10.32600118      -0.09328392      -0.02538526       0.16806913      -0.66632203      -0.86441669       2.32273760
I        8.34336265       5.99239630      10.63298302       0.00417421       0.01970786      -0.11652141       0.88379970      -1.52200325      -0.76117933
I       12.81757750       1.50108064      14.43006389      -0.00345189      -0.09591592       0.04698232       2.09703290       2.37584856      -0.07803034
I        8.26166263       5.86278464      14.94418572       0.12065499       0.07122043       0.11342675       0.02044481      -0.21029741       0.91232870
I       12.37844731       4.71736623      11.98633064      -0.19503383      -0.08080448       0.19874978       0.53562042      -0.09045251       1.94619054
I       10.43192056       2.48912733       0.21315291      -0.05601090      -0.01473584      -0.01434484      -2.61654834      -2.17529756      -0.95816748
H        7.72764658       2.71583821      12.70491687      -0.39579927       0.08174223      -0.19835449      -0.12940993       0.14001351       0.05676994
H       12.68438192       4.78545712       6.80228768      -0.19004487      -0.22754098      -0.30277548      -0.08186364      -0.06401282      -0.03724882
H        8.75611027       2.79557056      14.14411713       0.08614572       0.54110893       0.09117322       0.17210065      -0.06960048      -0.14890949
H       13.69648756       4.29166336       8.20204991      -0.69040540      -0.34123120      -0.15855452       0.02772875      -0.16177596      -0.13878080
H        9.28291697       3.68966902      12.51812743      -0.38821847      -0.54781624       0.61212838      -0.05819885      -0.12391594      -0.04760865
H       12.00164475       3.48539109       7.94509398       0.22047207       1.20929743       0.00000200       0.09812145      -0.15821037      -0.00433082
H        9.58886441       1.32477324      11.53718082      -0.23873645       0.60746089       0.74421490       0.24822353       0.14739656      -0.13770162
H       11.05618921       5.77180715       8.49604582      -0.68413064      -0.04055406      -0.51196018       0.12789379      -0.01728346       0.03183743
H        9.05983557       0.62846672      13.04523199       0.35057555       0.65947831       0.33729269       0.04409110      -0.05310280      -0.11355763
H       12.60110085       6.54532746       8.24842047      -0.21997628      -0.54242944       0.22216854       0.09074272       0.18688956      -0.05883527
H       10.49305436       1.60778312      12.97692403      -0.55824631      -0.33219792      -0.10763078      -0.40520363       0.03664024       0.09065834
H       12.25645035       5.56207496       9.66854346       0.04956108       0.20466786      -0.12756581      -0.02327209      -0.15524522       0.10469047
C        8.75386180       2.80196889      13.04292387       0.43911409       0.10464619      -0.58130637       0.43207330      -0.64571919      -0.84429731
C       12.61824265       4.44807946       7.84767982       1.37504163      -0.50447751       0.03534739       0.08489516      -0.37264978       0.54868000
Pb      11.90852338      14.68919802      -0.34732312       0.08497480      -0.04293996      -0.18113278       0.66988345       1.94477200      -1.37709678
Pb       7.91507663      14.61730648      -0.08155097       0.36793453      -0.07066289      -0.19696941      -2.68365697      -2.01795521      -0.71483000
N        9.49731124       1.53282090      12.63106739       0.82921757      -1.08817438      -1.16284473       0.01962290       0.14927137       0.25546374
N       12.10087497       5.65188497       8.61081311       0.32134491       0.36492428       0.77412239       0.20800745      -0.18121063       0.13875355
I       12.30539881       8.26364736      15.06373154       0.04282823      -0.04282526      -0.17502407      -0.43923073       1.01473996       0.62614945
I        8.36259113      13.75720811      14.50638496      -0.09903640      -0.01866315       0.00384994       0.05662274       1.08218273      -1.43962648
I       12.35948336       8.65768788      10.75090836      -0.19752716       0.28466374      -0.30787707       1.02188583      -1.51980280       2.00323947
I        9.51528295      13.03096605      10.22335711      -0.17619952      -0.01740701       0.17779151      -1.26046417      -1.88840090       2.43364196
I       13.09728514      11.87747414       7.77209158       0.19403415       0.20967681       0.37786439       1.19922249       0.10334249       0.79200996
I        8.46303134       9.93198970      12.91535362      -0.05100217      -0.24108144       0.00350840       1.98536313       0.08749502       0.66234298
H        9.52317797       9.28947540       1.22378532      -0.52968236       0.07612669       0.19312184       0.04774658       0.14866292       0.00088708
H       11.76150292      12.27459042      12.44106834      -0.10506548       0.15527486      -0.20344990       0.06606489      -0.04880916      -0.05856462
H        8.27282469       9.92160093      -0.04001808       1.03957788      -0.58212170       0.48714558       0.21841828      -0.01226726       0.13919682
H       12.60640633      10.58449134      12.54307053       0.35529844      -0.11208108       0.17115896       0.20884420       0.09760154       0.11629650
H        9.02453368       8.25572562      -0.14503135      -0.11253066      -0.95037396      -0.59694730       0.03985127      -0.04093378      -0.02147603
H       13.16481024      12.13591008      13.63209814       0.34160634       0.44981111       0.96768078       0.12013526       0.02851710      -0.08355348
H       10.60535177      10.78869406      -0.20961897      -0.07578429       0.24408461       0.31739109       0.06360145      -0.11034379      -0.02866147
H       13.40677810      12.13503793      10.34483032      -0.44105098       0.05665300       0.16013981       0.07885456      -0.08426189       0.01689705
H       10.25057634       9.98074536      -1.57995779       0.27978076      -0.71149724      -0.59397590      -0.17393300      -0.06268791      -0.03609111
H       14.60987461      11.87270147      11.53278801      -0.15873281       0.47746167       0.18676810       0.19014598       0.08477928      -0.05170688
H       11.22859280       9.26344782      -0.29204661       0.21805164      -0.03193619      -0.66020018       0.02417815       0.16266280      -0.03188962
H       13.71891365      13.50440358      11.51759792       0.41538839       0.01967829      -0.05214545       0.05824883       0.06948440       0.11277290
C        9.19159471       9.27743627       0.15966870      -0.62675924       1.30182565       0.03132072      -0.10578024       0.43993240       0.28679163
C       12.74892035      11.78787712      12.61469477      -0.57463143      -0.42956942      -0.88525852       0.35434997       0.43227166       0.34907618
Pb      10.32191208       7.13912182      12.72473973       0.16954891       0.02215430       0.16956687      -0.70696583       0.94034142      -0.48246298
Pb      14.26403636       7.23324154      12.45613097       0.15633467      -0.11059346       0.14371333      -3.51621765       0.44163618       1.18934169