768
Lattice="38.36233378009021 -0.17091669423460434 -0.23415642229604455 0.13860846621712591 21.550492846406996 -0.023849043928523623 -0.012701609790407587 0.03213069133637567 18.81004073834508" Properties=species:S:1:pos:R:3:forces:R:3:momenta:R:3 pbc="T T T"
I       17.57191683       5.51242597       3.21073679      -0.11475029       0.05893949       0.03349837      -0.30638106      -0.63530509       0.37792043
I       17.55370556       8.94709244       0.91934493      -0.13358208       0.20816863       0.21987196       1.31125939      -0.06306789      -3.98623660
I        7.77573880      10.85469386       2.99897997      -0.07893454       0.05121030       0.40803714       1.32003178      -0.24015009       0.21174128
I        7.98244691       3.60509154       0.87124852       0.14938657       0.15682500      -0.25901833       2.04061181      -0.30014972      -1.13097566
I       15.45169721       2.37980778       0.98837903      -0.14836121      -0.04854821       0.15024071      -0.09007104       0.52361806       0.22853295
I        0.31552324      12.34604166       3.42382486      -0.05568551      -0.10825306       0.00168595       3.44030621       1.12464408       2.23624642
I        9.66040321       7.74967988       0.89762593       0.11032731      -0.10794991      -0.15363991      -0.88710140       0.37224347      -1.04963713
I        5.80212224       6.82948989       3.01864081       0.10915019      -0.19218149       0.38105386       0.25353066       0.80584903       1.08828900
I        2.12891640       4.75364951       0.90705796       0.18164692       0.27804161      -0.07087645       1.89393802       1.21348068      -1.82610104
I       13.55834052       9.69934829       3.17749644      -0.08101123       0.05993992      -0.07072268      -0.34877628       0.87631005       1.11405322
I        3.75623421      10.26758704       1.00193040      -0.41803209       0.05917323      -0.12787290      -0.15280764      -1.01101102       1.28408946
I       12.07514461       4.39592711       3.01342982      -0.11766354      -0.15543395       0.05324045      -1.73343050       1.33634751      -1.42951269
H        4.70258265       3.86883216       2.12626290       0.30459654       0.23158002      -0.10383261      -0.07593796       0.13549219       0.19246610
H       10.87745589      10.76028221       1.60638628      -0.23196223      -0.71832676       0.33247672      -0.03666570      -0.04719029      -0.02704440
H        1.34439225       9.10452086       4.53091781      -0.06802147      -0.29780968      -0.34504520       0.01688226      -0.18738738      -0.08547165
H       14.57881188       5.46814855       0.11321348       0.38119395       0.23299663       0.47054995       0.11336034      -0.26861811       0.04798959
H        5.75992711       2.99640083       3.39203604      -0.17148909       0.07868318      -0.85753108       0.00245366      -0.16202529       0.13577486
H       10.73475383      12.57607031       2.13930139      -0.40390393       0.21109480       0.31442311      -0.19382416      -0.06335715       0.00937491
H        0.35223189       8.72749661       3.00524625      -0.97805716       0.33810469      -0.26143577       0.00232753      -0.04540135       0.24906315
H       15.18838635       7.19653461      -0.00481524      -0.23340605      -0.29163798      -0.03882157       0.02963375      -0.02634141       0.01923784
H        5.32581155       2.16315125       1.81383184      -0.20234341       0.20501827       0.25848285      -0.24092040      -0.16139795       0.08869880
H        9.98304882      12.04530763       0.49293542      -0.63365400      -0.46577531      -0.58951855      -0.00711255       0.00352739       0.10929343
H        0.47723228       7.48634653       4.31654578      -0.04702410      -0.33672927       0.07919214      -0.01469650      -0.01399089      -0.14558740
H       15.14170417       6.51192988       1.68759375      -0.63275220      -0.49885653      -1.16569536       0.07420692       0.19313163      -0.01378032
H        3.90757964       1.58809213       3.90513144       0.00569374       0.11094157      -0.24077188      -0.10163978       0.01621370      -0.10763125
H       12.14132233      12.97517934       0.13946204      -0.06796847       0.61979567       0.07660237      -0.23948049      -0.19806329       0.31035109
H        2.65429994       8.43001998       2.38101457      -0.37251045      -0.12181059       0.18390257      -0.22129481       0.24728721       0.13104124
H       12.78366086       7.33798955      18.66057998       0.00183399      -0.26097951       0.49694305      -0.02086509      -0.07513591      -0.09248098
H        2.96454187       2.24112941       2.69277756      -0.78913084      -0.23102114      -0.83261737      -0.02584116       0.10959927      -0.11826315
H       12.42537643      11.38168262      -0.03580002       0.47314738      -0.74360658      -0.09753685       0.08093346       0.18377682       0.01256650
H        1.88929487       6.87170363       2.42339039       0.08615689       0.39155390       0.09547851      -0.00324409       0.22127286      -0.17933604
H       13.27108391       7.88737968       1.36689347      -0.24654807      -0.26611864       0.32264413       0.03028614       0.03394784       0.08145970
H        3.45034054       3.22557737       3.97206735      -0.05380586      -0.57306619      -0.42232843      -0.15182217      -0.14801838      -0.03347118
H       12.90168038      12.15491853       1.38298127       0.54840382       0.07583502       0.29946650       0.15400391      -0.20641772       0.03251851
H        2.96215876       7.36395980       3.63691341      -0.16128240       0.04100953      -0.06850200      -0.05167021       0.18130582       0.07379284
H       12.60143948       6.27774284       1.26943930      -0.34418971       0.00938277       0.41872205       0.15657089       0.00351995       0.06129156
C        4.98843600       2.90450402       2.57520631       0.25358140      -0.50407728       0.94183293      -0.33827263      -0.36849106      -0.16314248
C       10.81545359      11.81686604       1.26823974       0.71312024       0.70171387       0.24169249       0.73996858       0.39534269       0.21065880
C        0.96686404       8.30775310       3.80217542       1.89372603       0.30544828      -0.35155788       0.42329389       0.04540901       0.15486561
C       14.63032876       6.46288869       0.61552900       0.63599990       0.39619171       0.80646460       0.06999496       0.34966428      -0.23086067
Pb      37.64819712       3.50203310       0.71180855       0.01157828      -0.29039641       0.25281174      -0.05266708      -0.23518841      -0.68330388
Pb      16.51448486      10.90969686       3.33089074       0.02847477       0.07033228       0.07493736       0.00773211       1.36969882      -1.81409844
Pb       6.51206217       8.94734484       0.82940867       0.23743221      -0.07595094      -0.07404406       0.23884008      -1.37125250       0.98159188
Pb       9.00370945       5.47007039       3.11498521      -0.19944647       0.06137951      -0.06905214       1.35209248      -2.09088968       0.83680394
N        3.75117584       2.43711822       3.30142001       0.64803503       0.57037292       1.48104488      -0.15605702       0.48044096      -0.90834179
N       12.15767934      12.09432836       0.67529122      -0.43981906       0.23946325      -0.74405246       0.39411348      -0.04629890       0.18352374
N        2.18429445       7.72126756       3.00699402      -0.18099420      -0.23796245       0.73147958       0.47378685      -0.14624346       0.12470419
N       13.20920547       7.00202763       0.81467034       0.27897727       0.66002070      -1.28135572       0.35398553      -0.28063553      -0.16745888
I       17.43671653       5.36251563       8.03449418      -0.02872040       0.39329971      -0.21530449       1.28574410       0.51792707      -0.46468298
I       17.26185734       9.12970818       5.80205383       0.01109361      -0.18081482      -0.21803771       0.39236863       2.51798810       0.61745345
I        7.51372526      10.87992157       8.01761009       0.17299268       0.07593480      -0.44368081       2.01388108      -0.46317855      -1.02817596
I        7.83385729       3.63784217       5.51076110       0.08412208      -0.01546632       0.05246775      -0.57587935      -0.70918736      -0.65731621
I       15.43471877       2.36354643       5.82076859       0.15335006      -0.10886897      -0.27707946       1.44175993      -0.55221673       0.07973700
I        0.39944619      12.27813099       7.95705134      -0.19829794       0.01750492       0.12352445      -2.07036556       1.17048261       1.23399121
I        9.70409402       7.71894886       5.50899466       0.18474564       0.05252429       0.04382396       0.48508509      -0.07115552       0.89022863
I        5.73929464       6.86800879       7.93775092       0.09329681      -0.09617627      -0.30502447      -1.96510572       0.24829649       1.07344122
I        2.28191609       4.96814530       5.38231859       0.14337473      -0.07722291       0.21462651      -0.79476553      -0.15317059       0.69025006
I       13.56970860       9.62658764       7.72676695      -0.18779256       0.20607582       0.13856006       0.83687664      -0.39601804       1.03080882
I        3.77559595      10.37112635       5.55384493       0.06616375      -0.01001061       0.07463446      -2.13712008       1.33345591      -1.15272200
I       11.80056080       4.36968678       7.89652919       0.15411948      -0.15945974       0.04415188      -0.97375417      -0.31435805       0.78172810
H        5.24106054       2.04811335       8.99789030       0.12424577       0.00797255      -0.33469071      -0.03151788       0.04602506       0.04214302
H       10.40588175      10.90407755       6.38062817       0.22238558       0.54926278      -0.61144210       0.12628752       0.11587598       0.08697573
H        0.99530114       9.23687216       7.28645094       0.12900753       0.08989661      -0.63819988       0.11284447       0.08281730       0.00287919
H       14.25467027       5.46611284       6.58633719      -0.03637216       0.00980532      -0.09801988      -0.06491271       0.03943823       0.01592146
H        5.59550649       3.37905796       7.72886742      -0.59367679      -0.25633508       0.48693812       0.06400166       0.10583833      -0.13913007
H       10.04039638      12.25797000       4.93326553      -0.23648962      -0.21044572       0.52701207       0.09045987       0.00867884       0.16997080
H        0.89923438       7.31161051       6.50553715       0.09827714       0.66496207      -0.03767452      -0.07828903      -0.21059402       0.17756010
H       15.33824762       6.32631370       5.41653774       0.42104054      -0.25451230      -0.84656270      -0.00591965      -0.19578842       0.00809383
H        4.58542574       3.66701496       9.28207689      -0.04022689       0.87377745       0.10025215      -0.15593361       0.05088445       0.07558506
H       11.19109673      10.73928432       4.65090182      -0.32954434       0.29531173       0.16258726       0.15690007      -0.00683063       0.20905754
H       38.24887773       7.66131534       7.90505374       0.46126287      -0.16251724       0.32589183      -0.30922578      -0.08716788       0.12650178
H       14.71537905       7.16734617       6.83074297       0.16361429       0.93547874       0.59110312      -0.08447333      -0.04321797       0.19132791
H        3.26798576       3.25753213       7.11715733      -0.48090748      -0.03897022       0.40072169      -0.04814738      -0.01304463       0.00029615
H       11.91035666      13.13387534       6.32022101       0.47672100      -0.25280438      -0.29727278      -0.08224898      -0.00605493      -0.06341615
H        2.43704083       8.52297769       8.93182962       0.02946037      -0.22148615      -0.00349429      -0.32193103      -0.21308873       0.02492293
H       13.42762677       7.72278692       4.80599655      -0.13746769       0.18742818      -0.07491876       0.12655286      -0.08016457      -0.09707072
H        2.83392064       2.35400659       8.56320687       0.27445759       0.30629774      -1.10399057       0.00074369      -0.02919318      -0.15040171
H       12.56586104      12.64004202       4.74415623      -0.37995726       0.46898813       0.64110898       0.07491160      -0.00636959       0.08145449
H        3.09465417       7.69502747       7.58768967      -0.52504279       0.06070803       0.29480859       0.13666683       0.16070036       0.09905793
H       12.29155845       6.88763853       5.84187597       0.52983855      -0.09908569      -0.18068065      -0.05513521       0.02751150      -0.05835895
H        3.65853276       1.66652480       7.26670517       0.19972721      -0.89821235      -0.34942332      -0.19131457       0.00216099       0.01628085
H       12.82878902      11.64600920       6.06252782       0.69558093      -1.02263274       1.42022262       0.02527210       0.09582177       0.05807459
H        2.11177880       6.83616934       8.72828553       0.15664887       0.19495273      -0.23562435      -0.03478872      -0.11188721       0.05197050
H       13.02730833       6.07567718       4.47437505       0.14584567       0.32100457       0.33150150       0.17288514      -0.04864958       0.10368044
C        4.84002028       2.94023195       8.47796860       0.71663799      -0.77020914      -0.17375886       0.87292956       0.08485407      -0.17162587
C       10.80791166      11.52476743       5.40505257       0.23949913      -0.62782982      -0.33355991       0.08913572      -0.45028029      -0.16874520
C        0.91593867       8.07205016       7.47219532      -0.11434178      -0.93877370      -0.04594319       0.22681994      -0.04450155      -0.01697109
C       14.46853523       6.42208869       6.08530916      -0.92145688      -0.73665127       0.30929938       0.05350223       0.60327903       0.54361270
Pb      37.67061579       3.57288436       5.46017568       0.06770223      -0.19539315      -0.10556422      -0.29772910      -0.75928847       1.05193890
Pb      16.47575072      11.03828009       8.18805589      -0.06483267      -0.05403943      -0.21774729       1.31831466       0.94247681       0.99500322
Pb       6.69884628       9.05027332       5.42098550      -0.18467508       0.15385236       0.12925850       0.91626440       0.02966731       0.84357738
Pb       8.94190306       5.57652363       7.78022582      -0.42137759      -0.05181605       0.34374636       0.76099390      -0.46086801       0.52669706
N        3.56635188       2.51617274       7.81369420      -0.06212620       0.78790180       0.71977290      -0.29465691       0.45997096       0.07579717
N       12.12012711      12.30855429       5.67978206      -0.74429959       0.88464766      -1.50357100       0.42946708      -0.05744432      -0.20778705
N        2.20650269       7.75083862       8.21500291       0.07173533       0.40143718       0.34241794      -0.13326448      -0.15944886      -0.39536721
N       13.23543950       6.80952285       5.27683482      -0.04547450      -0.39601599      -0.06811294      -0.18694169      -0.10359648      -0.13907331
I       17.56556603       5.52849132      12.61575716      -0.11475029       0.05893949       0.03349837      -0.30638106      -0.63530509       0.37792043
I       17.54735476       8.96315779      10.32436530      -0.13358208       0.20816863       0.21987196       1.31125939      -0.06306789      -3.98623660
I        7.76938800      10.87075921      12.40400034      -0.07893454       0.05121030       0.40803714       1.32003178      -0.24015009       0.21174128
I        7.97609611       3.62115689      10.27626889       0.14938657       0.15682500      -0.25901833       2.04061181      -0.30014972      -1.13097566
I       15.44534641       2.39587313      10.39339940      -0.14836121      -0.04854821       0.15024071      -0.09007104       0.52361806       0.22853295
I        0.30917244      12.36210701      12.82884523      -0.05568551      -0.10825306       0.00168595       3.44030621       1.12464408       2.23624642
I        9.65405241       7.76574523      10.30264630       0.11032731      -0.10794991      -0.15363991      -0.88710140       0.37224347      -1.04963713
I        5.79577144       6.84555524      12.42366118       0.10915019      -0.19218149       0.38105386       0.25353066       0.80584903       1.08828900
I        2.12256560       4.76971486      10.31207833       0.18164692       0.27804161      -0.07087645       1.89393802       1.21348068      -1.82610104
I       13.55198972       9.71541364      12.58251681      -0.08101123       0.05993992      -0.07072268      -0.34877628       0.87631005       1.11405322
I        3.74988341      10.28365239      10.40695077      -0.41803209       0.05917323      -0.12787290      -0.15280764      -1.01101102       1.28408946
I       12.06879381       4.41199246      12.41845019      -0.11766354      -0.15543395       0.05324045      -1.73343050       1.33634751      -1.42951269
H        4.69623185       3.88489751      11.53128327       0.30459654       0.23158002      -0.10383261      -0.07593796       0.13549219       0.19246610
H       10.87110509      10.77634756      11.01140665      -0.23196223      -0.71832676       0.33247672      -0.03666570      -0.04719029      -0.02704440
H        1.33804145       9.12058621      13.93593818      -0.06802147      -0.29780968      -0.34504520       0.01688226      -0.18738738      -0.08547165
H       14.57246108       5.48421390       9.51823385       0.38119395       0.23299663       0.47054995       0.11336034      -0.26861811       0.04798959
H        5.75357631       3.01246618      12.79705641      -0.17148909       0.07868318      -0.85753108       0.00245366      -0.16202529       0.13577486
H       10.72840303      12.59213566      11.54432176      -0.40390393       0.21109480       0.31442311      -0.19382416      -0.06335715       0.00937491
H        0.34588109       8.74356196      12.41026662      -0.97805716       0.33810469      -0.26143577       0.00232753      -0.04540135       0.24906315
H       15.18203555       7.21259996       9.40020513      -0.23340605      -0.29163798      -0.03882157       0.02963375      -0.02634141       0.01923784
H        5.31946075       2.17921660      11.21885221      -0.20234341       0.20501827       0.25848285      -0.24092040      -0.16139795       0.08869880
H        9.97669802      12.06137298       9.89795579      -0.63365400      -0.46577531      -0.58951855      -0.00711255       0.00352739       0.10929343
H        0.47088148       7.50241188      13.72156615      -0.04702410      -0.33672927       0.07919214      -0.01469650      -0.01399089      -0.14558740
H       15.13535337       6.52799523      11.09261412      -0.63275220      -0.49885653      -1.16569536       0.07420692       0.19313163      -0.01378032
H        3.90122884       1.60415748      13.31015181       0.00569374       0.11094157      -0.24077188      -0.10163978       0.01621370      -0.10763125
H       12.13497153      12.99124469       9.54448241      -0.06796847       0.61979567       0.07660237      -0.23948049      -0.19806329       0.31035109
H        2.64794914       8.44608533      11.78603494      -0.37251045      -0.12181059       0.18390257      -0.22129481       0.24728721       0.13104124
H       12.79001167       7.32192421       9.25555961       0.00183399      -0.26097951       0.49694305      -0.02086509      -0.07513591      -0.09248098
H        2.95819107       2.25719476      12.09779793      -0.78913084      -0.23102114      -0.83261737      -0.02584116       0.10959927      -0.11826315
H       12.41902563      11.39774797       9.36922035       0.47314738      -0.74360658      -0.09753685       0.08093346       0.18377682       0.01256650
H        1.88294407       6.88776898      11.82841076       0.08615689       0.39155390       0.09547851      -0.00324409       0.22127286      -0.17933604
H       13.26473311       7.90344503      10.77191384      -0.24654807      -0.26611864       0.32264413       0.03028614       0.03394784       0.08145970
H        3.44398974       3.24164272      13.37708772      -0.05380586      -0.57306619      -0.42232843      -0.15182217      -0.14801838      -0.03347118
H       12.89532958      12.17098388      10.78800164       0.54840382       0.07583502       0.29946650       0.15400391      -0.20641772       0.03251851
H        2.95580796       7.38002515      13.04193378      -0.16128240       0.04100953      -0.06850200      -0.05167021       0.18130582       0.07379284
H       12.59508868       6.29380819      10.67445967      -0.34418971       0.00938277       0.41872205       0.15657089       0.00351995       0.06129156
C        4.98208520       2.92056937      11.98022668       0.25358140      -0.50407728       0.94183293      -0.33827263      -0.36849106      -0.16314248
C       10.80910279      11.83293139      10.67326011       0.71312024       0.70171387       0.24169249       0.73996858       0.39534269       0.21065880
C        0.96051324       8.32381845      13.20719579       1.89372603       0.30544828      -0.35155788       0.42329389       0.04540901       0.15486561
C       14.62397796       6.47895404      10.02054937       0.63599990       0.39619171       0.80646460       0.06999496       0.34966428      -0.23086067
Pb      37.64184632       3.51809844      10.11682892       0.01157828      -0.29039641       0.25281174      -0.05266708      -0.23518841      -0.68330388
Pb      16.50813406      10.92576221      12.73591111       0.02847477       0.07033228       0.07493736       0.00773211       1.36969882      -1.81409844
Pb       6.50571137       8.96341019      10.23442904       0.23743221      -0.07595094      -0.07404406       0.23884008      -1.37125250       0.98159188
Pb       8.99735865       5.48613574      12.52000558      -0.19944647       0.06137951      -0.06905214       1.35209248      -2.09088968       0.83680394
N        3.74482504       2.45318357      12.70644038       0.64803503       0.57037292       1.48104488      -0.15605702       0.48044096      -0.90834179
N       12.15132854      12.11039371      10.08031159      -0.43981906       0.23946325      -0.74405246       0.39411348      -0.04629890       0.18352374
N        2.17794365       7.73733291      12.41201439      -0.18099420      -0.23796245       0.73147958       0.47378685      -0.14624346       0.12470419
N       13.20285467       7.01809298      10.21969071       0.27897727       0.66002070      -1.28135572       0.35398553      -0.28063553      -0.16745888
I       17.43036573       5.37858098      17.43951455      -0.02872040       0.39329971      -0.21530449       1.28574410       0.51792707      -0.46468298
I       17.25550654       9.14577353      15.20707420       0.01109361      -0.18081482      -0.21803771       0.39236863       2.51798810       0.61745345
I        7.50737446      10.89598692      17.42263046       0.17299268       0.07593480      -0.44368081       2.01388108      -0.46317855      -1.02817596
I        7.82750649       3.65390752      14.91578147       0.08412208      -0.01546632       0.05246775      -0.57587935      -0.70918736      -0.65731621
I       15.42836797       2.37961178      15.22578896       0.15335006      -0.10886897      -0.27707946       1.44175993      -0.55221673       0.07973700
I        0.39309539      12.29419634      17.36207171      -0.19829794       0.01750492       0.12352445      -2.07036556       1.17048261       1.23399121
I        9.69774322       7.73501421      14.91401503       0.18474564       0.05252429       0.04382396       0.48508509      -0.07115552       0.89022863
I        5.73294384       6.88407414      17.34277129       0.09329681      -0.09617627      -0.30502447      -1.96510572       0.24829649       1.07344122
I        2.27556529       4.98421065      14.78733896       0.14337473      -0.07722291       0.21462651      -0.79476553      -0.15317059       0.69025006
I       13.56335780       9.64265299      17.13178732      -0.18779256       0.20607582       0.13856006       0.83687664      -0.39601804       1.03080882
I        3.76924515      10.38719170      14.95886530       0.06616375      -0.01001061       0.07463446      -2.13712008       1.33345591      -1.15272200
I       11.79421000       4.38575213      17.30154956       0.15411948      -0.15945974       0.04415188      -0.97375417      -0.31435805       0.78172810
H        5.23470974       2.06417870      18.40291067       0.12424577       0.00797255      -0.33469071      -0.03151788       0.04602506       0.04214302
H       10.39953095      10.92014290      15.78564854       0.22238558       0.54926278      -0.61144210       0.12628752       0.11587598       0.08697573
H        0.98895034       9.25293751      16.69147131       0.12900753       0.08989661      -0.63819988       0.11284447       0.08281730       0.00287919
H       14.24831947       5.48217819      15.99135756      -0.03637216       0.00980532      -0.09801988      -0.06491271       0.03943823       0.01592146
H        5.58915569       3.39512331      17.13388779      -0.59367679      -0.25633508       0.48693812       0.06400166       0.10583833      -0.13913007
H       10.03404558      12.27403535      14.33828590      -0.23648962      -0.21044572       0.52701207       0.09045987       0.00867884       0.16997080
H        0.89288358       7.32767586      15.91055752       0.09827714       0.66496207      -0.03767452      -0.07828903      -0.21059402       0.17756010
H       15.33189682       6.34237905      14.82155811       0.42104054      -0.25451230      -0.84656270      -0.00591965      -0.19578842       0.00809383
H        4.57907494       3.68308031      18.68709726      -0.04022689       0.87377745       0.10025215      -0.15593361       0.05088445       0.07558506
H       11.18474593      10.75534967      14.05592219      -0.32954434       0.29531173       0.16258726       0.15690007      -0.00683063       0.20905754
H       38.24252693       7.67738068      17.31007411       0.46126287      -0.16251724       0.32589183      -0.30922578      -0.08716788       0.12650178
H       14.70902825       7.18341152      16.23576334       0.16361429       0.93547874       0.59110312      -0.08447333      -0.04321797       0.19132791
H        3.26163496       3.27359748      16.52217770      -0.48090748      -0.03897022       0.40072169      -0.04814738      -0.01304463       0.00029615
H       11.90400586      13.14994069      15.72524138       0.47672100      -0.25280438      -0.29727278      -0.08224898      -0.00605493      -0.06341615
H        2.43069003       8.53904304      18.33684999       0.02946037      -0.22148615      -0.00349429      -0.32193103      -0.21308873       0.02492293
H       13.42127597       7.73885227      14.21101692      -0.13746769       0.18742818      -0.07491876       0.12655286      -0.08016457      -0.09707072
H        2.82756984       2.37007194      17.96822724       0.27445759       0.30629774      -1.10399057       0.00074369      -0.02919318      -0.15040171
H       12.55951024      12.65610737      14.14917660      -0.37995726       0.46898813       0.64110898       0.07491160      -0.00636959       0.08145449
H        3.08830337       7.71109282      16.99271004      -0.52504279       0.06070803       0.29480859       0.13666683       0.16070036       0.09905793
H       12.28520765       6.90370388      15.24689634       0.52983855      -0.09908569      -0.18068065      -0.05513521       0.02751150      -0.05835895
H        3.65218196       1.68259015      16.67172554       0.19972721      -0.89821235      -0.34942332      -0.19131457       0.00216099       0.01628085
H       12.82243822      11.66207455      15.46754819       0.69558093      -1.02263274       1.42022262       0.02527210       0.09582177       0.05807459
H        2.10542800       6.85223469      18.13330590       0.15664887       0.19495273      -0.23562435      -0.03478872      -0.11188721       0.05197050
H       13.02095753       6.09174253      13.87939542       0.14584567       0.32100457       0.33150150       0.17288514      -0.04864958       0.10368044
C        4.83366948       2.95629730      17.88298897       0.71663799      -0.77020914      -0.17375886       0.87292956       0.08485407      -0.17162587
C       10.80156086      11.54083278      14.81007294       0.23949913      -0.62782982      -0.33355991       0.08913572      -0.45028029      -0.16874520
C        0.90958787       8.08811551      16.87721569      -0.11434178      -0.93877370      -0.04594319       0.22681994      -0.04450155      -0.01697109
C       14.46218443       6.43815404      15.49032953      -0.92145688      -0.73665127       0.30929938       0.05350223       0.60327903       0.54361270
Pb      37.66426499       3.58894970      14.86519605       0.06770223      -0.19539315      -0.10556422      -0.29772910      -0.75928847       1.05193890
Pb      16.46939992      11.05434544      17.59307626      -0.06483267      -0.05403943      -0.21774729       1.31831466       0.94247681       0.99500322
Pb       6.69249548       9.06633867      14.82600587      -0.18467508       0.15385236       0.12925850       0.91626440       0.02966731       0.84357738
Pb       8.93555226       5.59258898      17.18524619      -0.42137759      -0.05181605       0.34374636       0.76099390      -0.46086801       0.52669706
N        3.56000108       2.53223809      17.21871457      -0.06212620       0.78790180       0.71977290      -0.29465691       0.45997096       0.07579717
N       12.11377631      12.32461964      15.08480243      -0.74429959       0.88464766      -1.50357100       0.42946708      -0.05744432      -0.20778705