768
Lattice="38.36233378009021 -0.17091669423460434 -0.23415642229604455 0.13860846621712591 21.550492846406996 -0.023849043928523623 -0.012701609790407587 0.03213069133637567 18.81004073834508" Properties=species:S:1:pos:R:3:forces:R:3:momenta:R:3 energy=-3341.836516256379 stress="0.0 0.0 0.0 0.0 0.0 0.0 0.0 0.0 0.0" pbc="T T T"
I       18.41413234       4.90074953       3.29673325      -0.07878395       0.05869067      -0.06408255      -1.30195693      -0.18913102      -1.77864142
I       17.89916195       8.45181948       1.01220195      -0.02324857      -0.03076415      -0.13759445       0.87741331       2.01054165       0.12136023
I        8.49097450      10.42033686       3.16628289       0.06053688       0.01816784       0.26299029       0.74192709      -1.40412870      -0.26243738
I        8.75380745       3.10997225       1.04674784       0.01872174       0.06617525      -0.10708681      -0.65270297       1.52131022       0.64297180
I       16.31583202       1.79404934       0.91942590      -0.04248563      -0.15893172       0.10058316       0.33130043      -0.04183807      -1.03575401
I        1.09317902      11.80852091       3.32364744      -0.17383189      -0.18778668       0.13809689      -0.80075335      -0.61902194       0.15665562
I       10.51266423       7.26537112       0.93801409       0.11915102      -0.21507647       0.00581284      -1.72208768      -0.62948215      -1.29821007
I        6.69797200       6.34918729       3.27103068       0.12857876      -0.15262963       0.07909545       0.15454569       0.49611532      -0.78224052
I        3.01537243       4.38875319       0.93622925       0.05504616      -0.10612410       0.14965710      -1.18432535       1.12529342       1.12956321
I       14.15497145       8.92584455       3.33005310       0.14387724       0.28674637      -0.15166780       0.84270638      -1.79480367      -3.21877887
I        4.60454043       9.77125444       1.03899477      -0.27155543       0.07628280       0.02509117      -1.91132785       0.22639163      -2.11683193
I       12.73799681       3.52157678       3.58486064      -0.05326401       0.25191777      -0.18350761       2.42160899      -0.28619604       1.06473625
H        5.66895764       3.27589357       2.65947161       0.43454828       0.04720089      -0.20253119       0.06370520       0.06426934       0.22528168
H       11.91114427      10.22433361       1.82763821      -0.04741525       0.24926618       0.14142354       0.01759153      -0.03110210       0.06860109
H        1.95409504       8.37542225       4.36952953       0.07620495      -0.26263583      -0.20939431       0.18533564       0.12943178      -0.04664179
H       14.97747081       4.46422957       0.25083839      -0.25800904      -0.14184496      -0.04879071       0.11372918       0.09406432       0.07927923
H        6.45290087       2.38634086       3.99866060       0.55289400       0.14024461       0.55403615      -0.04740909       0.18680552      -0.14943337
H       11.01556870      11.85175783       1.77444418       0.35492366       0.32586624       0.62872541       0.00157811       0.20638522      -0.13840634
H        1.34044786       7.84488920       2.73176627       0.43296892      -0.42299018       0.86424138       0.10132452      -0.06138353       0.11171459
H       15.45846245       6.14277328      -0.43193822       0.00553517       0.19896853       0.30080189      -0.18342480      -0.10530113      -0.05083644
H        6.27509047       1.61116107       2.41169247       0.81484353      -0.93816263      -0.87951091       0.18065560      -0.02785864       0.20121205
H       10.84176987      10.76908735       0.48675820       0.56838107      -0.11778804      -0.16607491       0.13088405       0.04680295      -0.10443270
H        1.47380485       6.67467961       4.13566185      -0.84034795      -1.02396272       0.64983708       0.10825144       0.16626643      -0.03405961
H       15.99232666       5.59459962       1.28589068       0.79391156      -0.03040207       1.12773213       0.09525402       0.02247879      -0.26850328
H        4.59065042       0.85072721       3.99746972      -0.18994266       0.54030716      -0.16701216      -0.04357185       0.17154536       0.11518114
H       12.56772019      12.52199530       0.02328775      -0.15672432       0.53125837      -0.34036830       0.02563232       0.05020707      -0.07396479
H        3.79211744       7.87309068       2.71261466      -0.24840106       0.11286319      -0.06646275      -0.19363753       0.05068333       0.10159333
H       13.21193703       6.14880935       0.41218845      -0.47526161       0.40184456      -0.21380069      -0.02495397      -0.03310059       0.17002253
H        3.95752347       1.53425151       2.59999066       0.32049667       0.06050977       0.31151808      -0.09070131      -0.21200508       0.03757111
H       13.38167754      11.05122481       0.06900674      -0.30771626      -0.78072788      -0.62293646      -0.10784948      -0.00002702       0.02653200
H        3.19956749       6.28850048       2.64495431       0.20151586      -0.07118611      -0.19075383      -0.00433660      -0.04948985      -0.10055241
H       14.04604427       7.04175519       1.62715763       0.13394248       0.19616484      -0.26580492      -0.15465850       0.10559783      -0.01280633
H        3.96135900       2.47181824       4.00625023       0.29349920      -0.37981942      -0.05236615      -0.17796066       0.11057066      -0.13999467
H       13.46455397      12.05746677       1.30091701       0.04276040       0.29941856       0.51055595      -0.35982416      -0.02930753       0.10307569
H        3.88108127       6.88271203       4.02257528       0.17900312      -0.11561125       0.43682104       0.05537204      -0.14850510      -0.16626816
H       13.51086054       5.48872078       1.89011937       0.06000489      -0.47023799       0.14450000      -0.00392185       0.01149235       0.07567819
C        5.85511584       2.28305771       3.10830003      -0.85077276       1.32134782      -0.34200575      -0.27642683      -0.05030835      -0.60123808
C       11.60965013      11.10599574       1.23056028      -1.78765715      -1.06435157      -0.32933280      -0.51370965       0.52664096       0.57028875
C        1.91089335       7.51069522       3.65987900      -0.25962521       2.17497455      -1.02462886       0.43267774      -0.11128862       0.79187165
C       15.18133382       5.54637728       0.54851082      -0.61162036       0.22671020      -0.99926349      -0.34500931       0.25213687       0.24382286
Pb      38.36553936       3.10329952       0.77511903       0.03503903      -0.19684719       0.21193952       0.97805064       0.96235067       2.94333786
Pb      16.99378980      10.56348550       3.16023442      -0.07638092      -0.28407177       0.14037762       3.84166136       2.00234763      -1.84991904
Pb       7.49987058       8.52378617       0.96947642       0.05254503      -0.09150185      -0.06999665       2.02231502      -0.07139166       0.53596284
Pb       9.83069848       5.01919901       3.37258661      -0.01187437       0.16770189      -0.00519133      -0.00546324      -1.06005141      -1.09324201
N        4.53447939       1.76232107       3.45108180      -1.55228623      -0.82972131       0.61688624       0.10659667      -0.35680495       0.00921296
N       12.77255162      11.70417306       0.61587020       1.09022603       0.64748258       0.28818868       0.44598679      -0.40730660      -0.35438166
N        3.26935063       7.13854017       3.24389355       0.40642719      -0.15930799      -0.53039029       0.69412842      -0.51162849      -0.27020177
N       13.92558461       6.10980122       1.15608290       0.38195643      -0.37738197       0.06832125       0.06665962       0.17993029      -0.76038670
I       18.27158935       5.06040692       8.01395248       0.13138661      -0.28371098       0.18874816      -1.05680842      -0.45707693       0.63521561
I       18.01063033       8.70984040       5.61716310       0.05334461      -0.01006041      -0.28569005       1.22266572      -1.44898977       0.30485289
I        8.59167606      10.34971574       8.01415232      -0.18952971       0.00976278       0.17343025      -0.28772995       1.53846210       1.61367261
I        8.59013733       3.27296437       5.71477266       0.03937309      -0.28036138      -0.19262353      -2.22976747      -1.43419335      -0.62362961
I       15.91437041       1.78999253       5.77602540       0.34535677      -0.02896920      -0.11593071      -1.72612385       1.17197035       2.26785249
I        0.84911286      11.81517395       8.12840827      -0.18494576      -0.18581491      -0.03376494       2.83609015      -2.53756527      -0.87287805
I       10.59473739       7.43287207       5.65719135       0.06106915      -0.40914042      -0.01906313       2.45371212      -0.28946817      -0.05664942
I        6.72708756       6.48903505       8.02533620      -0.04747374      -0.07899927       0.11476226      -0.00858259       1.04350953      -0.85175532
I        3.36707910       4.40816304       5.52901050      -0.15571817      -0.02056636       0.20522811       0.36680408       0.53357195      -0.05052735
I       14.08952788       9.36284511       8.09360907      -0.02290994      -0.33218450       0.00403403      -1.17361736       0.50647510      -0.58318840
I        4.58763175       9.75682954       5.51823503      -0.09357083      -0.09206572       0.16263230       1.43118174       2.60407830       0.21418519
I       12.67417403       3.79349709       8.05534298      -0.04417156      -0.14733256      -0.21664890      -2.04046360      -0.72285840      -1.52298954
H        6.07863530       1.88840873       9.08184402      -0.00865397      -0.62316278       0.38343412       0.01556644      -0.11073974      -0.03512847
H       10.87410152      10.89199046       6.00206913       0.00409863      -0.14914636       0.24380760       0.07387039      -0.01914686       0.03279386
H        2.07866382       8.64362069       7.27910582      -0.09993067      -0.19003102       0.11004737       0.02024173       0.03463753      -0.05665685
H       15.47061574       4.95914987       6.48258622       0.29130317       0.39488764      -0.54319930       0.03386865      -0.12903541       0.05296661
H        6.29633096       2.62694648       7.50970394       0.24460936       0.20239417      -0.68949799      -0.04294171      -0.14313282      -0.04184701
H       11.12834401      11.98356801       4.66798392       0.03485661       0.50906916      -0.32956879      -0.01495683       0.15474511      -0.04304003
H        1.60092969       6.91131390       7.10962893      -0.11773745       0.33865616       0.49124866      -0.01507657      -0.05344554      -0.21207643
H       16.32401652       5.96769446       5.20899698       0.59712662      -0.41359624      -1.50466752       0.08055250       0.27431051      -0.17810430
H        5.06061506       3.44549060       8.65514600       0.44831928      -0.51467081      -0.17334052      -0.10557449      -0.00219200       0.07886048
H       11.80178438      10.34253987       4.56597954      -0.10156833      -0.24431857      -0.08278092       0.16761804       0.07459121       0.11582352
H        1.22900173       7.87625663       8.62154150      -0.72564481      -0.05033235       0.76684425       0.14798190      -0.00602790      -0.18256302
H       15.82445009       6.70870199       6.73283269       0.04302150       0.13243142      -0.08301811      -0.00980893      -0.02470154       0.09610201
H        3.83650924       2.35714489       7.09193083      -0.32827488       0.23906546      -0.34833467       0.05884107      -0.01119133       0.02815350
H       12.63603901      12.45791451       6.46440384       0.49550066      -0.38019365      -0.11668580      -0.00987168       0.01522907      -0.00389711
H        3.63280056       8.10655184       8.95321209       0.40310283      -0.31112850      -0.58272056      -0.04374940      -0.21630156       0.07854939
H       14.17029375       7.13041590       4.86572768      -0.01796052       0.13815175      -0.54095092      -0.04318378      -0.12957991      -0.12731601
H        3.72619992       1.26239908       8.36723719      -0.36083902       0.06378922       0.34983443       0.03902644       0.03148108      -0.01783513
H       13.53038383      11.90837074       5.12120101      -0.04791829       0.22614143       0.08928420      -0.10367611      -0.04023899      -0.00731388
H        3.86572657       7.01279389       7.59299216       0.35382255       0.30015581       0.28251950      -0.01783753      -0.07172868       0.02451596
H       13.57858361       6.57967451       6.33348880       0.52439216      -0.34646951      -0.69148592      -0.11289560       0.01699779      -0.04433805
H        4.62214549       0.84204888       7.05180635       0.19580057      -0.08823726      -0.12264258       0.15262515       0.02799205      -0.20774386
H       13.33606856      10.83270091       6.41541261      -0.85848239       1.11421601      -0.60094894      -0.08863818      -0.23693718       0.02261472
H        3.19677922       6.51162491       9.01632579      -0.31694341      -1.14971767       0.51207325       0.02906903       0.12990567      -0.03037562
H       13.68858303       5.43457451       5.05761120       0.14688725       0.70269173       0.00439539      -0.02994600       0.01625664       0.04387385
C        5.54781995       2.43897501       8.26500249      -0.86088383       1.07823920       0.53086488       0.31794951      -0.13308544       0.37420511
C       11.59484856      11.18817523       5.22822575      -0.73580545      -0.85899011      -0.14650071       0.06814990      -0.56365579      -0.06751383
C        1.91794237       7.70148323       7.83346996       0.82422067      -0.18361439      -1.56584748       0.37399641      -0.18356218      -0.53245314
C       15.55894661       5.94994491       5.96001895      -1.38932979      -0.09620287       2.55252852      -0.22596044       0.56918580       0.52630975
Pb       0.29845403       3.18641690       5.87405616      -0.10809595       0.17633139      -0.26200891       1.59009076       2.43866035       1.33820668
Pb      17.11784473      10.40018395       8.10415131       0.01454443       0.08369719       0.13429106      -0.22775797       0.34257353      -0.10471514
Pb       7.53053092       8.49913434       5.62598468       0.14959944       0.15765518      -0.08137272       1.91687577       1.70637890       0.46271110
Pb       9.69654004       4.99173169       8.00679675       0.11747146       0.26210850       0.03356127      -1.58066588       0.28091332      -1.00072764
N        4.36516895       1.67061197       7.65332839       0.74512463      -0.28394085       0.07750891       0.38209349      -0.81188988       0.48270399
N       12.83871706      11.62233851       5.83850690       1.07358286      -0.18243310       0.88297302       0.29699308       0.35971982       0.01800306
N        3.25271571       7.29696545       8.37559700      -0.35919741       1.19040420      -0.28333974      -0.63531053       1.20217678       0.07334698
N       14.16991995       6.29734948       5.49573504      -0.55087401      -0.63771117       0.90870301      -0.72226635      -0.29203708      -0.64433553
I       18.12292341       4.95348574      12.68085123       0.09422151      -0.04204131      -0.07737300      -0.62503026       0.07010253      -0.24329055
I       18.05354619       8.45119797      10.45075532      -0.01962636       0.06871986      -0.03181911      -1.93810965       1.12967270      -1.54654804
I        8.53636607      10.53960662      12.86253500      -0.24282294      -0.16620059      -0.20039042      -1.51747243      -0.36514521      -1.18321934
I        8.55026820       3.24946721      10.33047459       0.06025614       0.06790482       0.03899327      -0.69490124      -2.57192822       0.07820854
I       16.13640633       1.66033165      10.31036568      -0.15212880       0.29544958      -0.05562578      -1.35183473      -0.70838281       2.70530031
I        0.95127997      11.73341502      12.68472191      -0.11706526       0.11758953       0.16023005      -0.47643166       0.77787192      -0.65935299
I       10.63486658       7.21252455      10.21868254      -0.17336964       0.17277591       0.20214488      -1.34302198      -0.85874889      -0.70342424
I        6.54656288       6.30125250      12.80100511      -0.02543969      -0.00350855      -0.21232863      -1.39551676       1.00555610       0.88066857
I        2.89791701       4.48814081      10.50872358      -0.12850479      -0.08912212       0.00190763      -1.58453375      -0.85247746      -0.52990562
I       14.30723775       9.29954152      12.65335818      -0.23811688      -0.06470663       0.21482575       0.54131219       0.68441392      -1.20453400
I        4.53924039       9.87533508      10.26645087       0.02104528      -0.00314083       0.28050997       2.10148290       2.03009513       0.46261093
I       12.49349199       3.77206518      12.55585390       0.21295287       0.18312916       0.09336340       1.20839204       1.99905867      -0.40024771
H        5.34084919       3.18250657      11.56792081       0.14706700      -0.27460848       0.44006198       0.12296366       0.05353747       0.00460739
H       11.56061571      10.28824586      11.50311914       0.06252079      -0.84285294       0.08071305      -0.04559410      -0.01164946      -0.06757484
H        1.77942838       8.57818873      13.43541728      -0.43344203       0.22851196       0.36220170       0.14513465      -0.05055187       0.23290052
H       14.84471364       4.86265415       9.19635682       0.17361355       0.95016034       0.61271612      -0.07459836       0.07351339       0.11456170
H        6.38823255       2.46691475      12.89353930       0.23022863       0.20028147       0.56755837       0.00851899      -0.03622103      -0.01385547
H       10.86005640      11.88174499      11.66222800       0.65763293      -0.09001658      -0.47677350      -0.00588174      -0.04471006       0.18700808
H        1.15319613       7.60325848      12.03403485       0.40866301      -0.21562958       0.15680613      -0.15520375       0.21117285      -0.03552128
H       15.83754257       6.47631009       9.35076705       0.41276200       0.06248754      -0.34732999      -0.04881011       0.05399140      -0.01949069
H        5.83576763       1.47677392      11.51295052       0.14222616      -0.24202950      -0.03871879       0.08891231      -0.08061506       0.01254964
H       10.54518679      11.01871872      10.17571653       0.44639674      -0.17898080      -0.24181596       0.12403187       0.04103003      -0.14544405
H        1.45658403       6.75929348      13.63212676       0.14840979       0.38987325      -0.24212651      -0.12374862      -0.02955757       0.13156722
H       15.97509593       5.24540675      10.70168780      -0.53139092       0.15874469      -1.04794688       0.09840834       0.07217901       0.05266593
H        4.37238830       1.07359556      13.55122765       0.19038233       0.25939340      -0.23929537      -0.00834854      -0.07258485       0.09527060
H       12.59854570      12.65211970       9.96884277      -0.37258991       0.36719791      -0.21759659      -0.08600420       0.17923111      -0.15093848
H        3.62406935       8.13428080      12.06182292       0.43371066       0.17433991       0.09892461       0.00666257       0.22484385      -0.01077209
H       13.42567312       6.75113594       9.87172449       0.00952779      -0.10278964       0.48416695       0.01505004       0.06064668      -0.00370244
H        3.56171720       1.71087587      12.26634961      -1.07931749      -0.16956866      -0.98811415       0.05031196       0.16566217       0.01018609
H       13.02814974      11.06133786       9.68605527       0.27059141      -0.61347333      -0.36489863       0.14966043       0.07047168      -0.06804580
H        3.37001267       6.46388961      12.05433433       0.28337467       0.11387642       0.40972477       0.01721175       0.02925963       0.05531005
H       14.46841772       7.31986778      11.07104349       0.07319549       0.79219426       0.56401903       0.13622429      -0.16836246       0.20886625
H        4.02492608       2.73516967      13.50830527      -0.58362084       0.04805890       0.14955809      -0.14699419       0.29260584      -0.03771139
H       13.26044371      11.69969559      11.21532619       0.51594705       0.23879242      -0.07712936       0.04545719      -0.08434736      -0.29152414
H        3.86549373       7.27953834      13.50050662       0.52507287      -0.08941899       0.41467776      -0.08915044      -0.17264915       0.07022439
H       13.69806607       5.82087092      11.25526157      -0.62349282      -0.21122885       0.14233814       0.04318387       0.00536428      -0.08931686
C        5.56552759       2.29275252      12.19617627      -0.41773421       0.05682810      -1.07483637       0.56486787       0.63516999      -0.03034310
C       11.33201056      11.17007674      10.93555394      -0.85617727       1.09015476       0.33303397      -0.73615093       0.13205479       0.27958948
C        1.79058371       7.57998293      12.95848222       0.34177364      -0.02393968       0.27853379      -0.63948619      -0.11907462       0.56185062
C       15.29220201       5.69974331       9.88341604       0.47017957      -0.76679234       0.80091072       0.00987873      -0.24696452       0.60386629
Pb      38.27224273       2.91958103      10.35328213       0.15930970       0.24128752      -0.24944021       1.13066958      -5.55343094      -2.09851253
Pb      17.16156594      10.42025306      12.87009217       0.09647220      -0.09118084      -0.39563545      -0.17900437      -2.33009989      -4.14194357
Pb       7.54385329       8.57681150      10.50266024       0.14513525       0.13286377      -0.28840479       1.02118409      -2.11537361       3.22349649
Pb       9.63541486       5.19096090      12.69873093       0.07656973      -0.21980576      -0.12110825      -0.46641182      -0.06782383      -1.49366338
N        4.29467043       1.91615717      12.91160018       1.43174889       0.12520686       1.13033447      -0.36005744      -0.42301339      -0.13297662
N       12.61714084      11.69307766      10.39134212      -0.53159293      -0.05104282       0.94103639       0.14860523      -0.31282299       0.24020383
N        3.28930129       7.34848544      12.65693807      -1.73958263      -0.42224870      -1.51267740      -0.76836349      -0.46526824      -0.60133427
N       14.14528036       6.46127560      10.57691334      -0.04987038      -1.00264221      -1.21625247       0.57053456       0.12046680      -0.35199068
I       18.24413707       5.07003737      17.51962558       0.02912104      -0.17703337      -0.03093374       0.76251840       0.00767759       0.10392431
I       18.05910102       8.33379076      15.10613925       0.03956990       0.01741286       0.05286756       1.50375766      -0.73412962       0.26903054
I        8.40703951      10.33548579      17.35867009       0.05111446       0.11073960      -0.11017284       1.86130458      -0.26939280       0.65424783
I        8.73670363       3.16130315      14.96524962      -0.07816763       0.01195696       0.11433339      -1.71256837      -1.02815133       0.21752882
I       16.10527981       1.95290718      14.89536096       0.01998456      -0.01286008       0.12200741      -2.68933406       1.57357977       1.46667200
I        0.78336363      11.69547125      17.66902324       0.13370124      -0.12612040      -0.28536978       0.57918208      -0.64544029       0.98162713
I       10.50211671       7.27852221      14.95363827      -0.15043634      -0.00621448       0.19305712      -0.86310060      -1.21454696       0.74835104
I        6.66164556       6.33986017      17.46322813      -0.22307352      -0.06044246      -0.15491667       0.56334546      -0.26768941       0.78625462
I        2.93976758       4.42185961      15.09906344       0.25230366       0.26881476      -0.02701610      -1.12423348       0.20393625       0.99280076
I       14.05902980       9.28116151      17.42760498       0.23145912      -0.20646890      -0.17174948      -2.37710013       0.50467949      -0.82024524
I        4.38326984       9.87007677      15.08562075       0.17492034      -0.04208931      -0.16826536      -0.74678505       1.00292109      -0.95039776
I       12.48627335       3.70309107      17.41092408       0.10716815      -0.08205325      -0.11596945       1.85442520      -1.13761050      -0.48651018
H        5.87864544       1.47504015      18.27596978      -0.31216495       0.53416068       0.16120839       0.00600825       0.03145322       0.08921573
H       11.02022366      11.27118105      15.84786380      -0.17339718      -0.15296414       0.37659692      -0.04929284       0.24948801      -0.00371432
H        2.21234908       8.57658028      16.35191140       0.02195059       0.21980387       0.18120325      -0.15796563      -0.03633766       0.01023838
H       14.81413431       4.99608184      16.11518964      -0.20554171      -0.69356310       0.40612374      -0.05813903       0.14843743      -0.14216812
H        6.24327981       2.36692468      16.82891241      -0.25686970       0.29159651      -0.24594535      -0.05169594      -0.09309979       0.09034653
H       11.16809110      11.82196146      14.09311110      -0.16619100       0.15401885      -0.12038902       0.31011326      -0.07669833      -0.18413782
H        1.38491253       6.96776287      16.63064559       0.10469703       0.23754814       0.11127881      -0.03203016       0.01816320       0.11731859
H       15.65968992       5.09708166      14.43927924      -0.06963443       0.16758681       0.14695288      -0.00017043      -0.06309149       0.06559971
H        5.38752805       3.27905085      18.15196476       0.39045246       0.05754945       0.38547329       0.11154333       0.05057633      -0.09621098
H       11.86526306      10.15757898      14.62757746      -0.22753415       0.19114165      -0.00234277      -0.06170889      -0.11355663      -0.05684877
H        1.11786215       8.25618630      17.88535047       0.83043037       0.01296126      -0.69260899       0.05762927      -0.01334683       0.10166230
H       15.83049749       6.54030810      15.68875970      -0.16820429      -0.25989730      -0.27180778      -0.01864665      -0.16292269       0.23727376
H        3.67822354       2.82855773      16.68368245       0.43408149      -0.99587352       0.50759408      -0.03373974      -0.15258520       0.06236923
H       12.75262460      12.73642196      15.96251669       0.48778944      -0.35896200      -0.49963072      -0.11036726       0.03262498       0.03854145
H        3.53032209       8.08025455      18.31557345       0.46329246      -0.44231374       0.45673593      -0.03537391       0.06506056      -0.10993516
H       14.08727798       7.24813224      14.24868696      -0.21565822      -0.58209356       0.28346847       0.33349722       0.06755721       0.08454099
H        3.54826618       1.62265446      17.90211539      -0.46299735      -0.18671962       0.57365527       0.01460152      -0.05233437       0.02377082
H       13.53575315      12.28501987      14.46365885      -0.24405847       0.17923297       0.02099971      -0.14356382       0.05773562      -0.01455403
H        3.74913898       6.86990683      17.09221339      -0.52544179       0.08387571       1.24352519       0.00281513      -0.16826959      -0.01252686
H       13.31021267       6.61170314      15.62280418      -0.20471860       0.42617884      -0.10491948      -0.06123300       0.13790712      -0.12971391
H        4.24759114       1.17725333      16.42786640      -0.30094263       0.06896071       0.13066552      -0.06133716       0.12629228       0.12995999
H       13.54490002      11.17969054      15.74293858       0.36260589       0.08817285       0.47252749      -0.19619970       0.00155172       0.10421586
H        2.78232373       6.44383454      18.49640092       0.56179809       0.55772888      -0.07834185      -0.03986892      -0.00959763      -0.05058300
H       13.26316037       5.70457702      14.24488341       0.25893024      -0.14403078      -0.30747366      -0.23739192       0.04513160       0.04686316
C        5.50576949       2.31617047      17.65348494       0.35393248      -0.65935137       0.16412890      -0.44825106      -0.18457090       0.37608586
C       11.64626682      11.24236400      14.93577468       1.01588353       0.08610586      -0.62908728       0.05460021      -0.04197232      -0.37290719
C        1.87919318       7.83136682      17.13329206      -1.08689885      -0.74080097       0.28599647       0.13214611       0.27368213       0.55446738
C       15.12763882       5.69808172      15.29899072       0.80710434       0.65833416      -0.43974164      -0.49770723       0.24968414       0.61803369
Pb       0.14192172       3.20343905      15.13881884      -0.31437576      -0.12459825       0.00226800       1.13885667       0.25034963       3.88957525
Pb      17.13423611      10.32342590      17.31480853       0.03454444       0.04369675       0.17404055      -0.53734817      -1.68446531      -1.51237068
Pb       7.35078349       8.50844247      14.93147165       0.09272536       0.14280199       0.42119603      -0.17271867      -0.69333610       1.54723584
Pb       9.60629719       5.01774180      17.44660144      -0.03571766       0.05778227      -0.07415353       0.65742588       0.95260111      -0.85004177
N        4.15235196       1.95439844      17.15235610       0.34622543       0.78805055      -1.39786182      -0.34404513       0.07864048      -0.52544901
N       12.97935636      11.92932670      15.27748654      -1.11604092      -0.20738475       0.30937290      -0.12272691       0.23142183       0.18466588