768
Lattice="31.343885341238796 -0.47746557187201905 -1.6062135899949226 -0.40744855527168355 29.62807268781774 -0.02279442302894619 -1.4504438450383712 0.04122985736401602 17.113936445534993" Properties=species:S:1:pos:R:3:forces:R:3:momenta:R:3 pbc="T T T"
I        6.25185607       0.97693607       1.82662806      -0.09852577       0.03883573       0.15823869      -0.89495773      -0.29806803      -1.81961431
I        0.80073594       6.37617353       1.93007951       0.06233647      -0.07278819      -0.20989193      -0.30420562      -1.75234677       0.15065675
I        5.41018384       1.62417022       6.02490006      -0.13022281       0.02399825      -0.20027714       0.26025930       0.53626057       0.05785469
I        0.91729873       6.21804725       6.23141751       0.20722941      -0.02732272       0.04102098      -1.09527406      -0.20600262       0.60813607
I        4.84730090       5.01890916       3.70072973       0.03140728       0.10824257      -0.30522888       1.53623620      -0.23929596      -1.60574249
I        1.82313707       2.68669431       8.72092436      -0.34191222       0.01601636       0.01611239       1.09515186       0.08012752       0.50826147
H        2.11040834       3.82388602       4.13316472      -0.03459419       0.29634514      -0.33471710      -0.03549786      -0.06717596       0.11413618
H        3.82572384       5.86597146      15.24007577       0.03642347      -0.09754689      -0.77552524       0.03726568      -0.18781768       0.13827301
H        0.59866771       2.72840691       4.29252716       0.42727374       0.38715803      -0.08293995       0.10784408      -0.17285588      -0.00617031
H        4.75206844       5.18264405      16.70958589      -0.78858344      -0.07465927      -0.12455652      -0.21916863      -0.17698364       0.03423868
H        1.94676158       2.69342049       5.49708102       0.01325033       0.07382418      -0.00254680      -0.10300767       0.06139539      -0.01856791
H        3.25476806       4.23399111      16.02927681      -0.09855748      -0.42410019       0.17919687      -0.23707627      -0.02202567      -0.15783388
H        2.35351380       2.01972168       2.61881967       0.01034843      -0.68216275      -0.52870588      -0.07159514      -0.08897349       0.02386011
H        4.49119197       7.10448213       0.05404627       0.64254005      -0.28654577      -0.14805068       0.05249804      -0.07914047      -0.08929435
H        1.97713345       0.81155822       3.91877770       0.44100552       1.07266864      -0.79352397       0.04378535       0.03290796       0.10953548
H        4.31320072       5.77619851       1.02534475      -0.19675472      -0.46638395       0.18353563       0.01506257       0.09061390      -0.08446579
H        3.40588486       1.74402434       3.92023311      -0.10027670      -0.13971864      -0.19416557      -0.00769875      -0.12996842      -0.20053479
H        1.87466885       6.09321327      16.75169732      -0.08914849      -0.33291681       0.29085379      -0.07161943       0.11294338       0.00057710
C        1.71857013       2.85803834       4.42010665      -0.68423862      -0.86734178       0.60026612      -0.20309182       0.03086518       0.25178326
C        3.73382036       5.26046357      16.21964661       0.89482518       0.92979605       0.71862812       0.22668813      -0.73472362      -0.02957212
Pb       3.26637975      14.88769229       7.96546630       0.07801684       0.04345182       0.11418393       0.92636481      -1.63185794      -0.14054836
Pb      -0.77051611      15.17488198       8.36722851       0.10116543       0.17822538      -0.23607153       1.27958069      -0.29037804       1.73980661
N        2.40313177       1.75775117       3.62500289       0.00001845      -0.10904000       1.46785313       0.99194566       0.56251219      -0.11820139
N        4.29339688       6.05126653       0.02470347      -0.19781460       0.57020398      -0.26061475      -0.41111274      -0.14184032       0.00053111
I        5.06149674       8.62782594       6.03906958      -0.01976710       0.09067493       0.25824294      -0.59068694       1.16874886       0.51874956
I        0.86372279      14.02111264       5.78877574       0.18864409       0.00068763      -0.03700366      -0.28494833      -0.48117281      -1.57194170
I        4.71077562       8.94479120       1.53187075       0.00999175       0.24618679       0.18440673      -0.33445560       0.76601375       1.26134529
I        2.05388152      13.35687388       1.61529686      -0.14203904       0.00273367       0.11502694      -1.41630350      -1.47620853       1.89658289
I        4.45508400      12.33579371      16.55279503       0.04128461      -0.11730465      -0.12895534      -1.32690118      -0.29454696       1.62296741
I        1.00479210      10.03571524       4.52816304      -0.20058527       0.46854170      -0.15552506      -0.85215849      -0.13557470      -1.91100083
H        0.44000505       8.87265554       8.08198605       0.20553260      -0.24209249      -0.01766778       0.13631832       0.09664785      -0.05973462
H        5.27103507      11.39725336       4.68409527       0.14567420       0.20340935      -0.39543795      -0.09162706      -0.05432491       0.00351310
H        0.53155539       9.71179500       9.66374887      -0.08927702       0.11350489       0.05987718       0.05440597      -0.05370187      -0.03053332
H        5.64661397      13.11869945       4.90638701       0.20685060       0.19690845       0.07303044       0.09003796       0.00792373      -0.24904234
H       -0.67178014      10.21810482       8.36940077       0.14550998       0.27756513       0.21281020      -0.01344975      -0.09773551      -0.21017371
H        4.23163823      12.67408891       3.89986295       1.07092478      -0.34749337       0.08025794      -0.03672819      -0.02702476      -0.08766283
H        1.25030631      11.73811653       8.49800821       0.37287867       0.01453706      -0.04989314       0.05528121       0.03280536       0.17784395
H        7.14067411      12.06343461       3.24753868      -0.52108422       0.45954717      -0.13798695      -0.00488518       0.03117233       0.12427215
H        1.19658667      10.90936319       6.99823342       0.09014376       0.20966254      -0.72311661       0.00655746       0.07990672      -0.04569585
H        6.21804083      13.40383695       2.59190156       0.05964731      -0.79297477       0.15385499       0.00940585      -0.05425126      -0.21749385
H        2.35940037      10.45592573       8.09947693       0.26577599      -0.07257350       0.39009782       0.07759905      -0.01720588       0.02572549
H        5.87476469      11.74781838       2.21045508       0.04965957       0.68326825       0.64043282       0.02695596       0.12571595      -0.08730913
C        0.34833739       9.84061928       8.59072000       0.40739615      -0.11544460      -0.38286519       0.35459423       0.01973284       0.17263178
C        5.28752688      12.38768934       4.18486507      -1.33302617      -0.04657058      -0.05023075       0.14133364      -0.54343817       0.09318238
Pb       3.00663603       7.69196305       4.02623388       0.04881204      -0.47116269       0.01608377       0.81310170      -1.01111269      -0.98324298
Pb       7.02036759       7.50192657       3.57305373      -0.42745805      -0.09339826       0.07187819       0.85776863       2.92500899      -0.46799630
N        1.38651031      10.80731973       8.00277423      -1.22306728      -0.36166173       0.51484021       0.48103986       0.11103529      -0.22126301
N        6.17597121      12.41061278       2.98770756       0.23565747      -0.45654367      -0.40790778      -0.80319308       0.40652743      -0.34805772
I       14.14532085       0.88038394       1.55290976       0.00732595       0.00346762       0.14351660      -0.50527405      -1.96308167       0.38411522
I        8.52912793       6.46300217       1.18628146       0.21913806      -0.14466934      -0.17076269      -1.13352717      -0.05914980       1.99368188
I       12.98497327       1.64089494       5.54523531       0.19094155      -0.31361012       0.36087644       0.40863215      -0.86709691       1.61016139
I        8.97160937       5.71186833       5.37061496      -0.07383996       0.17096649       0.22504323       0.36072259       0.90828177      -1.70015384
I       12.46820863       4.72235987       2.90235514       0.24752198       0.29352968      -0.02507064       0.25335693       1.21140987      -0.53714787
I        9.42215532       2.64351032       8.40758707      -0.02430350      -0.49392245       0.17367417      -2.36605620      -1.04201959       0.22158353
H        8.48784679       2.51585877       4.02896088      -0.32971956       0.17509822      -0.13751779       0.00018448       0.03347975       0.03209510
H       12.05829973       5.21930801      14.88028983       0.27787808       0.24395206       0.07534972       0.07411855      -0.22880222      -0.05260719
H        9.61465015       2.03841507       5.42769734      -0.07463558       0.15747385      -0.34697231       0.15195444       0.02426724      -0.03434411
H       14.14286517       4.76379791      -0.43009033      -0.21631190       0.35339341      -0.26061908       0.08144479       0.03997760       0.28375372
H       10.09696502       3.38710517       4.30697136       0.13623376       0.75381554      -0.28780967      -0.01904230       0.17440055      -0.07267070
H       11.18191042       3.95206674      15.90692112       0.41139276       0.00605944      -0.25458578      -0.09499783      -0.23197503      -0.09396882
H       10.20324620       1.75626351       2.47462481       0.09771136      -0.17910473      -0.27914924       0.09441337      -0.30878785       0.17219804
H        9.87286426       5.90775269      15.96201846      -0.25768276      -0.46889588      -0.02861091       0.11548146      -0.08857299       0.10143459
H        9.87352905       0.40302742       3.48820012      -0.09141931       0.17192188       0.29987394       0.00778882       0.03793880       0.03776894
H       12.55655641       6.78364427      -0.36701742       0.38383762       0.12240325      -0.30788754       0.08798258      -0.03707992       0.11417021
H       11.22014985       1.40779441       3.79338226       0.35952728      -0.53191297       0.06868215       0.07747664       0.25873690       0.06368100
H       12.02295212       5.39354300       0.42134189      -0.55795094       0.01376572       0.20933217      -0.00097940       0.05357361       0.34819560
C        9.53832192       2.43578287       4.36350417      -0.03199419      -1.73328707       0.68850230       0.13789557       0.46060928      -0.10818010
C       11.78815138       4.92316163      15.93932815      -0.82649018      -1.02472184       0.01730906      -0.14357677      -0.38786987       0.51695074
Pb      11.10602959      14.65341774       7.87991173      -0.16512532       0.70161480      -0.30597593      -1.85695904      -0.81257672       0.25310746
Pb       7.17112922      14.89546792       7.98942337       0.08206300       0.12660970      -0.04794040       1.69187599      -1.12872317      -0.20182672
N       10.23621360       1.38888565       3.47248002      -0.17598404       1.16121596      -0.40736547      -0.59372922       0.10717431      -0.12581374
N       12.20187357       5.77496398      -0.56182670       0.84395236       0.72487977       0.63034991      -0.48461676      -0.60986484       0.62341880
I       12.63583502       8.49895942       5.73568836       0.01075118       0.02117496      -0.00270242       0.81427618      -0.01446579      -2.04745262
I        8.99684032      13.54387860       5.65835799       0.03226383       0.03330452      -0.20768049      -2.65857546       0.75462911       0.44657256
I       12.86361207       8.97248661       1.23239939      -0.13223635       0.09867475      -0.01273679       1.80028055      -1.18652609      -0.54708858
I        9.95710092      13.03364951       1.12265676       0.01830238      -0.24525331       0.26315251       0.04502065       0.24077499      -2.85518196
I       12.29160379      12.32069214      15.94448538       0.15558580      -0.14495188       0.06996609       1.00940101       0.23726983      -0.91072992
I        8.89447197      10.07669960       3.56347846       0.03348434       0.04542854      -0.05860970      -2.72182723       0.30616405       0.66635663
H        8.98080847       9.24183908       8.67132128       0.00833705      -0.20569491      -0.90094034       0.11043713       0.10985479       0.03746559
H       12.19968465      12.72337977       3.49897750       0.26859253      -0.17929653      -0.17596890       0.16003593      -0.04910609       0.18049117
H        7.70239717       9.81585458       7.52887262      -0.19099988       0.24713264      -0.12534746      -0.03982461      -0.02016183      -0.31974125
H       13.18742180      11.47924111       4.28961050       0.00246576      -1.60233819       0.64831592       0.02764146       0.07036258       0.11223293
H        8.61686602       8.38992264       7.08622039       0.35636307      -1.31244478      -0.48305914       0.05914899      -0.04092911       0.09123370
H       13.72565609      13.20079186       4.32477054      -0.27377413      -0.28882999       0.16439513      -0.09250129      -0.04478312       0.11366283
H        9.69258746      11.14926115       7.40547409       0.24312470      -0.64795855      -0.08350702       0.06106890      -0.06239406      -0.02436130
H       13.67193395      11.48443698       1.85736189       0.67648383       0.24513084       0.82003070       0.02811329       0.02055269      -0.05959802
H        9.43200078      10.51155955       5.85977790       0.00501187      -0.47668710       0.34031273      -0.04295305       0.05922937       0.12516644
H       15.01461964      11.95105298       2.88194414       0.09772876      -0.20206570      -0.48190482      -0.22126050      -0.10311033       0.05641574
H       10.69147801       9.81573130       6.86517202      -0.03989534       0.06249424      -0.08317286      -0.06436219       0.00900621      -0.05575181
H       14.13823737      13.12328681       1.96066494       0.01200296      -0.01257395       0.36244581       0.02127015      -0.14657497      -0.11357258
C        8.69687450       9.32157718       7.57607606       0.05653105       1.55842007       1.34799867       0.46120589       0.33639827      -0.13821173
C       13.21993135      12.38055165       3.74780189      -0.11364162       2.37177801      -0.24700104       0.17101016      -0.75725996      -0.54796667
Pb      10.86291359       7.36651744       3.39874320      -0.06823527      -0.02596996      -0.21710513      -1.56751779       2.92799333       0.53802185
Pb      14.74541145       7.30667287       3.30460711      -0.31850995      -0.20841794       0.08785063       0.44645232      -0.99799713      -1.02671783
N        9.70645237      10.22534490       6.88586771      -0.36365105       1.01606618       0.24310081      -0.06933632       0.69066670      -0.02447586
N       14.07094385      12.22298088       2.53235554      -0.68144298      -0.44541141      -1.15739885      -0.57362283      -0.42603200       0.28853911
I        5.52663415       0.99755100      10.38359628      -0.09852577       0.03883573       0.15823869      -0.89495773      -0.29806803      -1.81961431
I        0.07551402       6.39678846      10.48704773       0.06233647      -0.07278819      -0.20989193      -0.30420562      -1.75234677       0.15065675
I        4.68496192       1.64478515      14.58186828      -0.13022281       0.02399825      -0.20027714       0.26025930       0.53626057       0.05785469
I        0.19207681       6.23866218      14.78838573       0.20722941      -0.02732272       0.04102098      -1.09527406      -0.20600262       0.60813607
I        4.12207898       5.03952409      12.25769795       0.03140728       0.10824257      -0.30522888       1.53623620      -0.23929596      -1.60574249
I        2.54835899       2.66607938       0.16395614      -0.34191222       0.01601636       0.01611239       1.09515186       0.08012752       0.50826147
H        1.38518642       3.84450095      12.69013294      -0.03459419       0.29634514      -0.33471710      -0.03549786      -0.06717596       0.11413618
H        4.55094577       5.84535653       6.68310754       0.03642347      -0.09754689      -0.77552524       0.03726568      -0.18781768       0.13827301
H       -0.12655421       2.74902184      12.84949538       0.42727374       0.38715803      -0.08293995       0.10784408      -0.17285588      -0.00617031
H        5.47729037       5.16202912       8.15261766      -0.78858344      -0.07465927      -0.12455652      -0.21916863      -0.17698364       0.03423868
H        1.22153966       2.71403542      14.05404924       0.01325033       0.07382418      -0.00254680      -0.10300767       0.06139539      -0.01856791
H        3.97998999       4.21337618       7.47230858      -0.09855748      -0.42410019       0.17919687      -0.23707627      -0.02202567      -0.15783388
H        1.62829188       2.04033661      11.17578789       0.01034843      -0.68216275      -0.52870588      -0.07159514      -0.08897349       0.02386011
H        3.76597005       7.12509706       8.61101449       0.64254005      -0.28654577      -0.14805068       0.05249804      -0.07914047      -0.08929435
H        1.25191153       0.83217315      12.47574592       0.44100552       1.07266864      -0.79352397       0.04378535       0.03290796       0.10953548
H        3.58797880       5.79681344       9.58231297      -0.19675472      -0.46638395       0.18353563       0.01506257       0.09061390      -0.08446579
H        2.68066294       1.76463927      12.47720133      -0.10027670      -0.13971864      -0.19416557      -0.00769875      -0.12996842      -0.20053479
H        2.59989078       6.07259834       8.19472909      -0.08914849      -0.33291681       0.29085379      -0.07161943       0.11294338       0.00057710
C        0.99334821       2.87865327      12.97707487      -0.68423862      -0.86734178       0.60026612      -0.20309182       0.03086518       0.25178326
C        4.45904229       5.23984864       7.66267838       0.89482518       0.92979605       0.71862812       0.22668813      -0.73472362      -0.02957212
Pb       2.54115783      14.90830722      16.52243452       0.07801684       0.04345182       0.11418393       0.92636481      -1.63185794      -0.14054836
Pb      -1.49573803      15.19549691      16.92419673       0.10116543       0.17822538      -0.23607153       1.27958069      -0.29037804       1.73980661
N        1.67790985       1.77836610      12.18197111       0.00001845      -0.10904000       1.46785313       0.99194566       0.56251219      -0.11820139
N        3.56817496       6.07188146       8.58167169      -0.19781460       0.57020398      -0.26061475      -0.41111274      -0.14184032       0.00053111
I        4.33627482       8.64844087      14.59603780      -0.01976710       0.09067493       0.25824294      -0.59068694       1.16874886       0.51874956
I        0.13850087      14.04172757      14.34574396       0.18864409       0.00068763      -0.03700366      -0.28494833      -0.48117281      -1.57194170
I        3.98555370       8.96540613      10.08883897       0.00999175       0.24618679       0.18440673      -0.33445560       0.76601375       1.26134529
I        1.32865960      13.37748881      10.17226508      -0.14203904       0.00273367       0.11502694      -1.41630350      -1.47620853       1.89658289
I        5.18030593      12.31517878       7.99582680       0.04128461      -0.11730465      -0.12895534      -1.32690118      -0.29454696       1.62296741
I        0.27957018      10.05633017      13.08513126      -0.20058527       0.46854170      -0.15552506      -0.85215849      -0.13557470      -1.91100083
H       -0.28521687       8.89327047      16.63895427       0.20553260      -0.24209249      -0.01766778       0.13631832       0.09664785      -0.05973462
H        4.54581315      11.41786829      13.24106349       0.14567420       0.20340935      -0.39543795      -0.09162706      -0.05432491       0.00351310
H        1.25677731       9.69118007       1.10678065      -0.08927702       0.11350489       0.05987718       0.05440597      -0.05370187      -0.03053332
H        4.92139205      13.13931438      13.46335523       0.20685060       0.19690845       0.07303044       0.09003796       0.00792373      -0.24904234
H       -1.39700206      10.23871975      16.92636899       0.14550998       0.27756513       0.21281020      -0.01344975      -0.09773551      -0.21017371
H        3.50641631      12.69470384      12.45683117       1.07092478      -0.34749337       0.08025794      -0.03672819      -0.02702476      -0.08766283
H        1.97552823      11.71750160      -0.05896001       0.37287867       0.01453706      -0.04989314       0.05528121       0.03280536       0.17784395
H        6.41545219      12.08404954      11.80450690      -0.52108422       0.45954717      -0.13798695      -0.00488518       0.03117233       0.12427215
H        0.47136475      10.92997812      15.55520164       0.09014376       0.20966254      -0.72311661       0.00655746       0.07990672      -0.04569585
H        5.49281891      13.42445188      11.14886978       0.05964731      -0.79297477       0.15385499       0.00940585      -0.05425126      -0.21749385
H        1.63417845      10.47654066      16.65644515       0.26577599      -0.07257350       0.39009782       0.07759905      -0.01720588       0.02572549
H        5.14954277      11.76843331      10.76742330       0.04965957       0.68326825       0.64043282       0.02695596       0.12571595      -0.08730913
C        1.07355931       9.82000435       0.03375178       0.40739615      -0.11544460      -0.38286519       0.35459423       0.01973284       0.17263178
C        4.56230496      12.40830427      12.74183329      -1.33302617      -0.04657058      -0.05023075       0.14133364      -0.54343817       0.09318238
Pb       2.28141411       7.71257798      12.58320210       0.04881204      -0.47116269       0.01608377       0.81310170      -1.01111269      -0.98324298
Pb       6.29514567       7.52254150      12.13002195      -0.42745805      -0.09339826       0.07187819       0.85776863       2.92500899      -0.46799630
N        0.66128839      10.82793466      16.55974245      -1.22306728      -0.36166173       0.51484021       0.48103986       0.11103529      -0.22126301
N        5.45074929      12.43122771      11.54467578       0.23565747      -0.45654367      -0.40790778      -0.80319308       0.40652743      -0.34805772
I       13.42009893       0.90099887      10.10987798       0.00732595       0.00346762       0.14351660      -0.50527405      -1.96308167       0.38411522
I        7.80390601       6.48361710       9.74324968       0.21913806      -0.14466934      -0.17076269      -1.13352717      -0.05914980       1.99368188
I       12.25975135       1.66150987      14.10220353       0.19094155      -0.31361012       0.36087644       0.40863215      -0.86709691       1.61016139
I        8.24638745       5.73248326      13.92758318      -0.07383996       0.17096649       0.22504323       0.36072259       0.90828177      -1.70015384
I       11.74298671       4.74297480      11.45932336       0.24752198       0.29352968      -0.02507064       0.25335693       1.21140987      -0.53714787
I       10.14737724       2.62289539      -0.14938115      -0.02430350      -0.49392245       0.17367417      -2.36605620      -1.04201959       0.22158353
H        7.76262487       2.53647370      12.58592910      -0.32971956       0.17509822      -0.13751779       0.00018448       0.03347975       0.03209510
H       12.78352166       5.19869308       6.32332160       0.27787808       0.24395206       0.07534972       0.07411855      -0.22880222      -0.05260719
H        8.88942823       2.05903000      13.98466556      -0.07463558       0.15747385      -0.34697231       0.15195444       0.02426724      -0.03434411
H       13.41764325       4.78441284       8.12687789      -0.21631190       0.35339341      -0.26061908       0.08144479       0.03997760       0.28375372
H        9.37174310       3.40772010      12.86393958       0.13623376       0.75381554      -0.28780967      -0.01904230       0.17440055      -0.07267070
H       11.90713235       3.93145181       7.34995289       0.41139276       0.00605944      -0.25458578      -0.09499783      -0.23197503      -0.09396882
H        9.47802428       1.77687844      11.03159303       0.09771136      -0.17910473      -0.27914924       0.09441337      -0.30878785       0.17219804
H       10.59808619       5.88713776       7.40505023      -0.25768276      -0.46889588      -0.02861091       0.11548146      -0.08857299       0.10143459
H        9.14830713       0.42364235      12.04516834      -0.09141931       0.17192188       0.29987394       0.00778882       0.03793880       0.03776894
H       11.83133449       6.80425920       8.18995080       0.38383762       0.12240325      -0.30788754       0.08798258      -0.03707992       0.11417021
H       10.49492793       1.42840934      12.35035048       0.35952728      -0.53191297       0.06868215       0.07747664       0.25873690       0.06368100
H       11.29773020       5.41415793       8.97831011      -0.55795094       0.01376572       0.20933217      -0.00097940       0.05357361       0.34819560
C        8.81310000       2.45639780      12.92047239      -0.03199419      -1.73328707       0.68850230       0.13789557       0.46060928      -0.10818010
C       12.51337331       4.90254670       7.38235992      -0.82649018      -1.02472184       0.01730906      -0.14357677      -0.38786987       0.51695074
Pb      10.38080767      14.67403267      16.43687995      -0.16512532       0.70161480      -0.30597593      -1.85695904      -0.81257672       0.25310746
Pb       6.44590730      14.91608285      16.54639159       0.08206300       0.12660970      -0.04794040       1.69187599      -1.12872317      -0.20182672
N        9.51099168       1.40950058      12.02944824      -0.17598404       1.16121596      -0.40736547      -0.59372922       0.10717431      -0.12581374
N       11.47665165       5.79557891       7.99514152       0.84395236       0.72487977       0.63034991      -0.48461676      -0.60986484       0.62341880
I       11.91061310       8.51957435      14.29265658       0.01075118       0.02117496      -0.00270242       0.81427618      -0.01446579      -2.04745262
I        8.27161840      13.56449353      14.21532621       0.03226383       0.03330452      -0.20768049      -2.65857546       0.75462911       0.44657256
I       12.13839015       8.99310154       9.78936761      -0.13223635       0.09867475      -0.01273679       1.80028055      -1.18652609      -0.54708858
I        9.23187900      13.05426444       9.67962498       0.01830238      -0.24525331       0.26315251       0.04502065       0.24077499      -2.85518196
I       13.01682572      12.30007721       7.38751715       0.15558580      -0.14495188       0.06996609       1.00940101       0.23726983      -0.91072992
I        8.16925005      10.09731453      12.12044668       0.03348434       0.04542854      -0.05860970      -2.72182723       0.30616405       0.66635663
H        9.70603039       9.22122415       0.11435306       0.00833705      -0.20569491      -0.90094034       0.11043713       0.10985479       0.03746559
H       11.47446273      12.74399470      12.05594572       0.26859253      -0.17929653      -0.17596890       0.16003593      -0.04910609       0.18049117
H        6.97717525       9.83646951      16.08584084      -0.19099988       0.24713264      -0.12534746      -0.03982461      -0.02016183      -0.31974125
H       12.46219988      11.49985604      12.84657872       0.00246576      -1.60233819       0.64831592       0.02764146       0.07036258       0.11223293
H        7.89164410       8.41053757      15.64318861       0.35636307      -1.31244478      -0.48305914       0.05914899      -0.04092911       0.09123370
H       13.00043417      13.22140679      12.88173876      -0.27377413      -0.28882999       0.16439513      -0.09250129      -0.04478312       0.11366283
H        8.96736554      11.16987608      15.96244231       0.24312470      -0.64795855      -0.08350702       0.06106890      -0.06239406      -0.02436130
H       12.94671203      11.50505191      10.41433011       0.67648383       0.24513084       0.82003070       0.02811329       0.02055269      -0.05959802
H        8.70677886      10.53217448      14.41674612       0.00501187      -0.47668710       0.34031273      -0.04295305       0.05922937       0.12516644
H       14.28939772      11.97166791      11.43891236       0.09772876      -0.20206570      -0.48190482      -0.22126050      -0.10311033       0.05641574
H        9.96625609       9.83634623      15.42214024      -0.03989534       0.06249424      -0.08317286      -0.06436219       0.00900621      -0.05575181
H       13.41301545      13.14390174      10.51763316       0.01200296      -0.01257395       0.36244581       0.02127015      -0.14657497      -0.11357258
C        7.97165258       9.34219211      16.13304428       0.05653105       1.55842007       1.34799867       0.46120589       0.33639827      -0.13821173
C       12.49470943      12.40116658      12.30477011      -0.11364162       2.37177801      -0.24700104       0.17101016      -0.75725996      -0.54796667
Pb      10.13769167       7.38713237      11.95571142      -0.06823527      -0.02596996      -0.21710513      -1.56751779       2.92799333       0.53802185
Pb      14.02018953       7.32728780      11.86157533      -0.31850995      -0.20841794       0.08785063       0.44645232      -0.99799713      -1.02671783