768
Lattice="25.489424268572538 -0.0956594233117733 0.005584256169073863 0.09977264370270744 24.739172851202614 0.6001478684267295 -0.002024446371267937 0.5682806783236378 24.75292066089703" Properties=species:S:1:pos:R:3:forces:R:3:momenta:R:3 energy=-3327.761896026211 stress="0.0 0.0 0.0 0.0 0.0 0.0 0.0 0.0 0.0" pbc="T T T"
I        6.60446978      23.93341638       1.36494926      -0.06738835      -0.02554833       0.24339031       0.91177161      -1.36691331      -1.89744083
I        6.00557314       9.85067338       7.44564913       0.16180562       0.15024086       0.20783118       1.77894206      -0.01267224      -2.11039161
I        5.99437437       7.59958107       3.46958920       0.24382240       0.27161477       0.01930860       0.15873002       1.46031187      -0.52107999
I        6.35914982       1.56893036       4.93523424       0.01640885      -0.34796034       0.04636317       1.93588041       1.46778673      -1.76196431
I        0.17832123       9.89180764       7.66164600      -0.25062145       0.25328009      -0.72932146       1.14350731       1.89870633      -1.17785427
I       12.22890044      23.99710516       1.64869360       0.23711606      -0.16848793      -0.19614344       0.01159055       2.44340057       0.85076852
I       12.57786011       1.23195831       5.31004576       0.09360293       0.00816608      -0.23522391      -1.99527548       1.07248434       0.32277163
I        0.43646052       7.72254646       3.16888567      -0.15060172      -0.17670922       0.21896076       0.04064803       0.08317953       2.63068414
I        9.40647679      11.54904540      10.51877466      -0.12938732      -0.14354619      -0.00000336       1.03314067       1.13108748      -0.07137059
I        2.97461804       4.57132495       4.69470276      -0.08957138      -0.12974516      -0.23464880      -0.12270744      -0.13238005       2.22655366
I        2.94717553      23.69634021       4.03227608       0.03511718      -0.04334143      -0.06384708      -0.94607418      -0.00086721      -1.04028662
I        9.50063317      10.56474224       5.06216296      -0.40719418      -0.04186769      -0.05755248      -0.87220025      -0.73251843       0.53804572
H        2.22085647       0.89673384       0.16048498       0.44119846       0.01053399      -0.37828021      -0.00561812      -0.05210362       0.04189572
H        8.85722344       0.50905518       2.22851337      -0.18580042      -0.44686360       1.00122094      -0.22393392      -0.11454309       0.16415097
H       10.35992045       8.37489527       2.25063949       0.94883192       0.19353956       0.20658179      -0.05930227      -0.12128428      -0.00241335
H        2.61160633       0.26742195       8.01264280      -0.12995587      -0.39179683       0.61880832       0.04986014       0.05722768       0.34682849
H        3.52958171       6.62087088       6.99567592       0.48483643      -0.00276395      -0.55478981       0.02333711       0.15769535      -0.02354023
H       10.20869187       1.76822629       2.18838827       1.72185128       1.29115650       0.28755525      -0.02466166      -0.09570299       0.02977624
H       10.23563493       2.95766706       7.80225043      -0.50679841      -0.13960959      -0.47613594       0.04769672      -0.09000429       0.20713574
H        2.01432617       0.66541287       6.34600101       0.24369676      -0.47544984      -0.27222320       0.01343557       0.20067195      -0.18165384
H        4.09598603       0.86683818       0.13800892      -0.56260601      -0.25120781      -0.36815197       0.02659167       0.00081630       0.10003432
H        8.42094042       2.33247734       1.74732510       0.96652315      -0.73812155       0.27573430      -0.08204349      -0.00735473      -0.03455677
H        8.59578133       8.82238967       2.09900853       1.28057901      -0.00772464      -1.40348943       0.05340720       0.09133717       0.07107881
H        3.89460874       0.30037910       6.66912222      -0.98836913       0.58907576       0.23122166      -0.09588120      -0.22758034      -0.11671912
H        4.21608482       2.72505659       1.39794186       0.19544826      -0.34389298       0.85922038      -0.15092333      -0.19056673       0.04821440
H        9.35982843       8.46847497       6.47730627       0.24764975       1.31976306      -0.73864803      -0.10841657      -0.03334971      -0.31633696
H        8.34418864       6.96389086       0.47293560       0.40403264       0.31242872       0.25140506      -0.16911748       0.14421668       0.06408744
H        2.70503096       8.51573782       2.12245761      -0.07285943      -0.36662536      -0.32169282      -0.10882827       0.25477848      -0.28391182
H        3.08926141       1.49715868       2.14132100       0.73478157      -1.03216709       1.63869796      -0.05893512       0.12724227       0.21350207
H        8.43158077       7.16512865       6.76148167      -0.24463987      -0.55930870      -0.24221601       0.03571961      -0.13790906       0.13898906
H        9.01218147       6.32437030       1.89823847      -0.10395424       0.41038492       0.19917661       0.24307258      -0.00531841       0.18460108
H        3.42011086       8.94508442       0.63296778      -0.20234807      -0.32507973       0.07763018       0.09042678       0.06573130       0.18434129
H        2.55586484       2.93201409       1.61871941      -0.87060416       0.47375357      -0.05249544       0.01884411       0.25353353       0.00279522
H       10.29136119       0.60900172       0.19110629      -0.06985202       0.12250545       0.00219862      -0.04669341      -0.05308498       0.28414406
H        9.98429961       6.52703343       0.62044208       1.20381544       0.17228108      -1.11639201       0.04515214      -0.33434895       0.04971814
H        4.36311691       8.26827573       1.88257438      -0.25628600      -0.07614296      -0.09355631       0.22109972       0.07827588       0.26955845
C        2.90983318       7.65921863       7.00386811       0.54032968       0.75233262      -0.06812162      -0.02116468       0.72865615      -0.14857649
C        9.23294621       1.48590836       1.76051623      -2.81638096      -0.07300011      -1.07195462       0.89590247       0.20505474       0.51075686
C        9.33350817       2.57323673       7.23591605      -0.41783977       1.46383510      -1.31940428       0.44646280       0.13554833      -0.42755996
C        2.86336313       0.75633818       7.04045011       0.45442258       0.24132938      -0.90653412       0.59881593       0.39611760       0.55368205
Pb       6.17821407       4.45253315       4.03102343       0.16419666      -0.01136111       0.08801878       0.81858124      -0.59201006       0.17306462
Pb       6.19698888      10.69535791       4.38191668      -0.04035010      -0.14839758      -0.01150053      -2.15745783      -1.27380540       2.16115106
Pb      25.06979021      10.84497999      10.46895662       0.28057907       0.20718479       0.19951216       1.83207314      -3.03310627      -2.62927367
Pb      25.19904375      10.61817973       4.10634515       0.08183182       0.01799624       0.76975080      -0.92367371      -4.73400989      -3.97197964
N        3.26725433       2.20243632       1.45972779       0.07204751       0.98188079      -0.99940307      -0.06401386       0.11516099       0.84504181
N        9.35022300       7.60095142       6.99521260      -0.95873404      -1.27766099       0.97405279       0.14575419      -0.64339171       0.18402579
N        9.20394600       7.00918410       1.10020821      -1.63803406      -0.24641430       0.49210214       0.00711940      -0.04430338       0.22610975
N        3.41444093       8.20716149       1.38633785       1.07313886       0.99989383       0.68480452       0.04497109      -0.43644243       0.02561911
I        6.43048214       5.49968056       7.11609868       0.08235083       0.02486273       0.12305938       2.75430341      -2.63133940      -1.37981772
I        6.00836019       3.78535058       0.98322524       0.16765002       0.12060329      -0.15973751       3.05617951       1.35467663      -1.22329610
I        5.85564221       1.55616121       9.37380753      -0.00851541       0.37684151       0.13648377      -0.43538027      -0.64632178      -1.76597815
I        6.17565911       7.97867925      23.54013649       0.35983195       0.21823925       0.14811649       0.25479404      -1.09627802       2.34514372
I        0.22459710       3.94282524       1.22995333      -0.13337541      -0.07463073      -0.33850938       3.02249336       0.17515643       0.54723524
I       12.40573194       5.56969408       7.01709643      -0.09991569       0.14859014       0.41597407      -0.28017790      -1.80656828       1.48388689
I       12.09033242       7.93350092      23.69774633       0.18556312       0.03208653       0.08892924       0.54926886      -1.35671484       2.43683839
I        0.15499302       1.70882534       9.35669400       0.07254511       0.06967824       0.21207027       0.43890043       0.68327630      -0.15310071
I        9.42905335       4.79076902       3.77753874      -0.23718879       0.06400854       0.19913265      -0.06400047      -0.22564759       0.56263839
I        3.00604825      10.90889652      23.15968020       0.03599439      -0.14581212       0.08597108      -0.30649902      -0.14080506      -1.07138145
I        3.04661575       5.03979601       9.82896372       0.14032535      -0.20427382       0.21570114       0.11293319      -2.17615640      -2.96661219
I        9.46543720       4.99640379      23.32351170       0.18399946      -0.13887600      -0.03918484       0.70720866       1.08964634      -2.34949883
H        3.33571683       8.51229318       6.27784853       0.29963498      -0.49748200       0.74883853       0.18512504      -0.09246451       0.17586180
H        9.35628770       6.86136916       9.07648847      -0.07895530      -0.24622399      -0.48922666       0.11497499       0.20647665       0.05791058
H        8.41037714       2.71286115       7.79676599      -0.07655131      -0.09359407       0.39745418      -0.11997086       0.08632062       0.16209569
H        4.10357014       6.58264520       0.15814366      -1.14467622       0.50192199       0.24296541       0.37310163      -0.13799141      -0.15444931
H        3.23621352       2.23815561      -0.65662065      -0.23049721       0.27207393      -0.35421148      -0.15188596       0.00852197       0.02870007
H       10.26981050       8.36147891       8.74274055       0.46172775      -0.19088256       0.00885488      -0.18894399       0.19812668      -0.06077224
H        9.82498638       9.09391454       0.59330656      -0.19583099      -0.46358831       0.91431025       0.20164203       0.09221350      -0.21750198
H        3.22756563       6.02343838       1.56112060      -0.01588543       0.41915989       0.90978793      -0.07529622       0.07181050       0.10822091
H        1.79736321       7.45907491       6.71833543      -0.73809331      -0.38706953       0.32550400      -0.14132609      -0.01706572       0.06828941
H        8.57907477       8.48684808       8.79610983      -0.45672354      -0.35650506      -0.25383768      -0.34342810      -0.10166832       0.23689482
H        9.13632053       3.16755357       6.24777570       0.43774494      -1.02024227       1.31108081      -0.11378096      -0.15193735      -0.16892970
H        2.24730250       6.86277916       0.35971244      -0.40748782      -0.31179825      -0.91369850       0.02533262      -0.03462723       0.05951019
H        2.96712421       7.31652795       9.03525272      -0.61327246      -0.98097144       0.98016414       0.02339143       0.19084028       0.02711337
H        9.45048620       1.97366484      -0.33797809       0.00466112       0.08343636       0.29617205      -0.29073848       0.11908847      -0.08061091
H        9.63799237       0.58942337       7.86814679      -0.32502042      -0.06431992      -0.63192902       0.05101412       0.11577261      -0.32992839
H        3.70747617       2.41695882       7.89252233       0.99013465       0.60039094       0.04613370      -0.36401168      -0.02341847      -0.06213337
H        2.27321741       8.86711672       8.58254235       0.19608771      -0.20412231       0.49336645       0.08200708       0.22341994       0.13512982
H        8.63459673       0.49969471      -0.05272332       0.29057644       0.57325580       0.40095221       0.06247117       0.13477114       0.20391521
H       10.49261083       1.04970090       6.46123851      -0.90227791      -0.34475987       0.00162385      -0.23991291       0.05609352      -0.15068560
H        2.12733352       2.47370358       7.86284325      -1.20429737       0.16875988       0.62151907      -0.03817362      -0.31840845       0.28166419
H        3.97094798       8.50590346       8.60335673       0.39897813       0.75138937      -0.07406663      -0.03355200       0.14621734       0.03449889
H       10.09993274       6.96296702       6.64984993       0.46925173      -0.19414013       0.10890613       0.24918987      -0.08460668      -0.22291743
H        8.77411255       0.69480554       6.36927264      -1.21250239      -0.22920873      -0.92160387      -0.21656831       0.16567934      -0.06897936
H        2.85333243       2.86866560       6.40366642       0.57849230      -0.88043870       0.98618076       0.19005409      -0.13338865      -0.15246312
C        3.16974004       1.48998982       0.15159071       0.06706113      -0.53967804      -0.22494068       1.12886328      -0.72857606      -0.31944835
C        9.37804298       7.78333699       8.48473315       0.68799721       1.40246224       0.58926255       0.13146752       0.52389502      -0.06070986
C        9.53681915       8.45573072       1.51590978      -2.21303124      -0.23683374       0.21670034       0.42947985       0.89763265       0.61013099
C        3.23294913       6.85783219       0.83210567       0.84427673      -0.87553186      -0.75722777      -0.00831936       0.93519953      -0.09708232
Pb       6.17475845      10.99189966      10.63441756      -0.22525423       0.07995984      -0.19804368       0.72040575       0.23505569      -1.49061248
Pb       6.23747670       4.71303863      10.14773941      -0.00870459       0.02482747       0.14214807      -2.18540217      -1.40898371      -1.84623839
Pb      25.32837061       4.58538588       4.02293308      -0.25750417      -0.07708261       0.45477828      -0.22085147       0.22011515       0.77909486
Pb      25.34942091       4.87648218      10.22001227      -0.26497187      -0.63340857       0.28077930      -2.58771785       0.62186183       1.19867738
N        3.01799207       8.12376695       8.44015650      -0.50422967       0.63399976      -2.19265828      -0.22328242       0.37804107      -0.18404899
N        9.40361047       1.15857357       0.31131301       0.04823618      -0.59916680      -1.06731582       0.53263504      -0.44969083      -0.80977473
N        9.50772570       1.10998594       6.93025913       2.82881640       0.36939825       1.56281837      -0.43284997       0.47731028      -0.81408224
N        2.91877426       2.24050684       7.28755939       0.29021895       0.04149405      -1.26312861       0.52583727       0.04981322      -0.68758781
I        6.61853770      24.08618356      13.94528633      -0.21562529       0.04784592      -0.44733267       0.03526971      -2.55987191      -1.88677484
I        5.81723205      10.30836241      19.99246168       0.13798393       0.05245426      -0.29210754      -2.93901709      -0.51154089       0.05149670
I        5.89153874       8.13208126      15.82845079      -0.15331871      -0.15995119      -0.22289167       1.63885103       1.51991801      -1.09533360
I        6.79741769       1.74454527      16.71685807      -0.05261160       0.24579775       0.23733261      -0.21232083       0.78561182      -0.35993661
I        0.13977490       9.81070481      20.01064541       0.04290862       0.12275521      -0.16109306      -1.26194151      -3.29086600       0.19337449
I       12.46250336      24.15100953      13.90555967      -0.21570805      -0.15672084      -0.19258305      -1.13649820       1.27556901      -1.22590336
I       12.15117577       1.68684502      17.43277339       0.12437442      -0.05820593       0.03804472       0.02355095      -1.99785689       0.43225362
I       -0.21344619       7.80264043      15.98400436       0.25820268       0.17413827      -0.14299407      -0.13709663      -1.08971567       3.00898709
I        9.37336239      11.65794761      22.71055897       0.07348809       0.02961049      -0.01962223      -1.21016769      -2.08351678      -0.83199006
I        3.05483559       4.37224171      16.59947423      -0.23675331       0.08885188       0.04113455       0.84324373       1.88503860       1.18896492
I        3.01120374      23.64560673      16.49531813      -0.30416340      -0.03075300      -0.11751451      -0.05993746       0.38389655       3.66768582
I        9.34676549      10.67283693      16.93535526       0.37477641       0.05608050       0.15157106       1.18824098      -0.25619207       2.67775763
H        1.47811275       0.96880929      12.33140600      -0.00348188      -0.16650851       0.20202493      -0.05118612      -0.08865621      -0.00421404
H        8.82365147       0.47335309      14.50928181      -0.17179944      -0.22933586       0.43601578      -0.00955514      -0.11956245      -0.15594060
H       10.07842140       8.14742441      14.95333314      -2.07399975      -0.33366869      -0.83212969      -0.04598163       0.03474147       0.00138352
H        3.52480145       0.41642209      19.81578325      -0.36919511      -0.84300713       0.75682873      -0.05324759      -0.10110276      -0.16494039
H        4.09781042       7.24442115      18.87918862      -0.26287584       0.32023074      -0.61716093       0.15074848       0.01490445      -0.01908360
H       10.20866544       1.80969371      14.50925601      -0.14439644      -0.22087331       0.28411221      -0.17292771      -0.36393632      -0.20737988
H       10.40579181       3.16954092      20.50836831      -0.90760489       0.26038927      -0.03516753      -0.28461889       0.10044124       0.02529699
H        2.03094773       0.67874728      18.61684476       0.29734140       0.51959498       0.32319610       0.13401800      -0.01110481      -0.09374473
H        3.31747220       0.73020947      12.07583346      -0.12940741      -0.59157158       0.27829650      -0.36788277       0.00340108      -0.18058318
H        8.41698244       2.42153245      14.37431339       0.90196928      -1.20481293      -0.66667868      -0.11697697      -0.05906220      -0.10516760
H        8.10615688       8.57370386      13.70758822       0.72528442       0.60339722       0.71631514       0.13055331       0.22301066       0.08219934
H        3.87926827       1.20493196      18.16579361      -1.19759995       0.57087123       0.59346129       0.11557763       0.33228831      -0.19984197
H        3.73404053       2.31746549      13.89429809       0.87161718       0.36147133      -0.00963040       0.03940922      -0.03875629       0.37614518
H        9.48310690       8.53187777      18.46344640      -0.16867202       0.87267332      -0.80724644      -0.06010834      -0.06076232       0.24552089
H        8.33397604       6.94483411      12.57788558       0.01429907      -0.24268977       0.23662000      -0.03472322      -0.06704821       0.03367866
H        1.89600445       8.75604847      14.26038352       0.87978337      -0.76067206      -0.97833134      -0.05153200      -0.05415647       0.06756490
H        2.65880753       1.23654995      14.58624466      -0.33874809      -1.41469972       0.70331555      -0.15369699      -0.20933072       0.02127391
H        8.77511007       7.17449799      19.06367038      -0.39106100      -0.69344570      -0.10764816       0.10200582      -0.14690788       0.13001501
H        9.22436507       6.17276660      13.93250909      -0.35022299       0.35784871      -0.61433204       0.12523559       0.16008781      -0.01212201
H        2.82210449       9.19161919      12.85683882      -0.22389259      -0.68995644       0.16268568      -0.14724043       0.15458548      -0.12275377
H        2.13923607       2.77465614      13.90956225      -0.65458737      -0.25807633       0.88451055       0.02326771      -0.04593895      -0.04311570
H        9.99078848       0.60840750      12.47537034       0.35988204      -0.12468535       0.11465818      -0.11987356      -0.05860297      -0.04033565
H       10.00479581       6.64852642      12.47855441      -0.25209046       0.20707288       0.52553786       0.01342753      -0.11767481       0.09284592
H        3.55788278       8.91496570      14.33403136      -0.00796050      -0.08263398       0.04261333       0.07674075       0.11586682       0.01904525
C        3.28604715       8.03559062      18.92301888       1.50902979      -0.57126016      -0.24976126      -0.03574272       0.07965629       0.05809895
C        9.14277793       1.51258322      14.10439140       0.21697501       2.13774542       0.32046317       0.60072753       0.28406075       0.17153915
C        9.39125435       3.05342309      20.03070625      -0.43867737      -0.92491318       0.42002090       0.76953739      -0.46854106      -0.09250277
C        3.03232807       1.11285449      19.00691542       1.43033022       0.02201576      -0.81787305      -0.04135186       0.42531197       0.04657138
Pb       6.22140860       5.07080428      16.35071103      -0.29307266      -0.53584489       0.08613612       3.97899121       0.72658709       1.58522687
Pb       6.25169266      11.03335532      16.88049642      -0.21582258       0.16511483       0.03088122      -0.57279421      -0.61000067      -1.60463569
Pb      25.22204885      11.14295204      22.80816951       0.32404084      -0.16634776      -0.37485596       3.21665284      -1.21363776      -0.06331975
Pb      25.28459913      10.82268206      17.00667185      -0.02780598       0.09294961       0.04768593      -3.12099333       2.37748897       2.09364477
N        2.78448045       1.89812994      13.82610238      -0.55010887       1.80505554      -1.64439176      -0.03461608      -0.14033091       0.49669583
N        9.57823483       7.80351393      19.16459771       0.58355846       0.78537182       1.07503319       0.07945102      -0.41792986      -0.46866410
N        9.22815371       6.90541359      13.15786923       1.02543672       0.40374094      -0.43029060      -0.88073039       0.05049510      -0.12870894
N        2.79654905       8.54366155      13.70449948      -0.14603660       1.06302385       1.07788526       0.46555503      -0.91673269       0.44845309
I        6.52882510       6.19730853      19.56609731      -0.03821727      -0.28060698      -0.32926636      -2.48921699      -2.95335046       0.73131201
I        5.88343681       3.87963243      13.28387099       0.02832024       0.13214946       0.11609562       0.51524892      -0.89249418       0.89331738
I        5.98094266       1.98180077      21.46017016      -0.07848885       0.14627486      -0.07483405      -1.78779694      -0.32621682      -0.39423735
I        6.35162166       8.04354946      11.30617210       0.01209437      -0.74542850      -0.09513560      -1.56213052       2.83913298      -0.07256338
I       -0.60549607       3.63987431      13.51316438       0.47222748       0.03990770      -0.29138501       1.15102095       1.35514479      -0.08670044
I       12.23453731       5.44007099      19.62502746       0.01263483       0.02895543      -0.23197412      -1.14548186      -0.62266194       0.39084705
I       12.45887961       7.62359282      11.71848024      -0.04806984       0.36315499      -0.34394489       0.03898972      -1.32891129       1.42941917
I        0.04760729       1.82847028      21.77768970      -0.09879615       0.24571253       0.02744759       3.26716544       1.65259497       0.57419113
I        9.36772923       5.31883717      16.05147124       0.10954170      -0.12508407       0.23768092       0.28818382       1.37886250      -0.65898960
I        2.87325496      10.46066284      10.87303846       0.36508526       0.14602853      -0.03106639      -3.49516607      -2.93497505       0.33065037
I        3.11215006       5.09122493      22.55199193      -0.02285166      -0.01301870      -0.16120487      -1.12604741       0.31296053      -1.80766310
I        9.53152453       4.47182673      10.57757498      -0.47726735      -0.08880073       0.08246326      -0.31077850      -1.84937376      -1.34189087
H        3.72378331       9.11380953      18.51762884      -0.22793426      -0.48805485       0.41534942       0.09360674       0.39868316      -0.17623478
H        9.64696531       7.79178870      21.36857925      -0.07986528      -0.37831727       0.09468698       0.37891881      -0.08530148       0.09506612
H        8.48038642       3.05200870      20.71721330       1.15691108       0.43561743      -0.25947844      -0.08503649      -0.24219375       0.04767031
H        4.12643339       6.88017643      13.01115877      -0.51999535       0.42097521       0.47839562      -0.02359650      -0.09811888      -0.11361291
H        2.62612857       2.24261114      11.78650238      -0.37431945       1.00992544      -0.56454219      -0.18521988       0.06240881       0.08641015
H       10.40630356       9.20592042      20.52861115       0.63499985       0.41573146       0.27528876      -0.31304812      -0.09281920      -0.22381191
H       10.15991945       9.02213354      13.00567169       0.05746116       0.89193635      -1.50667503      -0.31432589       0.12522846      -0.31377321
H        2.98609783       6.50694878      14.44970658      -0.08663496       1.13537298      -1.66577548      -0.13788782       0.07330357      -0.24687364
H        2.35012589       7.65402039      18.32969661      -0.75741855      -0.01363438       0.03174875      -0.13203563       0.27063533      -0.13731584
H        8.63281032       9.12186183      20.58400269      -0.00794881      -0.18875397      -0.03347896      -0.33804291       0.02242738       0.08222754
H        9.26540042       3.74201627      19.17990958      -0.06554021       0.09931580       0.03284984       0.29450917       0.03160027      -0.00998990
H        2.32379036       6.73686249      12.66761948      -0.20125212      -0.27613815      -0.01355589      -0.03920773      -0.02715877      -0.00614508
H        3.15403851       7.08686633      20.92689167       0.34826673      -1.10630567       0.34845076      -0.05281892       0.20484044      -0.02519411
H        9.71516989       2.26508600      12.02758808      -0.58297467       0.31221353       0.24360195       0.04299323      -0.29195443      -0.07172215
H        9.39959206       0.91815021      20.28198418       0.25907601       0.82520012      -0.88354749       0.11098196       0.02394448       0.00966810
H        3.60321055       2.73298496      20.25707009       0.29238352      -0.22826284       0.18893815       0.17893518      -0.03797696      -0.04117467
H        2.24410729       8.46503476      20.86415982       0.51184658      -0.01569356      -0.58275138      -0.15295486      -0.12010419      -0.18835001
H        8.39247619       1.05800231      12.18182685      -1.42348377      -0.71689444      -0.57591670      -0.01593302       0.03852647      -0.06382745
H       10.30885191       1.53824097      18.86647732      -1.48527196       0.05009561       1.06860738       0.01657604      -0.07533130       0.11468359
H        1.90020231       2.54016667      20.33391347       1.69951251      -0.83753410      -1.40030367       0.03576637       0.05651019       0.17501599
H        3.93446531       8.65095499      20.84983396      -0.49066080      -0.46284611      -0.00093000      -0.01703538      -0.16678513       0.05365493
H       10.50933278       7.35949577      18.95917847      -0.24459146      -0.55272474       0.50418929       0.24186640       0.12192404      -0.04214654
H        8.60298052       1.43611651      18.89428760      -0.49925455       0.13044459      -0.45103646      -0.06348584       0.03907130      -0.15076929
H        2.75294187       3.24018591      18.95046032      -0.23844773      -0.00299262      -0.12913389      -0.09341815      -0.21289001      -0.00227939
C        2.49967475       1.39305678      12.42376774       1.27920845      -0.57830324       0.19715854       0.62457664      -0.01703670      -0.66854802
C        9.55837948       8.52127728      20.53347554      -0.29235971      -0.29861721      -0.97014924       0.54855655       0.23912378      -0.35841218
C        9.42957601       8.30172787      13.76690630       0.83658685      -1.54182432       1.75698125      -0.25622700      -1.15746961      -0.43026234
C        3.07870448       7.06702157      13.42459012       0.15711525      -1.02475740       1.27876500      -0.57200712      -0.08129427       0.51639810
Pb       6.24420941      11.21201097      23.01648841      -0.18943345       0.05475692      -0.15623722      -2.42351086      -2.63380503       1.64529993
Pb       6.43664247       4.99581318      22.38904323      -0.12331279      -0.02290313       0.33744387      -2.75494464      -0.35498340      -3.40214949
Pb      25.01985424       4.48715785      16.48258397       0.50816885       0.13068711      -0.21796065       0.92529501       1.30454525       0.32034724
Pb      25.33955472       5.05155007      22.69840523       0.20634198      -0.33440848      -0.09205291      -3.22427260       0.88589994      -0.30674822
N        3.15129525       8.01669645      20.46641768      -0.76748123       2.27537369       0.55329168       0.14170241       0.64665042       0.20670046
N        9.28607289       1.39547057      12.59903934       1.14215536       0.16274658      -0.09682287      -0.48065902       0.13347444       0.19234993