768
Lattice="25.489424268572538 -0.0956594233117733 0.005584256169073863 0.09977264370270744 24.739172851202614 0.6001478684267295 -0.002024446371267937 0.5682806783236378 24.75292066089703" Properties=species:S:1:pos:R:3:forces:R:3:momenta:R:3 pbc="T T T"
I        6.95169144      23.91318218       2.26646114       0.02507342       0.05133189      -0.06990845      -0.03415606       1.43940571      -0.34128408
I        6.41688303      10.13189103       8.21872308      -0.00742245      -0.11804478      -0.12791506      -0.54625108       1.09655533      -0.91218620
I        6.61409712       7.85108980       4.25318571      -0.10829679      -0.11860434      -0.00559823      -1.93054453      -2.90971014       0.74863872
I        6.86526690       1.63884231       5.54074204      -0.07136847      -0.16492211       0.11025530      -0.62629115      -0.41727322       0.66039310
I        0.46753693       9.78754737       8.51840134      -0.05228090       0.20555801      -0.38055782       0.95859856       2.09179085      -1.93494424
I       12.86564780      24.01986558       2.45737294      -0.08877322      -0.16331805       0.26427105       0.31064485      -0.06745571       1.29127796
I       12.60909090       1.49483219       6.07207128       0.17932625      -0.07562300      -0.16825440       1.27337763       0.43856456      -2.68507278
I        0.54249969       7.70699738       4.49125593       0.01195373       0.20229893      -0.00658371       0.66278505       1.13972023       1.22381249
I        9.83186687      11.37981322      10.96606978       0.11206633      -0.08440065      -0.01077313       0.80923091       1.20967745       0.04460748
I        3.61243078       4.23291065       5.56615371      -0.19183732      -0.02940717      -0.10169896      -0.48122924       0.66189398       0.05298460
I        3.58507150      23.56188346       5.06800463      -0.34560167      -0.08976468       0.02577327       1.50439114       2.25074663       0.60757786
I        9.80565474      10.39823480       5.58983044       0.17916317       0.11682144       0.04029944       0.49938968      -0.06799112       0.61455926
H        2.41122671       0.88469790       1.18556230      -0.09434039       0.63775859       0.22201154       0.01737819      -0.11156045       0.12383546
H        9.73908779       0.94930547       3.21915442       0.29131374      -0.11468347       0.30207003       0.16835547      -0.05335702       0.17266019
H       10.70506829       8.47500039       3.20114948       0.46311587      -0.03956576       0.29636212       0.10892948      -0.01018196       0.15431250
H        3.27016808      24.77891845       9.43193342       0.03638759      -0.02174109       0.62171566      -0.05441680      -0.16373396       0.02643428
H        4.49925512       7.37383319       6.90770667      -0.40000997       0.34195905       0.21852316      -0.17185686       0.09102938      -0.01345191
H       10.80711497       2.30692262       2.61862282       0.76171937       0.40520386       0.44817971       0.03671520       0.03014029      -0.08401507
H       10.64503192       2.68557615       8.47851828       0.59936236      -0.27718475       0.20846667      -0.11942260      -0.12061952      -0.00955785
H        2.46131983       0.63720542       7.32313412      -0.02815558       0.24718626       0.16432557       0.02803388      -0.14014068       0.03704838
H        4.14276295       0.74011348       0.87136956      -0.30571270       0.93498547      -0.08522442       0.06352552      -0.15542572       0.00946944
H        9.05294571       2.45928760       2.68801561      -1.06626119       0.87464641       0.15084853      -0.12646792       0.17721026      -0.14400779
H        8.90350734       8.77214934       2.57380981       0.22334436       0.22615169       0.15220872      -0.04021519      -0.01612238       0.03552735
H        4.22999195       0.43400036       7.45500747      -0.27333102       0.54481163       0.37873663       0.00791127       0.15420520       0.04995157
H        4.74235684       2.12231370       2.76093113       0.34043982       1.20113704       0.01348742      -0.06339024      -0.07729782       0.10601888
H        9.85092823       8.16172604       7.02592625      -0.05427897       1.46882746      -1.01656946       0.07312804      -0.21006134       0.03929156
H        8.93557175       6.89086828       1.33866572       0.08260809       0.31817284      -0.09551738       0.07582881      -0.20762207      -0.09081131
H        2.59431778       7.87817173       3.12163099      -0.35690444       0.61930222       0.06984286      -0.37361808      -0.00977663      -0.02243589
H        3.50525787       1.08279073       3.25383240      -0.07790281      -0.63658948       0.30240911      -0.06337073      -0.07350159       0.10147373
H        8.91023487       6.78716003       7.31007236       0.09700805       0.29387721      -0.31685387      -0.04695224       0.02170047      -0.19879930
H        9.82626177       6.42223220       2.68389789      -0.11075324       0.16107538      -0.13384822      -0.06858494       0.09822489       0.19114548
H        3.51224639       8.41766874       1.74068913      -0.46236489       0.92237812      -0.37196067       0.12914642      -0.00299402      -0.15048253
H        2.96867059       2.70688740       2.93868660       1.33595691      -0.44562992      -0.15294308      -0.16495775       0.01463564       0.15496693
H       10.54931247       0.47819028       1.06664960       0.08650225       0.45942545      -0.18005512      -0.05869494       0.00286928       0.17663631
H       10.60653393       6.70947515       1.24631400       0.41011264       0.26617513      -0.34270726       0.20489169       0.13943746       0.10059967
H        4.28590622       7.88767266       3.08112125       0.42846040       0.10766428       0.44168315      -0.15861628       0.08244818      -0.03433536
C        3.50130425       7.80119022       7.25544864      -0.03865503       0.42454351      -0.76802470       0.24463896      -0.42992029       0.18086370
C        9.86494763       1.80019593       2.54258102       0.06110044      -1.06258423      -0.90304435      -0.65718245      -0.05752906       0.12610566
C        9.69179131       2.44189147       8.00942276      -0.36244551       0.65421675      -0.29770126       0.34177471       0.17099744       0.13745910
C        3.31373266       0.75288889       8.01707411       0.02685834      -0.58750289      -1.11317428       0.46182611      -0.08625223       0.68831153
Pb       6.80423694       4.73421431       4.99176669      -0.00347130       0.03522068       0.09445835      -1.42137668       0.25703745       1.05493977
Pb       6.56083069      10.92694705       5.02226054       0.19215936       0.08066609      -0.19856712       2.67389257      -0.86595009      -0.36040504
Pb       0.40624587      11.04236754      11.47863045      -0.31343644      -0.19751526       0.03044868       1.52182346      -0.97517231      -0.14582094
Pb       0.19964576      10.96716768       5.38814929       0.03633998      -0.20069581      -0.09918178       0.28038802      -0.78726026       0.75887404
N        3.67682122       1.89975406       2.63718136      -1.85939534      -0.21845306      -0.14668108      -0.20437874       0.30124848       0.04690735
N        9.79090713       7.31171240       7.54439701      -0.41476810      -2.77948661       1.04858001       0.11722062       0.16675304      -0.54881562
N        9.83495618       7.05901716       1.84716701      -0.16982301      -0.77156590       0.45368842      -0.22678972       0.54680082      -0.18776137
N        3.43070512       7.77504407       2.51988025       0.58204438      -1.10500352      -0.23350071       0.88253731      -0.28777634      -0.18536523
I        6.75956732       5.47063639       8.12370723       0.10130787       0.12789943      -0.10634518      -0.84679900       1.82164773      -1.36236179
I        6.48839210       3.86387158       1.96300160       0.03022255      -0.05926492      -0.01688779       2.08322097       1.10836566      -0.20966065
I        6.37842635       1.77076396      10.26974742      -0.01422468      -0.09335868       0.00901015      -0.29440879       1.75365633      -0.25377280
I        6.84528985       8.13485067      24.62246589       0.03494457       0.13017349      -0.09593747      -0.10274440       1.22870755       2.44505454
I        0.71457001       3.53399061       2.01824503      -0.06824609       0.20563872      -0.08319921      -1.75014632      -0.29690121      -0.08401719
I       12.78856580       5.31449173       8.09680581      -0.00514404       0.08733104       0.10442229       0.67788249      -1.46154804      -1.35525042
I       12.69193161       8.06469738      24.49779286       0.05320140      -0.01658090       0.06600948       2.48164238      -2.00630779       1.28853411
I        0.60771806       1.70714867      10.45857203      -0.05783496      -0.01483730      -0.07457131      -1.40371610       1.21749995      -1.26310992
I        9.94557183       5.05503890       4.77830120       0.07521105      -0.04562414       0.00894625       1.33007053      -1.17157149       0.06823356
I        3.50174505      10.43401184      24.19234282      -0.12556713       0.15819392       0.02849693      -0.03062830       0.85196310      -0.66630892
I        3.54645910       4.99759036      10.65842691      -0.12842941       0.14301735      -0.01606486       1.99426880       0.03493327       2.29624224
I        9.89579350       4.54054240      23.90716436       0.04715099       0.25603272      -0.03246152       0.89163487      -1.84868548       0.63246304
H        3.24229687       8.78616999       6.71948032       0.25996854      -0.50835237       0.05739126       0.03862360       0.11111326      -0.11242016
H        9.62772609       6.50670454       9.56145554      -0.11331231      -0.58372946      -0.10829589       0.16963455       0.07968643      -0.09230547
H        8.90824525       2.70514931       8.76011052      -0.11530990      -0.26836815      -0.29070342       0.18482723      -0.01381764       0.16868972
H        4.20512317       6.23322288       1.24862409       0.19207020       0.03738558       0.07617503       0.00218221      -0.09333284       0.13794151
H        3.25131948       2.40104583       0.58317769       0.23871196      -0.42923740       0.06813878      -0.08249706      -0.05966305       0.00849261
H       10.76285243       7.86500684       9.37527788       0.44165373       0.31415653       0.09588143       0.02282843       0.02801838       0.18847704
H       10.40744874       9.17870852       1.43408215      -0.05072901      -0.68680753       0.51453457       0.16072794      -0.10407771       0.06820997
H        3.39656291       5.68199617       2.78147183      -0.26895948       0.00702104      -0.59782231       0.09539062      -0.07812456       0.01135448
H        2.67817950       7.09417830       7.06183627       0.02193475      -0.16788066       0.14438684      -0.04578042      -0.03181524      -0.06539819
H        9.00412856       8.23252734       9.35942560       0.31235905      -0.52266891      -0.47095471      -0.14449809      -0.08237072      -0.02652700
H        9.60542655       3.09301944       7.09845480      -0.15674677      -0.68103925       0.49506417       0.00921036      -0.10119161       0.08927501
H        2.42561645       6.41677671       1.31824328       0.12688441      -0.53077588       0.40422138      -0.02240927      -0.04828277      -0.01507837
H        3.57086304       7.29761087       9.31537495       0.32990392       0.41159674      -0.19887074       0.04539683      -0.24942037       0.05285665
H        9.89418835       1.95148383       0.39509671      -0.00347029       0.23205328      -0.14726789      -0.01003814      -0.09829601       0.03614366
H        9.72277394       0.30612746       8.41563581      -0.02246747       0.64223484      -0.23498647      -0.17729778      -0.00226847      -0.05836981
H        4.31870914       2.24559655       8.97861078       0.63274631       0.44700173       0.51030209      -0.09372016       0.13150597       0.02826800
H        2.60815541       8.64905461       8.94137910       0.40211739      -0.27670923      -0.12794251      -0.03391169       0.05524548      -0.03794952
H        8.91336556       0.67064716       1.05104253       0.06449765       0.44221356      -0.06739356       0.29872303       0.19406167      -0.13847307
H       10.39951815       0.83114786       6.93745716       0.08688523      -0.12119042       0.01687044      -0.06837478       0.03609282       0.03669803
H        2.62280946       2.37401511       9.22183849       0.79184842      -0.30718075      -0.71353506      -0.16923157       0.07848675       0.20545094
H        4.30269117       8.83246602       8.85819292      -0.14844129      -0.43414766       0.23723257       0.02685883       0.03059166      -0.09152157
H       10.56491313       6.64522363       7.25172858      -0.19298779       0.47922820       0.22514727      -0.05307027      -0.10021458      -0.16744708
H        8.72288014       0.78479549       7.10544626       0.23659782       0.24634472       0.20634211       0.03478029      -0.08959238       0.17032822
H        3.34516135       2.80650612       7.70985321       0.10834231       0.37098866      -0.17905645      -0.07846452       0.09826619      -0.06080892
C        3.34750103       1.49391968       1.21035211       0.53475432      -1.27293740      -0.39090075      -0.47057049       0.01964865      -0.01964636
C        9.78290330       7.46218471       9.03742305      -0.06804898       1.47910230       0.67564666      -0.22659986      -0.09646940       0.20975811
C        9.99704395       8.46953927       2.30204610      -0.92863286       0.58652972      -1.06897576       0.22149745       0.14480716      -0.67277108
C        3.36254922       6.39349832       1.93056062      -0.18495003       0.16758697       0.10409694      -0.02032691       0.21888793      -0.13109230
Pb       6.49476271      11.07929600      11.00031489       0.39199703      -0.15790094       0.63401902      -2.21139065       0.32318680      -0.26270399
Pb       6.55314254       4.91216193      11.27522871       0.53576260       0.04814486       0.02490097       1.81015385       1.36084470       1.35888913
Pb       0.50225955       4.59575398       5.04959115      -0.12760773       0.02879292      -0.09424342       0.70750156      -1.45531808      -1.42159120
Pb       0.48034872       4.78864367      11.21501960      -0.49966169       0.08105661       0.21724411       2.57118516      -0.77553259      -1.23053640
N        3.51719956       8.14610754       8.69626551      -0.38797637       0.04026968       0.48684721       0.62630153      -0.87419353       0.24218306
N        9.80030877       1.23298642       1.15207438      -0.22412162      -1.48844106       0.55815147       0.13214043      -0.13276756      -0.07326054
N        9.62019198       1.00227701       7.61430443      -0.28257764      -0.24885977       0.21888564       0.10038287       0.10370976      -0.44878854
N        3.40708326       2.15506291       8.50511368      -1.18045260      -0.75321070       0.19625036      -0.47636081      -0.51834342       0.12833688
I        6.95067922      24.19732252      14.64292147       0.02507342       0.05133189      -0.06990845      -0.03415606       1.43940571      -0.34128408
I        6.41587081      10.41603137      20.59518341      -0.00742245      -0.11804478      -0.12791506      -0.54625108       1.09655533      -0.91218620
I        6.61308490       8.13523014      16.62964604      -0.10829679      -0.11860434      -0.00559823      -1.93054453      -2.90971014       0.74863872
I        6.86425468       1.92298265      17.91720237      -0.07136847      -0.16492211       0.11025530      -0.62629115      -0.41727322       0.66039310
I        0.46652471      10.07168771      20.89486167      -0.05228090       0.20555801      -0.38055782       0.95859856       2.09179085      -1.93494424
I       12.86463558      24.30400592      14.83383327      -0.08877322      -0.16331805       0.26427105       0.31064485      -0.06745571       1.29127796
I       12.60807868       1.77897253      18.44853161       0.17932625      -0.07562300      -0.16825440       1.27337763       0.43856456      -2.68507278
I        0.54148747       7.99113772      16.86771626       0.01195373       0.20229893      -0.00658371       0.66278505       1.13972023       1.22381249
I        9.83085465      11.66395356      23.34253011       0.11206633      -0.08440065      -0.01077313       0.80923091       1.20967745       0.04460748
I        3.61141856       4.51705099      17.94261404      -0.19183732      -0.02940717      -0.10169896      -0.48122924       0.66189398       0.05298460
I        3.58405928      23.84602380      17.44446496      -0.34560167      -0.08976468       0.02577327       1.50439114       2.25074663       0.60757786
I        9.80464252      10.68237514      17.96629077       0.17916317       0.11682144       0.04029944       0.49938968      -0.06799112       0.61455926
H        2.41021449       1.16883824      13.56202263      -0.09434039       0.63775859       0.22201154       0.01737819      -0.11156045       0.12383546
H        9.73807557       1.23344581      15.59561475       0.29131374      -0.11468347       0.30207003       0.16835547      -0.05335702       0.17266019
H       10.70405607       8.75914073      15.57760981       0.46311587      -0.03956576       0.29636212       0.10892948      -0.01018196       0.15431250
H        3.26915586      25.06305879      21.80839375       0.03638759      -0.02174109       0.62171566      -0.05441680      -0.16373396       0.02643428
H        4.49824290       7.65797353      19.28416700      -0.40000997       0.34195905       0.21852316      -0.17185686       0.09102938      -0.01345191
H       10.80610275       2.59106296      14.99508315       0.76171937       0.40520386       0.44817971       0.03671520       0.03014029      -0.08401507
H       10.64401970       2.96971649      20.85497861       0.59936236      -0.27718475       0.20846667      -0.11942260      -0.12061952      -0.00955785
H        2.46030761       0.92134576      19.69959445      -0.02815558       0.24718626       0.16432557       0.02803388      -0.14014068       0.03704838
H        4.14175073       1.02425382      13.24782989      -0.30571270       0.93498547      -0.08522442       0.06352552      -0.15542572       0.00946944
H        9.05193349       2.74342794      15.06447594      -1.06626119       0.87464641       0.15084853      -0.12646792       0.17721026      -0.14400779
H        8.90249512       9.05628968      14.95027014       0.22334436       0.22615169       0.15220872      -0.04021519      -0.01612238       0.03552735
H        4.22897973       0.71814070      19.83146780      -0.27333102       0.54481163       0.37873663       0.00791127       0.15420520       0.04995157
H        4.74134462       2.40645404      15.13739146       0.34043982       1.20113704       0.01348742      -0.06339024      -0.07729782       0.10601888
H        9.84991601       8.44586638      19.40238658      -0.05427897       1.46882746      -1.01656946       0.07312804      -0.21006134       0.03929156
H        8.93455953       7.17500862      13.71512605       0.08260809       0.31817284      -0.09551738       0.07582881      -0.20762207      -0.09081131
H        2.59330556       8.16231207      15.49809132      -0.35690444       0.61930222       0.06984286      -0.37361808      -0.00977663      -0.02243589
H        3.50424565       1.36693107      15.63029273      -0.07790281      -0.63658948       0.30240911      -0.06337073      -0.07350159       0.10147373
H        8.90922265       7.07130037      19.68653269       0.09700805       0.29387721      -0.31685387      -0.04695224       0.02170047      -0.19879930
H        9.82524955       6.70637254      15.06035822      -0.11075324       0.16107538      -0.13384822      -0.06858494       0.09822489       0.19114548
H        3.51123417       8.70180908      14.11714946      -0.46236489       0.92237812      -0.37196067       0.12914642      -0.00299402      -0.15048253
H        2.96765837       2.99102774      15.31514693       1.33595691      -0.44562992      -0.15294308      -0.16495775       0.01463564       0.15496693
H       10.54830025       0.76233062      13.44310993       0.08650225       0.45942545      -0.18005512      -0.05869494       0.00286928       0.17663631
H       10.60552171       6.99361549      13.62277433       0.41011264       0.26617513      -0.34270726       0.20489169       0.13943746       0.10059967
H        4.28489400       8.17181300      15.45758158       0.42846040       0.10766428       0.44168315      -0.15861628       0.08244818      -0.03433536
C        3.50029203       8.08533056      19.63190897      -0.03865503       0.42454351      -0.76802470       0.24463896      -0.42992029       0.18086370
C        9.86393541       2.08433627      14.91904135       0.06110044      -1.06258423      -0.90304435      -0.65718245      -0.05752906       0.12610566
C        9.69077909       2.72603181      20.38588309      -0.36244551       0.65421675      -0.29770126       0.34177471       0.17099744       0.13745910
C        3.31272044       1.03702923      20.39353444       0.02685834      -0.58750289      -1.11317428       0.46182611      -0.08625223       0.68831153
Pb       6.80322472       5.01835465      17.36822702      -0.00347130       0.03522068       0.09445835      -1.42137668       0.25703745       1.05493977
Pb       6.55981847      11.21108739      17.39872087       0.19215936       0.08066609      -0.19856712       2.67389257      -0.86595009      -0.36040504
Pb       0.40523365      11.32650788      23.85509078      -0.31343644      -0.19751526       0.03044868       1.52182346      -0.97517231      -0.14582094
Pb       0.19863354      11.25130802      17.76460962       0.03633998      -0.20069581      -0.09918178       0.28038802      -0.78726026       0.75887404
N        3.67580900       2.18389440      15.01364169      -1.85939534      -0.21845306      -0.14668108      -0.20437874       0.30124848       0.04690735
N        9.78989491       7.59585274      19.92085734      -0.41476810      -2.77948661       1.04858001       0.11722062       0.16675304      -0.54881562
N        9.83394396       7.34315750      14.22362734      -0.16982301      -0.77156590       0.45368842      -0.22678972       0.54680082      -0.18776137
N        3.42969290       8.05918441      14.89634058       0.58204438      -1.10500352      -0.23350071       0.88253731      -0.28777634      -0.18536523
I        6.75855510       5.75477673      20.50016756       0.10130787       0.12789943      -0.10634518      -0.84679900       1.82164773      -1.36236179
I        6.48737988       4.14801192      14.33946193       0.03022255      -0.05926492      -0.01688779       2.08322097       1.10836566      -0.20966065
I        6.37741413       2.05490430      22.64620775      -0.01422468      -0.09335868       0.00901015      -0.29440879       1.75365633      -0.25377280
I        6.84630208       7.85071033      12.24600556       0.03494457       0.13017349      -0.09593747      -0.10274440       1.22870755       2.44505454
I        0.71355779       3.81813095      14.39470536      -0.06824609       0.20563872      -0.08319921      -1.75014632      -0.29690121      -0.08401719
I       12.78755358       5.59863207      20.47326614      -0.00514404       0.08733104       0.10442229       0.67788249      -1.46154804      -1.35525042
I       12.69294384       7.78055704      12.12133253       0.05320140      -0.01658090       0.06600948       2.48164238      -2.00630779       1.28853411
I        0.60670584       1.99128901      22.83503236      -0.05783496      -0.01483730      -0.07457131      -1.40371610       1.21749995      -1.26310992
I        9.94455961       5.33917924      17.15476153       0.07521105      -0.04562414       0.00894625       1.33007053      -1.17157149       0.06823356
I        3.50275728      10.14987150      11.81588249      -0.12556713       0.15819392       0.02849693      -0.03062830       0.85196310      -0.66630892
I        3.54544688       5.28173070      23.03488724      -0.12842941       0.14301735      -0.01606486       1.99426880       0.03493327       2.29624224
I        9.89680573       4.25640206      11.53070403       0.04715099       0.25603272      -0.03246152       0.89163487      -1.84868548       0.63246304
H        3.24128465       9.07031033      19.09594065       0.25996854      -0.50835237       0.05739126       0.03862360       0.11111326      -0.11242016
H        9.62671387       6.79084488      21.93791587      -0.11331231      -0.58372946      -0.10829589       0.16963455       0.07968643      -0.09230547
H        8.90723303       2.98928965      21.13657085      -0.11530990      -0.26836815      -0.29070342       0.18482723      -0.01381764       0.16868972
H        4.20411095       6.51736322      13.62508442       0.19207020       0.03738558       0.07617503       0.00218221      -0.09333284       0.13794151
H        3.25030726       2.68518617      12.95963802       0.23871196      -0.42923740       0.06813878      -0.08249706      -0.05966305       0.00849261
H       10.76184021       8.14914718      21.75173821       0.44165373       0.31415653       0.09588143       0.02282843       0.02801838       0.18847704
H       10.40643652       9.46284886      13.81054248      -0.05072901      -0.68680753       0.51453457       0.16072794      -0.10407771       0.06820997
H        3.39555069       5.96613651      15.15793216      -0.26895948       0.00702104      -0.59782231       0.09539062      -0.07812456       0.01135448
H        2.67716728       7.37831864      19.43829660       0.02193475      -0.16788066       0.14438684      -0.04578042      -0.03181524      -0.06539819
H        9.00311634       8.51666768      21.73588593       0.31235905      -0.52266891      -0.47095471      -0.14449809      -0.08237072      -0.02652700
H        9.60441433       3.37715978      19.47491513      -0.15674677      -0.68103925       0.49506417       0.00921036      -0.10119161       0.08927501
H        2.42460423       6.70091705      13.69470361       0.12688441      -0.53077588       0.40422138      -0.02240927      -0.04828277      -0.01507837
H        3.56985082       7.58175121      21.69183528       0.32990392       0.41159674      -0.19887074       0.04539683      -0.24942037       0.05285665
H        9.89317613       2.23562417      12.77155704      -0.00347029       0.23205328      -0.14726789      -0.01003814      -0.09829601       0.03614366
H        9.72176172       0.59026780      20.79209614      -0.02246747       0.64223484      -0.23498647      -0.17729778      -0.00226847      -0.05836981
H        4.31769692       2.52973689      21.35507111       0.63274631       0.44700173       0.51030209      -0.09372016       0.13150597       0.02826800
H        2.60714319       8.93319495      21.31783943       0.40211739      -0.27670923      -0.12794251      -0.03391169       0.05524548      -0.03794952
H        8.91235334       0.95478750      13.42750286       0.06449765       0.44221356      -0.06739356       0.29872303       0.19406167      -0.13847307
H       10.39850593       1.11528820      19.31391749       0.08688523      -0.12119042       0.01687044      -0.06837478       0.03609282       0.03669803
H        2.62179724       2.65815545      21.59829882       0.79184842      -0.30718075      -0.71353506      -0.16923157       0.07848675       0.20545094
H        4.30167895       9.11660636      21.23465325      -0.14844129      -0.43414766       0.23723257       0.02685883       0.03059166      -0.09152157
H       10.56390091       6.92936397      19.62818891      -0.19298779       0.47922820       0.22514727      -0.05307027      -0.10021458      -0.16744708
H        8.72186792       1.06893583      19.48190659       0.23659782       0.24634472       0.20634211       0.03478029      -0.08959238       0.17032822
H        3.34414913       3.09064646      20.08631354       0.10834231       0.37098866      -0.17905645      -0.07846452       0.09826619      -0.06080892
C        3.34648881       1.77806002      13.58681244       0.53475432      -1.27293740      -0.39090075      -0.47057049       0.01964865      -0.01964636
C        9.78189108       7.74632505      21.41388338      -0.06804898       1.47910230       0.67564666      -0.22659986      -0.09646940       0.20975811
C        9.99603173       8.75367961      14.67850643      -0.92863286       0.58652972      -1.06897576       0.22149745       0.14480716      -0.67277108
C        3.36153700       6.67763866      14.30702095      -0.18495003       0.16758697       0.10409694      -0.02032691       0.21888793      -0.13109230
Pb       6.49375049      11.36343634      23.37677522       0.39199703      -0.15790094       0.63401902      -2.21139065       0.32318680      -0.26270399
Pb       6.55213032       5.19630227      23.65168904       0.53576260       0.04814486       0.02490097       1.81015385       1.36084470       1.35888913
Pb       0.50124733       4.87989432      17.42605148      -0.12760773       0.02879292      -0.09424342       0.70750156      -1.45531808      -1.42159120
Pb       0.47933650       5.07278401      23.59147993      -0.49966169       0.08105661       0.21724411       2.57118516      -0.77553259      -1.23053640
N        3.51618734       8.43024788      21.07272584      -0.38797637       0.04026968       0.48684721       0.62630153      -0.87419353       0.24218306
N        9.79929655       1.51712676      13.52853471      -0.22412162      -1.48844106       0.55815147       0.13214043      -0.13276756      -0.07326054