768
Lattice="38.36233378009021 -0.17091669423460434 -0.23415642229604455 0.13860846621712591 21.550492846406996 -0.023849043928523623 -0.012701609790407587 0.03213069133637567 18.81004073834508" Properties=species:S:1:pos:R:3:forces:R:3:momenta:R:3 pbc="T T T"
I       18.45975865       4.76365054       3.94571947       0.16946074      -0.01358382      -0.22481822      -0.14970908       2.02981519      -0.96035330
I       18.31015955       8.26120601       1.88109447       0.12196107      -0.11544350      -0.15501969      -0.15681897       0.63038797      -1.48733443
I        8.80574844      10.57873622       4.23662071      -0.02098363      -0.06457542       0.01421577      -1.79894364      -1.39256047       0.88662827
I        9.01939794       3.15081815       1.84612585       0.13858571       0.17875435       0.14434501       0.66946167       1.10218232       0.80231161
I       16.58264319       1.62557576       1.80819522      -0.14559926       0.17317374      -0.13444450       1.19516719       2.30993317      -0.01064343
I        1.52939769      11.71314611       4.01959359      -0.04122296      -0.06994083       0.00534163       0.63444483      -1.04611530       0.14659164
I       10.69593601       7.19467810       1.98237771       0.10811528       0.00800914       0.09855218       1.01232793       0.92364827      -0.87417339
I        6.85554704       6.24136115       4.32515999       0.19446358       0.26097631      -0.17476416       2.20388120       0.27168615       0.76563369
I        3.28657196       4.27222768       1.66426147       0.00211135       0.14000271       0.10714809       0.60160501       2.82674971       0.28197635
I       14.66833199       9.19465796       4.33346551      -0.12244933      -0.02301105      -0.15460952      -0.76127708      -0.42639186       0.39936282
I        4.79170521       9.86364736       1.79371998      -0.04802345      -0.15325674       0.05267453       1.57647365       2.28811235       0.41372111
I       12.95831283       3.72090111       3.98405357      -0.22570930      -0.09366715       0.07070732      -1.06501066       0.81098699       1.35826669
H        5.91168040       3.46690599       3.44838393       0.14366442       0.92617467      -0.57610317       0.17668870       0.30714284       0.02816827
H       12.00476076      10.23418000       2.55537313       0.30115627       0.17968557       0.07803931      -0.18964395      -0.10796552       0.08314921
H        2.31405951       8.41623703       5.16379915      -0.13125370       0.41227596       0.15451784       0.01961530       0.13598565       0.13813390
H       14.95958621       4.77184075       0.80197904      -0.62772275      -0.85122176      -0.48620271      -0.12429946      -0.09066953       0.00125838
H        6.98355015       2.51585525       4.61625420      -0.26819445       0.23036713       0.40477592      -0.08942805      -0.14962276      -0.06258773
H       11.08910121      11.82657916       2.21167882      -0.21485987       0.57447021       0.41429410       0.02434408       0.10132075      -0.02974006
H        1.47626978       7.91412069       3.60561093       0.34439692       0.03555582       0.61530979      -0.15860269       0.07435585      -0.02455065
H       15.96681228       6.22417524       0.88782180       0.41553687       0.98982389      -0.26131082       0.17413458      -0.02498951      -0.03613618
H        6.55241713       1.79831431       3.06663274       0.01636812       0.19861036      -0.29547789      -0.17059258       0.14583945       0.01196767
H       11.40559507      10.55056194       0.85738950      -0.16016001       0.17467546      -0.11385097      -0.06252302       0.13377654       0.11289311
H        1.65347810       6.74959208       4.97272209       0.05384056      -0.08784140       0.05353509       0.01660798      -0.04424467      -0.05980652
H       15.99035959       5.00064261       2.25818957      -0.43560542       0.53664363      -0.22788902      -0.11479431      -0.00333730       0.21372254
H        5.02693687       0.82033107       4.61787294      -0.15964362      -0.03533155       0.26729086      -0.03377186       0.08667973      -0.23071554
H       13.11657056      12.43315403       0.74892660      -0.18433221       0.28090630      -0.10144291      -0.02482907      -0.15486213       0.31824954
H        3.98557916       7.92697615       3.38663249      -0.74622421      -0.29398520       0.34198812       0.09392947      -0.19127982       0.03420859
H       13.68371696       6.89055231       1.20498720      -0.35120875       0.07906754       0.29732110       0.07311948       0.00002316      -0.03555960
H        4.14185972       2.06196709       3.61342860      -0.04685384      -0.25321052      -0.01296867      -0.09399045       0.07946755       0.14296276
H       13.73754479      10.85339939       1.14053658       0.89502518      -0.32774397      -0.86173219       0.00596986       0.02551088      -0.03697081
H        3.22429438       6.40037133       3.22964859       0.11204495      -0.60338882      -0.64552209      -0.18060236      -0.05482719      -0.05258960
H       14.45430441       7.15191277       2.65161414       0.18996623       0.54765873       0.69170645      -0.05486877      -0.16153318      -0.20831663
H        4.62104750       2.49767095       5.25039734      -0.11295975      -0.46007243       0.01032539      -0.39158802      -0.00587198       0.03077127
H       13.68348208      12.05362275       2.37786204      -0.49975381      -0.00676926      -0.76356839       0.13642265      -0.14215370      -0.14979212
H        4.09980986       6.72360192       4.54912204       0.26816982       0.03189828       1.02483440      -0.15463642      -0.03830800       0.03247908
H       13.40030437       5.70348084       2.49314041       0.15890289      -0.35223787       0.43481158       0.01501638      -0.00921140       0.02471132
C        6.18306989       2.49741267       3.84471541       0.04323338      -1.61283647      -0.11219068       0.51078405      -0.41705671       0.58972254
C       11.82824637      11.05100320       1.82309875       0.29932710      -0.26028513      -0.50796709       0.73079348      -0.19067408      -0.28483703
C        2.12625813       7.60056218       4.46349184      -0.36598761       0.23561131      -0.48910487       0.55836485       0.06457739       0.61037146
C       15.33539735       5.55820068       1.46918398       0.51455596      -0.57206668       1.55976697       0.12017602      -0.14641480       0.23503882
Pb       0.39366440       2.91685419       1.56845332       0.04516509       0.17619816      -0.03125542      -1.52043372      -1.09521034       0.44801083
Pb      17.63059857      10.36955910       4.11678138       0.00414327      -0.08412327       0.05786311       2.28759988      -1.87744013       0.19514862
Pb       7.74024116       8.71078792       1.96131130      -0.00712004      -0.23142152      -0.25914266       1.25674680       0.34308166      -1.93285342
Pb       9.96261708       5.09174867       4.34013316      -0.05195977      -0.37519188      -0.21086388       0.61177758      -2.28539831      -2.01815101
N        4.91956524       1.89117877       4.37583742       0.17382933       1.06817930       0.26297149       0.05932140      -0.33620394      -0.77322159
N       13.18479970      11.67855645       1.48491327      -0.31767274      -0.73821339       1.99851213      -0.49565025       0.70191768       0.21657011
N        3.41541666       7.16800708       3.89685685       0.56210177       0.30489651      -1.07480439       0.88621445       0.31428745      -0.06156288
N       14.14939070       6.35923117       2.05045429       0.35158337      -0.34542287      -2.13233081      -0.15316229       0.15549197       0.19462069
I       18.48737919       4.80283053       8.61868313       0.12390555      -0.02937553      -0.01298384      -1.33568344       2.20969011      -1.00358945
I       18.52375165       8.52199097       6.41764087       0.01854298      -0.27742945       0.17904866       1.85957374      -1.38055161       0.50516070
I        8.81806746      10.48844157       8.90018406      -0.17122280      -0.22892047       0.01909875      -0.89454874       0.61782501      -0.07575567
I        8.86055371       3.16777730       6.83201435       0.14679250      -0.13516213      -0.48229373       0.54888621      -0.35569981      -0.16954628
I       16.74008570       1.55387893       6.63024499      -0.22766640       0.27193793      -0.13238432      -2.94714868       1.24807506      -0.65426983
I        1.42844888      11.51611430       8.65692986      -0.32172202       0.20335164       0.12673477      -1.34225907      -1.10329601      -1.28749093
I       10.97635790       7.17628960       6.57639319      -0.05357456       0.10463768      -0.02072041       2.96394293      -0.82836947       1.24849632
I        7.00196060       6.47946780       8.97065962       0.40208821      -0.10849989       0.01910443       1.49566259       1.21353932      -0.51454298
I        3.55067761       4.35846053       6.58867793      -0.08874264       0.11070877      -0.15806439      -0.22084382       0.90787499      -0.30128140
I       14.47599536       8.76803910       9.03010686       0.01186984       0.29059297      -0.15167383       1.20520408       0.95588301      -1.63064022
I        4.97232950       9.66115171       6.39761996      -0.01381289      -0.00288190      -0.05151235       1.77723775      -0.59367325       2.35756162
I       12.96445330       3.41537495       8.46915036       0.00771912       0.15312791       0.06045619       0.97013912      -2.76417288       1.86206686
H        6.43251212       1.66979960       9.94087789      -0.02472132       0.44783391      -0.11877713      -0.04147680      -0.05362154       0.12259391
H       11.03466900      11.08949453       6.73685798       0.47636103       0.15611986       0.47824483       0.01112953       0.00596561       0.11908001
H        2.38853106       8.57810620       7.95030774      -0.04212554       0.25867772      -0.24591119       0.14243879       0.03407756       0.16824646
H       15.48652577       4.85674680       7.26312128       0.68417107       0.05607642      -0.38657796       0.32677412      -0.00122512       0.09468915
H        6.59731672       2.87277619       8.55951192       0.51399265      -0.12653111      -0.10394512      -0.16638241      -0.01243605      -0.02303986
H       11.60883161      11.80428175       5.16960242       0.65097539      -0.49413858       0.30460979       0.16260942      -0.22355468       0.08418366
H        1.62056980       6.93747318       8.17132850      -0.05597466      -0.16648263       0.07901843       0.01447902      -0.13369419      -0.00155859
H       16.04955608       5.25338598       5.43933983      -0.11538892      -0.37726610      -0.34178581       0.23282560       0.04568644       0.00317195
H        5.51943753       3.34378236       9.91934675       0.06629303      -0.30442533       0.30425955      -0.01626987      -0.08874457      -0.17276159
H       11.82963725       9.95355261       5.55779877      -0.01363345       0.13551362      -0.22727228      -0.21148211      -0.03033863      -0.03299222
H        1.95628534       8.07529586       9.66540917      -0.82171512       0.01733179       0.47548323      -0.15407679       0.00257613      -0.03263803
H       16.39722769       6.44855957       6.82122794      -0.39192728       0.03290989      -0.07048651      -0.00060645      -0.20471154       0.04581894
H        4.15981141       2.50487150       8.10246599       0.25112534       0.14034727      -0.06856873       0.21549778      -0.19814434       0.06630916
H       13.35397070      12.22661827       6.86433639       0.22376149      -0.26448806      -0.20213047       0.00648266      -0.05270673      -0.13485581
H        4.33641534       7.85472224       9.37194687       0.43063218       0.97195369       0.19943669       0.11552074       0.31697817       0.05975015
H       14.26149339       6.99998957       5.67536087      -0.42978133      -0.48239201       0.03932302      -0.00725870       0.00536055      -0.07229877
H        4.10262648       1.41374367       9.35642295      -0.54478856      -0.49918910       0.07472410      -0.12807561      -0.01896183      -0.15917908
H       14.05125156      11.09017721       5.63601104      -0.97582381       0.01506733       0.93874195      -0.21286153       0.09639384      -0.09237995
H        4.25110765       6.92024280       7.93983288       0.07630908       0.21154082      -0.13212070       0.13918193       0.15645309      -0.13243612
H       13.65096477       6.49529098       7.17649169       1.33461684      -0.47999154      -0.64440872      -0.19886247      -0.06211270       0.15042712
H        4.98827924       1.03943240       7.96760862       0.19251706      -1.41471728      -0.53549554       0.04309027       0.00241172      -0.09851271
H       13.56744735      10.50776526       7.14554934      -0.16017645      -0.18866022       0.34671656       0.26871963      -0.01416403       0.03625771
H        3.76185593       6.33354510       9.45955763      -0.14533712       0.37829566      -0.50240142       0.00445200      -0.02132327       0.12852184
H       13.51988549       5.44055633       5.81336635       0.12715921      -0.23321050      -0.28037065       0.05574020      -0.05912180      -0.07714425
C        5.94427652       2.46326171       9.35163138      -1.18853349      -0.39896613      -1.08658001      -0.31335435      -0.42183421       0.24590724
C       11.86906656      11.01412637       5.95628055      -0.85787243       0.15646599      -0.75889401       0.24431453       0.36239457       0.40565628
C        2.28770800       7.72530698       8.62238301       1.91453465      -0.30324218       0.18954877      -0.36976881      -0.01105856      -0.33060613
C       15.65056708       5.62864466       6.44313464      -1.29885141      -0.15707562       1.35806392      -0.11582634      -0.38438473       0.29943727
Pb       0.49474831       3.15505414       6.24201442       0.05091548      -0.17175911       0.41325612      -1.72816488       0.16561461      -0.40634897
Pb      17.48936386      10.22884730       8.91665461       0.03227386      -0.18332951      -0.06561052      -0.33881286       0.51155243       0.96134401
Pb       7.90072911       8.50844599       6.48119250      -0.09455151       0.05284638       0.30996603       0.49719205      -0.61468897       0.71837158
Pb      10.13655840       4.91101468       8.89430297      -0.29221185       0.20499910       0.29984276       3.14648689       0.16005162      -1.05946688
N        4.72418721       1.77914697       8.61904885       0.90786613       2.01922997       1.59486269       0.06022284      -0.80062457       0.80255481
N       13.27572047      11.23280240       6.44062867       0.66875221       0.56735335      -0.68604792      -0.40464796      -0.87258862       0.12742046
N        3.76621886       7.20084771       8.83445059      -1.50816135      -1.38702662       0.09275966       0.63134622       0.52391900      -0.17763047
N       14.17557909       6.13602796       6.28174128       0.18293332       1.73946872       0.41025319       0.02515830      -0.18791596      -0.14096354
I       18.45340785       4.77971589      13.35073984       0.16946074      -0.01358382      -0.22481822      -0.14970908       2.02981519      -0.96035330
I       18.30380875       8.27727136      11.28611484       0.12196107      -0.11544350      -0.15501969      -0.15681897       0.63038797      -1.48733443
I        8.79939764      10.59480157      13.64164108      -0.02098363      -0.06457542       0.01421577      -1.79894364      -1.39256047       0.88662827
I        9.01304714       3.16688350      11.25114622       0.13858571       0.17875435       0.14434501       0.66946167       1.10218232       0.80231161
I       16.57629239       1.64164111      11.21321559      -0.14559926       0.17317374      -0.13444450       1.19516719       2.30993317      -0.01064343
I        1.52304689      11.72921146      13.42461396      -0.04122296      -0.06994083       0.00534163       0.63444483      -1.04611530       0.14659164
I       10.68958521       7.21074345      11.38739808       0.10811528       0.00800914       0.09855218       1.01232793       0.92364827      -0.87417339
I        6.84919624       6.25742650      13.73018036       0.19446358       0.26097631      -0.17476416       2.20388120       0.27168615       0.76563369
I        3.28022116       4.28829303      11.06928184       0.00211135       0.14000271       0.10714809       0.60160501       2.82674971       0.28197635
I       14.66198119       9.21072331      13.73848588      -0.12244933      -0.02301105      -0.15460952      -0.76127708      -0.42639186       0.39936282
I        4.78535441       9.87971271      11.19874035      -0.04802345      -0.15325674       0.05267453       1.57647365       2.28811235       0.41372111
I       12.95196203       3.73696646      13.38907394      -0.22570930      -0.09366715       0.07070732      -1.06501066       0.81098699       1.35826669
H        5.90532960       3.48297134      12.85340430       0.14366442       0.92617467      -0.57610317       0.17668870       0.30714284       0.02816827
H       11.99840996      10.25024535      11.96039350       0.30115627       0.17968557       0.07803931      -0.18964395      -0.10796552       0.08314921
H        2.30770871       8.43230238      14.56881952      -0.13125370       0.41227596       0.15451784       0.01961530       0.13598565       0.13813390
H       14.95323541       4.78790610      10.20699941      -0.62772275      -0.85122176      -0.48620271      -0.12429946      -0.09066953       0.00125838
H        6.97719935       2.53192060      14.02127457      -0.26819445       0.23036713       0.40477592      -0.08942805      -0.14962276      -0.06258773
H       11.08275041      11.84264451      11.61669919      -0.21485987       0.57447021       0.41429410       0.02434408       0.10132075      -0.02974006
H        1.46991898       7.93018604      13.01063130       0.34439692       0.03555582       0.61530979      -0.15860269       0.07435585      -0.02455065
H       15.96046148       6.24024059      10.29284217       0.41553687       0.98982389      -0.26131082       0.17413458      -0.02498951      -0.03613618
H        6.54606633       1.81437966      12.47165311       0.01636812       0.19861036      -0.29547789      -0.17059258       0.14583945       0.01196767
H       11.39924427      10.56662729      10.26240987      -0.16016001       0.17467546      -0.11385097      -0.06252302       0.13377654       0.11289311
H        1.64712730       6.76565743      14.37774246       0.05384056      -0.08784140       0.05353509       0.01660798      -0.04424467      -0.05980652
H       15.98400879       5.01670796      11.66320994      -0.43560542       0.53664363      -0.22788902      -0.11479431      -0.00333730       0.21372254
H        5.02058607       0.83639642      14.02289331      -0.15964362      -0.03533155       0.26729086      -0.03377186       0.08667973      -0.23071554
H       13.11021976      12.44921938      10.15394697      -0.18433221       0.28090630      -0.10144291      -0.02482907      -0.15486213       0.31824954
H        3.97922836       7.94304150      12.79165286      -0.74622421      -0.29398520       0.34198812       0.09392947      -0.19127982       0.03420859
H       13.67736616       6.90661766      10.61000757      -0.35120875       0.07906754       0.29732110       0.07311948       0.00002316      -0.03555960
H        4.13550892       2.07803244      13.01844897      -0.04685384      -0.25321052      -0.01296867      -0.09399045       0.07946755       0.14296276
H       13.73119399      10.86946474      10.54555695       0.89502518      -0.32774397      -0.86173219       0.00596986       0.02551088      -0.03697081
H        3.21794358       6.41643668      12.63466896       0.11204495      -0.60338882      -0.64552209      -0.18060236      -0.05482719      -0.05258960
H       14.44795361       7.16797812      12.05663451       0.18996623       0.54765873       0.69170645      -0.05486877      -0.16153318      -0.20831663
H        4.61469670       2.51373630      14.65541771      -0.11295975      -0.46007243       0.01032539      -0.39158802      -0.00587198       0.03077127
H       13.67713128      12.06968810      11.78288241      -0.49975381      -0.00676926      -0.76356839       0.13642265      -0.14215370      -0.14979212
H        4.09345906       6.73966727      13.95414241       0.26816982       0.03189828       1.02483440      -0.15463642      -0.03830800       0.03247908
H       13.39395357       5.71954619      11.89816078       0.15890289      -0.35223787       0.43481158       0.01501638      -0.00921140       0.02471132
C        6.17671909       2.51347802      13.24973578       0.04323338      -1.61283647      -0.11219068       0.51078405      -0.41705671       0.58972254
C       11.82189557      11.06706855      11.22811912       0.29932710      -0.26028513      -0.50796709       0.73079348      -0.19067408      -0.28483703
C        2.11990733       7.61662753      13.86851221      -0.36598761       0.23561131      -0.48910487       0.55836485       0.06457739       0.61037146
C       15.32904655       5.57426603      10.87420435       0.51455596      -0.57206668       1.55976697       0.12017602      -0.14641480       0.23503882
Pb       0.38731360       2.93291954      10.97347369       0.04516509       0.17619816      -0.03125542      -1.52043372      -1.09521034       0.44801083
Pb      17.62424777      10.38562445      13.52180175       0.00414327      -0.08412327       0.05786311       2.28759988      -1.87744013       0.19514862
Pb       7.73389036       8.72685327      11.36633167      -0.00712004      -0.23142152      -0.25914266       1.25674680       0.34308166      -1.93285342
Pb       9.95626628       5.10781402      13.74515353      -0.05195977      -0.37519188      -0.21086388       0.61177758      -2.28539831      -2.01815101
N        4.91321444       1.90724412      13.78085779       0.17382933       1.06817930       0.26297149       0.05932140      -0.33620394      -0.77322159
N       13.17844890      11.69462180      10.88993364      -0.31767274      -0.73821339       1.99851213      -0.49565025       0.70191768       0.21657011
N        3.40906586       7.18407243      13.30187722       0.56210177       0.30489651      -1.07480439       0.88621445       0.31428745      -0.06156288
N       14.14303990       6.37529652      11.45547466       0.35158337      -0.34542287      -2.13233081      -0.15316229       0.15549197       0.19462069
I       18.48102839       4.81889588      18.02370350       0.12390555      -0.02937553      -0.01298384      -1.33568344       2.20969011      -1.00358945
I       18.51740085       8.53805632      15.82266124       0.01854298      -0.27742945       0.17904866       1.85957374      -1.38055161       0.50516070
I        8.81171666      10.50450692      18.30520443      -0.17122280      -0.22892047       0.01909875      -0.89454874       0.61782501      -0.07575567
I        8.85420291       3.18384265      16.23703472       0.14679250      -0.13516213      -0.48229373       0.54888621      -0.35569981      -0.16954628
I       16.73373490       1.56994428      16.03526536      -0.22766640       0.27193793      -0.13238432      -2.94714868       1.24807506      -0.65426983
I        1.42209808      11.53217965      18.06195023      -0.32172202       0.20335164       0.12673477      -1.34225907      -1.10329601      -1.28749093
I       10.97000710       7.19235495      15.98141356      -0.05357456       0.10463768      -0.02072041       2.96394293      -0.82836947       1.24849632
I        6.99560980       6.49553315      18.37567999       0.40208821      -0.10849989       0.01910443       1.49566259       1.21353932      -0.51454298
I        3.54432681       4.37452588      15.99369830      -0.08874264       0.11070877      -0.15806439      -0.22084382       0.90787499      -0.30128140
I       14.46964456       8.78410445      18.43512723       0.01186984       0.29059297      -0.15167383       1.20520408       0.95588301      -1.63064022
I        4.96597870       9.67721706      15.80264033      -0.01381289      -0.00288190      -0.05151235       1.77723775      -0.59367325       2.35756162
I       12.95810250       3.43144030      17.87417073       0.00771912       0.15312791       0.06045619       0.97013912      -2.76417288       1.86206686
H        6.43886292       1.65373425       0.53585752      -0.02472132       0.44783391      -0.11877713      -0.04147680      -0.05362154       0.12259391
H       11.02831820      11.10555988      16.14187835       0.47636103       0.15611986       0.47824483       0.01112953       0.00596561       0.11908001
H        2.38218026       8.59417155      17.35532811      -0.04212554       0.25867772      -0.24591119       0.14243879       0.03407756       0.16824646
H       15.48017497       4.87281215      16.66814165       0.68417107       0.05607642      -0.38657796       0.32677412      -0.00122512       0.09468915
H        6.59096592       2.88884154      17.96453229       0.51399265      -0.12653111      -0.10394512      -0.16638241      -0.01243605      -0.02303986
H       11.60248081      11.82034710      14.57462279       0.65097539      -0.49413858       0.30460979       0.16260942      -0.22355468       0.08418366
H        1.61421900       6.95353853      17.57634887      -0.05597466      -0.16648263       0.07901843       0.01447902      -0.13369419      -0.00155859
H       16.04320528       5.26945133      14.84436020      -0.11538892      -0.37726610      -0.34178581       0.23282560       0.04568644       0.00317195
H        5.52578833       3.32771701       0.51432638       0.06629303      -0.30442533       0.30425955      -0.01626987      -0.08874457      -0.17276159
H       11.82328645       9.96961796      14.96281914      -0.01363345       0.13551362      -0.22727228      -0.21148211      -0.03033863      -0.03299222
H        1.96263614       8.05923051       0.26038880      -0.82171512       0.01733179       0.47548323      -0.15407679       0.00257613      -0.03263803
H       16.39087689       6.46462492      16.22624831      -0.39192728       0.03290989      -0.07048651      -0.00060645      -0.20471154       0.04581894
H        4.15346061       2.52093685      17.50748636       0.25112534       0.14034727      -0.06856873       0.21549778      -0.19814434       0.06630916
H       13.34761990      12.24268362      16.26935676       0.22376149      -0.26448806      -0.20213047       0.00648266      -0.05270673      -0.13485581
H        4.34276614       7.83865689      -0.03307350       0.43063218       0.97195369       0.19943669       0.11552074       0.31697817       0.05975015
H       14.25514259       7.01605492      15.08038124      -0.42978133      -0.48239201       0.03932302      -0.00725870       0.00536055      -0.07229877
H        4.09627568       1.42980902      18.76144332      -0.54478856      -0.49918910       0.07472410      -0.12807561      -0.01896183      -0.15917908
H       14.04490076      11.10624256      15.04103141      -0.97582381       0.01506733       0.93874195      -0.21286153       0.09639384      -0.09237995
H        4.24475685       6.93630815      17.34485325       0.07630908       0.21154082      -0.13212070       0.13918193       0.15645309      -0.13243612
H       13.64461397       6.51135633      16.58151206       1.33461684      -0.47999154      -0.64440872      -0.19886247      -0.06211270       0.15042712
H        4.98192844       1.05549775      17.37262899       0.19251706      -1.41471728      -0.53549554       0.04309027       0.00241172      -0.09851271
H       13.56109655      10.52383061      16.55056971      -0.16017645      -0.18866022       0.34671656       0.26871963      -0.01416403       0.03625771
H        3.76820673       6.31747975       0.05453726      -0.14533712       0.37829566      -0.50240142       0.00445200      -0.02132327       0.12852184
H       13.51353469       5.45662168      15.21838672       0.12715921      -0.23321050      -0.28037065       0.05574020      -0.05912180      -0.07714425
C        5.93792572       2.47932706      18.75665175      -1.18853349      -0.39896613      -1.08658001      -0.31335435      -0.42183421       0.24590724
C       11.86271576      11.03019172      15.36130092      -0.85787243       0.15646599      -0.75889401       0.24431453       0.36239457       0.40565628
C        2.28135720       7.74137233      18.02740338       1.91453465      -0.30324218       0.18954877      -0.36976881      -0.01105856      -0.33060613
C       15.64421628       5.64471001      15.84815501      -1.29885141      -0.15707562       1.35806392      -0.11582634      -0.38438473       0.29943727
Pb       0.48839751       3.17111949      15.64703479       0.05091548      -0.17175911       0.41325612      -1.72816488       0.16561461      -0.40634897
Pb      17.48301306      10.24491265      18.32167498       0.03227386      -0.18332951      -0.06561052      -0.33881286       0.51155243       0.96134401
Pb       7.89437831       8.52451134      15.88621287      -0.09455151       0.05284638       0.30996603       0.49719205      -0.61468897       0.71837158
Pb      10.13020760       4.92708003      18.29932334      -0.29221185       0.20499910       0.29984276       3.14648689       0.16005162      -1.05946688
N        4.71783641       1.79521232      18.02406922       0.90786613       2.01922997       1.59486269       0.06022284      -0.80062457       0.80255481
N       13.26936967      11.24886775      15.84564904       0.66875221       0.56735335      -0.68604792      -0.40464796      -0.87258862       0.12742046