768
Lattice="38.36233378009021 -0.17091669423460434 -0.23415642229604455 0.13860846621712591 21.550492846406996 -0.023849043928523623 -0.012701609790407587 0.03213069133637567 18.81004073834508" Properties=species:S:1:pos:R:3:forces:R:3:momenta:R:3 pbc="T T T"
I       18.45991937       4.76425519       3.94567183       0.17307122      -0.01001255      -0.22259470      -0.15827953       2.02562950      -0.94832036
I       18.31126707       8.26295767       1.87981384       0.12161686      -0.11435547      -0.15281330      -0.14244103       0.63743272      -1.49369720
I        8.80633888      10.57659861       4.23514901      -0.01925664      -0.06203747       0.01639849      -1.80652530      -1.38765634       0.88475237
I        9.02051938       3.14944061       1.84668110       0.14863279       0.17379858       0.14300770       0.70702001       1.07956189       0.78828725
I       16.58294885       1.62643631       1.80833396      -0.14965564       0.16926719      -0.13396473       1.18756196       2.29847327      -0.00645154
I        1.52691552      11.71274537       4.01994586      -0.04355654      -0.06739948       0.00514591       0.63051109      -1.04648338       0.14891498
I       10.69577707       7.19344385       1.98273347       0.10596586       0.00861245       0.09722793       0.98234391       0.91895194      -0.86784303
I        6.85657020       6.24141228       4.32418218       0.19565997       0.25963891      -0.17324305       2.21411729       0.25954403       0.76638186
I        3.28735515       4.27189983       1.66253748       0.00569836       0.12967625       0.09929585       0.61471871       2.82563083       0.23492594
I       14.66847117       9.19023067       4.32983136      -0.12219158      -0.02172929      -0.16485225      -0.75205970      -0.41356024       0.29599532
I        4.79248092       9.86344531       1.79430483      -0.05056393      -0.15781143       0.06538159       1.59755187       2.33063349       0.46922157
I       12.95848726       3.72064504       3.98696814      -0.22953121      -0.10432596       0.07243647      -1.08125417       0.80618675       1.36285744
H        5.92244686       3.47658436       3.47324358       0.12361746       0.98680442      -0.62392249       0.18207942       0.29336978       0.02827370
H       11.97421745      10.16086112       2.44173254       0.30256706       0.22406766       0.05684994      -0.19330346      -0.10397015       0.09332775
H        2.33199040       8.43221729       5.14635236      -0.12574646       0.43029250       0.16735804       0.01958747       0.14040463       0.12268548
H       14.97448345       4.76697636       0.82973589      -0.63401082      -0.90264156      -0.51785183      -0.12490974      -0.06781575       0.00745917
H        6.98116684       2.49313169       4.63089764      -0.29390135       0.22880515       0.37361242      -0.09042853      -0.14775533      -0.06570280
H       11.18549641      11.78724756       2.34698563      -0.26463968       0.64090599       0.45664768       0.02745648       0.11099704      -0.03791840
H        1.48830757       7.92517504       3.59509748       0.33677013       0.03511276       0.60617772      -0.16815593       0.06365974      -0.02745411
H       15.96567643       6.22233978       0.90268192       0.40841684       0.98724529      -0.26160298       0.16888239      -0.04283427      -0.01725423
H        6.55280953       1.80554314       3.05743527      -0.01620145       0.26378986      -0.23474495      -0.17303066       0.13865409       0.01617054
H       11.33917462      10.71781222       0.87971614      -0.08183228       0.19333744      -0.02794472      -0.05918338       0.13460476       0.12491388
H        1.64476004       6.77501007       4.97571208       0.07164292      -0.05751725       0.02706650       0.02200765      -0.03931289      -0.04551719
H       15.98187812       5.01841654       2.28509499      -0.41687490       0.53065598      -0.20950138      -0.11700185      -0.00314480       0.22043654
H        5.02149851       0.82180767       4.62337427      -0.17149785       0.05033544       0.20931813      -0.03876715       0.10133416      -0.21412511
H       13.14130846      12.49227115       0.83563756      -0.17108811       0.18415697      -0.06732420      -0.02728434      -0.16428983       0.30869999
H        3.99558168       7.89879787       3.38074072      -0.75015425      -0.30392013       0.35619652       0.08979785      -0.19436961       0.02433329
H       13.67400008       6.85771593       1.19871957      -0.32854087       0.07299052       0.31734712       0.05962611      -0.00572614      -0.03978291
H        4.15217741       2.03431125       3.59232753       0.01000760      -0.23558215       0.05269254      -0.08652484       0.06973564       0.14106466
H       13.66350909      10.88061092       1.03594154       0.91713163      -0.35574729      -0.86327379       0.00767617       0.02393296      -0.02569903
H        3.21453052       6.37920922       3.24446490       0.11710399      -0.60075490      -0.64806150      -0.17777537      -0.06432575      -0.04382318
H       14.43199705       7.15961792       2.63900419       0.17269732       0.43297985       0.62016271      -0.05773075      -0.17203281      -0.21838215
H        4.59702744       2.49475430       5.22050199      -0.10777143      -0.45213168       0.02097064      -0.39888248       0.00363848       0.01923461
H       13.74063195      11.91081637       2.35549456      -0.49325322       0.02062433      -0.73384673       0.14219367      -0.13129020      -0.14246448
H        4.09703531       6.71179306       4.55763451       0.23485758       0.03902611       0.98426537      -0.15508049      -0.02504925       0.03251131
H       13.39914998       5.70233551       2.50597681       0.15254735      -0.35493333       0.43508851       0.02407204      -0.01127071       0.03223688
C        6.18321478       2.49638053       3.85066713       0.11312327      -1.74120543      -0.09009976       0.51327610      -0.43098960       0.57849581
C       11.82880136      11.06393015       1.83294949       0.26846759      -0.36382149      -0.59996470       0.70198233      -0.13999640      -0.24465134
C        2.13245022       7.61232508       4.45715422      -0.38793871       0.17277887      -0.46388863       0.56478633       0.07759802       0.61236216
C       15.33439416       5.55922422       1.48775310       0.52331054      -0.51510482       1.55681887       0.13158133      -0.13529446       0.19182842
Pb       0.39326264       2.91660643       1.56833270       0.04832007       0.17707323      -0.03034529      -1.52301460      -1.09066701       0.44083953
Pb      17.62902946      10.36963886       4.11782123       0.00646663      -0.08751946       0.05836987       2.26832859      -1.89351634       0.21175493
Pb       7.74113052       8.71032263       1.95984008      -0.00968103      -0.23049460      -0.26093064       1.26896391       0.35087158      -1.95530793
Pb       9.96224739       5.09135104       4.33912947      -0.05243306      -0.37500708      -0.20954945       0.61718970      -2.28088047      -2.01797474
N        4.91443583       1.88536071       4.36497836       0.13296655       0.95432314       0.24828807       0.04257454      -0.26444644      -0.75196909
N       13.18527778      11.67031034       1.47702204      -0.35992323      -0.67909075       1.93319896      -0.49057615       0.60805974       0.19646446
N        3.41591346       7.15305203       3.90027111       0.60154460       0.33555181      -1.05317193       0.88291534       0.29943903      -0.05853811
N       14.14014715       6.35223323       2.05113392       0.34369520      -0.21277935      -2.07123183      -0.13998969       0.17171543       0.22125618
I       18.48872639       4.80391378       8.61828739       0.11944658      -0.03031292      -0.00750287      -1.34272747       2.20667114      -0.97930023
I       18.52543613       8.52288949       6.41798466       0.01660203      -0.27683567       0.17666570       1.84584849      -1.39667665       0.48756458
I        8.81944425      10.48803607       8.89949463      -0.16678211      -0.23127509       0.02214796      -0.90730043       0.61458856      -0.05492704
I        8.86212943       3.16697935       6.83269577       0.15203968      -0.13984467      -0.48471484       0.56573795      -0.37533592      -0.19275025
I       16.73800218       1.55387603       6.62994101      -0.22385329       0.27684338      -0.13344103      -2.92823269       1.26035713      -0.65864496
I        1.42967031      11.51707103       8.65705076      -0.32321989       0.20275505       0.12796517      -1.34817549      -1.10921825      -1.28177594
I       10.97482095       7.17706387       6.57673501      -0.04764105       0.09595947      -0.02137277       2.97977522      -0.85127845       1.25527851
I        7.00210186       6.47805802       8.96947947       0.39607052      -0.10689332       0.01847448       1.47287772       1.23753754      -0.52188750
I        3.54894088       4.35843157       6.58268673      -0.09009879       0.11568598      -0.16744230      -0.20221783       0.86595817      -0.35550032
I       14.47496607       8.77016320       9.02797441       0.01222070       0.29485244      -0.17831015       1.19597526       1.03500425      -1.77369173
I        4.97235593       9.66369422       6.40179697      -0.01625189       0.00419672      -0.04873387       1.77089797      -0.59790389       2.39799838
I       12.96611391       3.41964271       8.47572575       0.00966005       0.16495225       0.07543810       0.95767807      -2.71349775       1.92324190
H        6.41540118       1.65031169       9.94515743      -0.00887463       0.42193349      -0.10046856      -0.03464957      -0.06572817       0.12126948
H       11.07900327      10.97849959       6.76256048       0.47469733       0.15711146       0.47294589       0.02024305       0.01341761       0.11673566
H        2.37595790       8.56806553       7.93557661      -0.04981909       0.21950725      -0.21253867       0.14512819       0.03294842       0.17497888
H       15.49436762       4.86537775       7.27634926       0.67526048       0.01860720      -0.37632556       0.33005938       0.00255116       0.08508952
H        6.61195126       2.82681774       8.54921942       0.47960777      -0.14524292      -0.05899412      -0.17121964      -0.00986207      -0.01592917
H       11.55561317      11.78352158       5.24060570       0.67367420      -0.53730469       0.34161752       0.16841799      -0.22376574       0.08253358
H        1.62943759       6.91846969       8.16785885      -0.04737393      -0.15126717       0.08276556       0.01352316      -0.13078399      -0.00640245
H       16.07038197       5.27070582       5.46917719      -0.05619714      -0.39966573      -0.43220607       0.23817785       0.05661440       0.01029109
H        5.55652922       3.34126363       9.90002132       0.06303493      -0.31408237       0.30359655      -0.01454109      -0.08962740      -0.16003880
H       11.87194976       9.96240231       5.52476431      -0.00014460       0.10266231      -0.25461345      -0.21565139      -0.02226442      -0.01874541
H        1.94172399       8.06503250       9.64990836      -0.83761960       0.02410659       0.50222468      -0.15678175      -0.00188298      -0.03779334
H       16.38008244       6.46285718       6.84098142      -0.39669104       0.03433538      -0.06370229      -0.00922714      -0.20638369       0.05591273
H        4.17861717       2.52706502       8.08487930       0.26243163       0.10731364      -0.04099316       0.21444520      -0.20151978       0.06784214
H       13.31850485      12.21450214       6.91070080       0.22596103      -0.25258310      -0.19872922       0.00987588      -0.05567846      -0.12724370
H        4.31532554       7.87031419       9.38416555       0.44143652       0.98658462       0.21112363       0.10951638       0.30507885       0.06020529
H       14.26699994       6.99431613       5.67364592      -0.43046075      -0.48605240       0.04250677      -0.01418684       0.00268858      -0.06947514
H        4.08451072       1.47345223       9.35844989      -0.51193316      -0.49929589       0.04458719      -0.12955383      -0.02286224      -0.16504074
H       14.01555412      11.18493808       5.63353285      -0.99300797      -0.00363164       0.97396307      -0.20663862       0.09940957      -0.10204572
H        4.25776048       6.94701413       7.95279334       0.11387692       0.19707923      -0.17713581       0.13934937       0.16040335      -0.12859189
H       13.64326357       6.47112270       7.15549488       1.26478717      -0.45598712      -0.56327369      -0.20317002      -0.06623546       0.15985802
H        4.95604528       1.04551928       7.98542507       0.19657595      -1.44329592      -0.55283805       0.04546455       0.01100938      -0.09355219
H       13.61746726      10.52330872       7.10907506      -0.17073994      -0.19440994       0.34846798       0.26193581      -0.01270832       0.02743074
H        3.76545578       6.34042306       9.45962734      -0.14673228       0.39290218      -0.50588255       0.00366369      -0.02725861       0.12423893
H       13.54801254       5.42756321       5.79520584       0.12476850      -0.23620210      -0.27752949       0.05911432      -0.05865052      -0.07720906
C        5.95211956       2.44765765       9.34537858      -1.18630667      -0.34002519      -1.14092545      -0.31129604      -0.43012441       0.24355770
C       11.87814219      10.98355313       5.97380413      -0.89235925       0.24403169      -0.74882687       0.24013106       0.34895434       0.43069954
C        2.28175023       7.71726002       8.61557968       1.93828887      -0.28040395       0.11465638      -0.36091953       0.00476670      -0.34402851
C       15.65506563       5.63656834       6.45684122      -1.33472467      -0.10601208       1.45042955      -0.10250784      -0.36348902       0.34701020
Pb       0.49377382       3.15566555       6.24259301       0.04951400      -0.17536608       0.41173733      -1.74080364       0.15525344      -0.40125972
Pb      17.48818544      10.22884915       8.91686084       0.03274060      -0.18323595      -0.06411320      -0.34006747       0.51208351       0.96290217
Pb       7.90003145       8.50871061       6.48108220      -0.09718975       0.05282153       0.30753066       0.49006494      -0.61527741       0.71595890
Pb      10.13706062       4.91081850       8.89434452      -0.29529151       0.20522318       0.30296094       3.16088926       0.17261350      -1.03190957
N        4.71772376       1.79754226       8.61878826       0.87508760       2.07382483       1.61357974       0.04755017      -0.80521888       0.80500144
N       13.27276869      11.24997155       6.44689006       0.68665542       0.57641402      -0.74461747      -0.38883687      -0.92296113       0.16143739
N        3.76208953       7.21243416       8.83968510      -1.55713466      -1.41158607       0.13368224       0.62704400       0.49856044      -0.17533444
N       14.18353577       6.12643987       6.27467785       0.24035402       1.73518033       0.31156569       0.03042560      -0.21443783      -0.17890896
I       18.45356857       4.78032054      13.35069220       0.17307122      -0.01001255      -0.22259470      -0.15827953       2.02562950      -0.94832036
I       18.30491627       8.27902302      11.28483421       0.12161686      -0.11435547      -0.15281330      -0.14244103       0.63743272      -1.49369720
I        8.79998808      10.59266396      13.64016938      -0.01925664      -0.06203747       0.01639849      -1.80652530      -1.38765634       0.88475237
I        9.01416858       3.16550596      11.25170147       0.14863279       0.17379858       0.14300770       0.70702001       1.07956189       0.78828725
I       16.57659805       1.64250166      11.21335433      -0.14965564       0.16926719      -0.13396473       1.18756196       2.29847327      -0.00645154
I        1.52056472      11.72881072      13.42496623      -0.04355654      -0.06739948       0.00514591       0.63051109      -1.04648338       0.14891498
I       10.68942627       7.20950920      11.38775384       0.10596586       0.00861245       0.09722793       0.98234391       0.91895194      -0.86784303
I        6.85021940       6.25747763      13.72920255       0.19565997       0.25963891      -0.17324305       2.21411729       0.25954403       0.76638186
I        3.28100435       4.28796518      11.06755785       0.00569836       0.12967625       0.09929585       0.61471871       2.82563083       0.23492594
I       14.66212037       9.20629602      13.73485173      -0.12219158      -0.02172929      -0.16485225      -0.75205970      -0.41356024       0.29599532
I        4.78613012       9.87951066      11.19932520      -0.05056393      -0.15781143       0.06538159       1.59755187       2.33063349       0.46922157
I       12.95213646       3.73671039      13.39198851      -0.22953121      -0.10432596       0.07243647      -1.08125417       0.80618675       1.36285744
H        5.91609606       3.49264971      12.87826395       0.12361746       0.98680442      -0.62392249       0.18207942       0.29336978       0.02827370
H       11.96786665      10.17692647      11.84675291       0.30256706       0.22406766       0.05684994      -0.19330346      -0.10397015       0.09332775
H        2.32563960       8.44828264      14.55137273      -0.12574646       0.43029250       0.16735804       0.01958747       0.14040463       0.12268548
H       14.96813265       4.78304171      10.23475626      -0.63401082      -0.90264156      -0.51785183      -0.12490974      -0.06781575       0.00745917
H        6.97481604       2.50919704      14.03591801      -0.29390135       0.22880515       0.37361242      -0.09042853      -0.14775533      -0.06570280
H       11.17914561      11.80331291      11.75200600      -0.26463968       0.64090599       0.45664768       0.02745648       0.11099704      -0.03791840
H        1.48195677       7.94124039      13.00011785       0.33677013       0.03511276       0.60617772      -0.16815593       0.06365974      -0.02745411
H       15.95932563       6.23840513      10.30770229       0.40841684       0.98724529      -0.26160298       0.16888239      -0.04283427      -0.01725423
H        6.54645873       1.82160849      12.46245564      -0.01620145       0.26378986      -0.23474495      -0.17303066       0.13865409       0.01617054
H       11.33282382      10.73387757      10.28473651      -0.08183228       0.19333744      -0.02794472      -0.05918338       0.13460476       0.12491388
H        1.63840924       6.79107542      14.38073245       0.07164292      -0.05751725       0.02706650       0.02200765      -0.03931289      -0.04551719
H       15.97552732       5.03448189      11.69011536      -0.41687490       0.53065598      -0.20950138      -0.11700185      -0.00314480       0.22043654
H        5.01514771       0.83787302      14.02839464      -0.17149785       0.05033544       0.20931813      -0.03876715       0.10133416      -0.21412511
H       13.13495766      12.50833650      10.24065793      -0.17108811       0.18415697      -0.06732420      -0.02728434      -0.16428983       0.30869999
H        3.98923088       7.91486322      12.78576109      -0.75015425      -0.30392013       0.35619652       0.08979785      -0.19436961       0.02433329
H       13.66764928       6.87378128      10.60373994      -0.32854087       0.07299052       0.31734712       0.05962611      -0.00572614      -0.03978291
H        4.14582661       2.05037660      12.99734790       0.01000760      -0.23558215       0.05269254      -0.08652484       0.06973564       0.14106466
H       13.65715829      10.89667627      10.44096191       0.91713163      -0.35574729      -0.86327379       0.00767617       0.02393296      -0.02569903
H        3.20817972       6.39527457      12.64948527       0.11710399      -0.60075490      -0.64806150      -0.17777537      -0.06432575      -0.04382318
H       14.42564625       7.17568327      12.04402456       0.17269732       0.43297985       0.62016271      -0.05773075      -0.17203281      -0.21838215
H        4.59067664       2.51081965      14.62552236      -0.10777143      -0.45213168       0.02097064      -0.39888248       0.00363848       0.01923461
H       13.73428115      11.92688172      11.76051493      -0.49325322       0.02062433      -0.73384673       0.14219367      -0.13129020      -0.14246448
H        4.09068451       6.72785841      13.96265488       0.23485758       0.03902611       0.98426537      -0.15508049      -0.02504925       0.03251131
H       13.39279918       5.71840086      11.91099718       0.15254735      -0.35493333       0.43508851       0.02407204      -0.01127071       0.03223688
C        6.17686398       2.51244588      13.25568750       0.11312327      -1.74120543      -0.09009976       0.51327610      -0.43098960       0.57849581
C       11.82245056      11.07999550      11.23796986       0.26846759      -0.36382149      -0.59996470       0.70198233      -0.13999640      -0.24465134
C        2.12609942       7.62839043      13.86217459      -0.38793871       0.17277887      -0.46388863       0.56478633       0.07759802       0.61236216
C       15.32804336       5.57528957      10.89277347       0.52331054      -0.51510482       1.55681887       0.13158133      -0.13529446       0.19182842
Pb       0.38691184       2.93267178      10.97335307       0.04832007       0.17707323      -0.03034529      -1.52301460      -1.09066701       0.44083953
Pb      17.62267866      10.38570421      13.52284160       0.00646663      -0.08751946       0.05836987       2.26832859      -1.89351634       0.21175493
Pb       7.73477972       8.72638798      11.36486045      -0.00968103      -0.23049460      -0.26093064       1.26896391       0.35087158      -1.95530793
Pb       9.95589659       5.10741639      13.74414984      -0.05243306      -0.37500708      -0.20954945       0.61718970      -2.28088047      -2.01797474
N        4.90808503       1.90142606      13.76999873       0.13296655       0.95432314       0.24828807       0.04257454      -0.26444644      -0.75196909
N       13.17892698      11.68637569      10.88204241      -0.35992323      -0.67909075       1.93319896      -0.49057615       0.60805974       0.19646446
N        3.40956266       7.16911738      13.30529148       0.60154460       0.33555181      -1.05317193       0.88291534       0.29943903      -0.05853811
N       14.13379635       6.36829858      11.45615429       0.34369520      -0.21277935      -2.07123183      -0.13998969       0.17171543       0.22125618
I       18.48237559       4.81997913      18.02330776       0.11944658      -0.03031292      -0.00750287      -1.34272747       2.20667114      -0.97930023
I       18.51908533       8.53895484      15.82300503       0.01660203      -0.27683567       0.17666570       1.84584849      -1.39667665       0.48756458
I        8.81309345      10.50410142      18.30451500      -0.16678211      -0.23127509       0.02214796      -0.90730043       0.61458856      -0.05492704
I        8.85577863       3.18304470      16.23771614       0.15203968      -0.13984467      -0.48471484       0.56573795      -0.37533592      -0.19275025
I       16.73165138       1.56994138      16.03496138      -0.22385329       0.27684338      -0.13344103      -2.92823269       1.26035713      -0.65864496
I        1.42331951      11.53313638      18.06207113      -0.32321989       0.20275505       0.12796517      -1.34817549      -1.10921825      -1.28177594
I       10.96847015       7.19312922      15.98175538      -0.04764105       0.09595947      -0.02137277       2.97977522      -0.85127845       1.25527851
I        6.99575106       6.49412337      18.37449984       0.39607052      -0.10689332       0.01847448       1.47287772       1.23753754      -0.52188750
I        3.54259008       4.37449692      15.98770710      -0.09009879       0.11568598      -0.16744230      -0.20221783       0.86595817      -0.35550032
I       14.46861527       8.78622855      18.43299478       0.01222070       0.29485244      -0.17831015       1.19597526       1.03500425      -1.77369173
I        4.96600513       9.67975957      15.80681734      -0.01625189       0.00419672      -0.04873387       1.77089797      -0.59790389       2.39799838
I       12.95976311       3.43570806      17.88074612       0.00966005       0.16495225       0.07543810       0.95767807      -2.71349775       1.92324190
H        6.42175198       1.63424634       0.54013706      -0.00887463       0.42193349      -0.10046856      -0.03464957      -0.06572817       0.12126948
H       11.07265247      10.99456494      16.16758085       0.47469733       0.15711146       0.47294589       0.02024305       0.01341761       0.11673566
H        2.36960710       8.58413088      17.34059698      -0.04981909       0.21950725      -0.21253867       0.14512819       0.03294842       0.17497888
H       15.48801682       4.88144310      16.68136963       0.67526048       0.01860720      -0.37632556       0.33005938       0.00255116       0.08508952
H        6.60560046       2.84288309      17.95423979       0.47960777      -0.14524292      -0.05899412      -0.17121964      -0.00986207      -0.01592917
H       11.54926237      11.79958693      14.64562607       0.67367420      -0.53730469       0.34161752       0.16841799      -0.22376574       0.08253358
H        1.62308679       6.93453504      17.57287922      -0.04737393      -0.15126717       0.08276556       0.01352316      -0.13078399      -0.00640245
H       16.06403117       5.28677117      14.87419756      -0.05619714      -0.39966573      -0.43220607       0.23817785       0.05661440       0.01029109
H        5.56288002       3.32519828       0.49500095       0.06303493      -0.31408237       0.30359655      -0.01454109      -0.08962740      -0.16003880
H       11.86559896       9.97846766      14.92978468      -0.00014460       0.10266231      -0.25461345      -0.21565139      -0.02226442      -0.01874541
H        1.94807479       8.04896715       0.24488799      -0.83761960       0.02410659       0.50222468      -0.15678175      -0.00188298      -0.03779334
H       16.37373164       6.47892253      16.24600179      -0.39669104       0.03433538      -0.06370229      -0.00922714      -0.20638369       0.05591273
H        4.17226637       2.54313037      17.48989967       0.26243163       0.10731364      -0.04099316       0.21444520      -0.20151978       0.06784214
H       13.31215405      12.23056749      16.31572117       0.22596103      -0.25258310      -0.19872922       0.00987588      -0.05567846      -0.12724370
H        4.32167634       7.85424884      -0.02085482       0.44143652       0.98658462       0.21112363       0.10951638       0.30507885       0.06020529
H       14.26064914       7.01038148      15.07866629      -0.43046075      -0.48605240       0.04250677      -0.01418684       0.00268858      -0.06947514
H        4.07815992       1.48951758      18.76347026      -0.51193316      -0.49929589       0.04458719      -0.12955383      -0.02286224      -0.16504074
H       14.00920332      11.20100343      15.03855322      -0.99300797      -0.00363164       0.97396307      -0.20663862       0.09940957      -0.10204572
H        4.25140968       6.96307948      17.35781371       0.11387692       0.19707923      -0.17713581       0.13934937       0.16040335      -0.12859189
H       13.63691277       6.48718805      16.56051525       1.26478717      -0.45598712      -0.56327369      -0.20317002      -0.06623546       0.15985802
H        4.94969448       1.06158463      17.39044544       0.19657595      -1.44329592      -0.55283805       0.04546455       0.01100938      -0.09355219
H       13.61111646      10.53937407      16.51409543      -0.17073994      -0.19440994       0.34846798       0.26193581      -0.01270832       0.02743074
H        3.77180658       6.32435771       0.05460697      -0.14673228       0.39290218      -0.50588255       0.00366369      -0.02725861       0.12423893
H       13.54166174       5.44362856      15.20022621       0.12476850      -0.23620210      -0.27752949       0.05911432      -0.05865052      -0.07720906
C        5.94576876       2.46372300      18.75039895      -1.18630667      -0.34002519      -1.14092545      -0.31129604      -0.43012441       0.24355770
C       11.87179139      10.99961848      15.37882450      -0.89235925       0.24403169      -0.74882687       0.24013106       0.34895434       0.43069954
C        2.27539943       7.73332537      18.02060005       1.93828887      -0.28040395       0.11465638      -0.36091953       0.00476670      -0.34402851
C       15.64871483       5.65263369      15.86186159      -1.33472467      -0.10601208       1.45042955      -0.10250784      -0.36348902       0.34701020
Pb       0.48742302       3.17173090      15.64761338       0.04951400      -0.17536608       0.41173733      -1.74080364       0.15525344      -0.40125972
Pb      17.48183464      10.24491450      18.32188121       0.03274060      -0.18323595      -0.06411320      -0.34006747       0.51208351       0.96290217
Pb       7.89368065       8.52477596      15.88610257      -0.09718975       0.05282153       0.30753066       0.49006494      -0.61527741       0.71595890
Pb      10.13070982       4.92688385      18.29936489      -0.29529151       0.20522318       0.30296094       3.16088926       0.17261350      -1.03190957
N        4.71137296       1.81360761      18.02380863       0.87508760       2.07382483       1.61357974       0.04755017      -0.80521888       0.80500144
N       13.26641789      11.26603690      15.85191043       0.68665542       0.57641402      -0.74461747      -0.38883687      -0.92296113       0.16143739