768
Lattice="38.36233378009021 -0.17091669423460434 -0.23415642229604455 0.13860846621712591 21.550492846406996 -0.023849043928523623 -0.012701609790407587 0.03213069133637567 18.81004073834508" Properties=species:S:1:pos:R:3:forces:R:3:momenta:R:3 energy=-3340.875803073587 stress="0.0 0.0 0.0 0.0 0.0 0.0 0.0 0.0 0.0" pbc="T T T"
I       18.18641415       5.08219778       3.30893997       0.00367888      -0.00084839       0.17287274       0.23510709      -0.10160088      -0.24558419
I       17.98687047       8.54563836       0.95000369       0.04356012       0.09795005       0.20222228       1.06567741       1.27212790       0.09167401
I        8.49042132      10.50193924       3.38200346      -0.14027843       0.05012617      -0.15469834       0.12802235      -0.28101558      -0.92558613
I        8.71239409       3.27130703       0.89251056       0.04286532      -0.06626507       0.28191287      -1.83714202       2.65337097      -1.36786149
I       16.17201166       1.81249326       0.83684325       0.10711075       0.16905354       0.11175250       0.62025806      -0.28409864      -1.14565770
I        1.00884107      11.92714458       3.44568205       0.05469122       0.03555706       0.13827985      -1.17609104      -0.22468075      -0.62381603
I       10.31129368       7.31258560       1.21696682       0.16002165       0.02590417      -0.15051297       0.64768818      -0.13502606       2.24597078
I        6.49797368       6.38624807       3.50621770       0.21556582       0.17781835       0.01640712       1.50654727      -0.89288729       1.17550215
I        3.07878741       4.53355805       1.08583613      -0.07606765      -0.09611209      -0.11431744      -0.90607088      -0.99309343      -3.59921858
I       14.14446935       9.09195483       3.27998369       0.20556427       0.27149467       0.13593011      -2.23477405       0.91367309       0.81937089
I        4.35399197       9.98942273       1.22769908      -0.00037990      -0.10116771      -0.07836929      -2.18150037      -0.33503577       1.05307914
I       12.49019359       3.87057271       3.58057634       0.29987136      -0.11356797      -0.30316242       2.52690105      -0.71257426      -2.19131636
H        5.36391245       3.42849431       2.37614348      -0.12021734       0.41947245      -0.36778895       0.16062939       0.14879775      -0.01768214
H       11.58259662      10.45313090       1.66819273       0.11665414      -1.07904471       0.41349086      -0.12956603       0.09423812      -0.08121250
H        1.82458610       8.57215882       4.48978228       0.18964879       0.21814632      -0.08619729      -0.08392322      -0.02276067      -0.05081351
H       15.08382894       4.98551723       0.21611327       0.02093358      -0.35806810       0.01026719      -0.00283485       0.15259169       0.07054266
H        6.36878360       3.06333005       3.78670561       0.13548293      -0.04084111       0.83264076       0.09438779      -0.02798388       0.11070672
H       10.99055599      12.06309744       1.98327001      -0.04882457       0.22549837      -0.38776634       0.07718925      -0.04235623      -0.07407851
H        1.16193266       8.11019616       2.86875745      -0.02731659      -0.07691664      -0.09314851      -0.25499754      -0.09679524       0.28550372
H       15.84050752       6.58656730       0.31516986       0.11445560       0.41163568      -0.19008262      -0.10251879      -0.09322194      -0.17517844
H        6.26406591       1.85849607       2.49544086      -0.26560192      -0.19859304       0.00948871      -0.01602392       0.04239681       0.00121378
H       10.96526796      11.34108688       0.22930275      -0.09941065       0.17254424       0.68880150       0.01745343       0.05189197       0.06516745
H        1.12630388       6.92405439       4.28552803       0.80032717       0.75837202      -1.02534238      -0.20411859      -0.15407870       0.02066019
H       15.75842347       5.57437407       1.77545011       0.57732195      -0.27041051       0.43519656       0.19048644       0.11373132       0.04976114
H        4.68660370       1.20212206       4.29491136       0.02504072       0.29323850      -0.02579189       0.05182157      -0.00680550       0.07013968
H       12.83914185      13.01777779       0.62445099       0.22238769      -0.48824139       0.25035689      -0.05551395      -0.22535705      -0.09764892
H        3.57183424       8.04787622       2.73559527      -0.46835315      -0.78649903       0.45127770       0.06978214      -0.04424719      -0.09388797
H       13.36848230       6.69384531       0.39086592       0.31068489      -0.21543014       0.42002031      -0.04418818      -0.07546005      -0.20104851
H        3.79610124       1.60899615       2.98876162      -0.70163106       0.12860469      -0.87246901      -0.13019417      -0.18416205      -0.07414165
H       13.23492049      11.32800092       0.07209414      -0.57841580       1.03962085       0.91641288       0.04247491      -0.05626121       0.06679951
H        2.97218979       6.37823661       2.78269208       0.01569398       1.10331499      -0.19106140      -0.03211406      -0.12727971      -0.18478865
H       14.04141172       7.29172765       1.80812578       0.00787132      -0.45373434      -0.22549468       0.08275390       0.01458692      -0.07858846
H        3.96285064       2.74899579       4.24462126      -0.05444893      -0.17622087      -0.27375992       0.03955140       0.05982419      -0.06131632
H       13.48118492      11.76328732       1.77980343       0.67647484       0.43824477       0.39780976       0.18655706       0.05775135      -0.11544051
H        3.76908829       6.95113570       4.06269346      -1.31310090       0.93026930      -0.76189927       0.06790265      -0.00499691       0.01916938
H       13.34874062       5.71669386       1.81042557       0.50891922       0.65254153      -0.69371289      -0.10394207       0.01574018      -0.01400740
C        5.67980331       2.62058556       3.04700495       0.14865739      -0.13222944      -0.72926288      -0.74689075      -0.08193969      -0.04255660
C       11.50831672      11.42904994       1.22145621      -1.46173995      -0.04509038      -0.39260705       0.33757234      -0.86084277      -0.23651945
C        1.72336035       7.75296465       3.75368226      -0.57503041      -0.64823570       1.43945954       0.16812422       0.51302297       0.34839011
C       15.24295551       5.84774438       0.86117613       0.14776217      -0.25337293      -0.56303804       0.14732355       0.18861655       0.29734654
Pb      38.61112540       3.07919573       0.63499836      -0.28871146       0.02653239       0.21882903      -1.18792349      -0.48998893       1.43323567
Pb      17.15576031      10.49000832       3.36641406      -0.15112045      -0.07799915      -0.11310039      -1.17017018       2.69599992       0.34101475
Pb       7.20821196       8.57881301       1.13550800       0.11216920      -0.04150861       0.07794183       2.05236023       3.94199982      -0.74768812
Pb       9.71189731       5.10706831       3.38090055      -0.49237044      -0.00872062       0.14346185      -0.26374380       0.12663873      -1.74644975
N        4.45701612       2.02636362       3.65557391       0.80611166      -0.34002437       1.42433327       0.02740125       0.16360931       0.11687114
N       12.83267137      11.94167416       0.93036057       1.19351714      -0.55886197      -1.91418002      -0.38623690      -0.24583222      -0.26811720
N        3.06260681       7.30313138       3.31632683       1.49554301      -1.36496722       0.32881453       1.13362791      -0.66501564      -0.01159871
N       13.94636749       6.40334486       1.22200766      -1.94435813       0.29547662       0.72576225       0.64751413       0.02533849       0.17514794
I       18.29608019       4.95000383       8.07567070       0.01260461       0.08412220       0.00688633      -0.24457344       1.63018908      -2.54798842
I       17.97870446       8.52301087       5.62688029      -0.15291006       0.25025282       0.12523144      -0.76464331       1.95844393      -0.47088101
I        8.71373259      10.63874721       7.95839871      -0.07124737       0.01012776       0.24007341       1.63842650      -3.95128010       0.83320293
I        8.58136615       3.23168240       5.86452578       0.19736368       0.17495631      -0.13917511      -1.13208095      -0.08396914      -0.46348915
I       16.21290014       1.91703875       5.64789909      -0.16301009       0.07252007       0.12635922      -0.72957315      -0.07739624       0.46975092
I        1.05157881      11.89451493       8.16889828      -0.08580722       0.06339648       0.03908472       1.75483030      -0.88505991       0.75723463
I       10.57066319       7.40530489       5.68289515       0.00735444      -0.12608802      -0.04142700       1.68673658      -3.00238197       0.02483362
I        6.80004162       6.44461141       8.19810185       0.13991735       0.11649913      -0.00719018       0.29041089       1.10139791       0.45980427
I        3.10755045       4.57755273       5.88016175      -0.13795916      -0.15013805      -0.16480308      -0.19566846      -0.95371645      -1.25708521
I       14.04664036       9.09454861       8.00386808      -0.10124548       0.13276732       0.04903105      -1.13703760      -2.00741709      -0.39098100
I        4.45695838       9.90398127       5.80224681       0.26598818       0.08153481       0.00892964      -0.76622190      -1.54503134      -0.18581058
I       12.80069689       3.73911858       8.21897966      -0.23922354       0.07900272      -0.18050527       0.31414593      -0.23038237       0.35519710
H        6.51900897       1.78745258       8.53365034      -0.03815622      -0.40487438       0.55070226      -0.00960940      -0.15050169      -0.07219556
H       10.86720916      11.33059561       6.07454781      -0.60983549      -0.19712411       0.24512312       0.05114063       0.15017112      -0.04297455
H        2.12791092       8.72664480       7.38722492      -0.33848154       0.65291785      -0.02985478       0.02310137       0.00389258       0.01012520
H       15.29688310       4.93386522       6.76713724      -0.03687084       0.77915370      -0.19466447       0.07988563      -0.07568903       0.04071465
H        6.16023159       3.24491089       7.33196313      -0.55615911      -0.25114857       0.36161562       0.13430262       0.00246872      -0.20476343
H       11.24084982      12.17685605       4.52609934      -0.06794905      -0.63747817       0.19415535      -0.05944002      -0.01509503      -0.02303290
H        1.66549122       7.00687709       7.18379819       0.50415840       0.65335230       0.78140931      -0.10427903       0.00839801      -0.09933159
H       16.09179785       5.86866758       5.44868558      -0.26083097       0.36991280       0.40012331      -0.04904839      -0.11890204      -0.01346244
H        5.49219257       3.36754878       9.10164360      -0.03093345      -0.02009703       0.22888016       0.06500449      -0.13753829       0.02409473
H       11.55011385      10.32962457       4.71924517       0.42089985       0.50939495       0.21223499       0.02078803      -0.00046993       0.14203022
H        1.42053329       7.77850153       8.79891028      -0.51243400       0.43473950       0.80028437      -0.02318406      -0.15092640      -0.03758165
H       15.59665625       6.78129574       6.97771367       0.13772428      -0.18806441      -0.03304721       0.19164193       0.00861567       0.09585088
H        3.83078958       2.72620156       7.34147045       0.29670812      -0.31303084       0.42518174       0.03642639       0.04333269      -0.03489214
H       12.79804587      12.67260716       6.37035778      -0.21876591      -1.14445186      -0.55599817      -0.02040066      -0.01005918       0.01370282
H        3.97446336       8.12281767       8.90620488      -0.78526156      -0.59145389      -0.48679754      -0.00596321      -0.01049454      -0.12190130
H       13.99175612       7.16123972       5.20633378       0.35170493       0.94079289      -0.61451631       0.03462410       0.05444793       0.26130450
H        3.77220152       1.82649241       8.76254741       0.63633315      -0.04811371      -0.39875333       0.13380429       0.19586986      -0.03621266
H       13.53708755      12.04824007       5.04012925       0.23632496      -0.20843410      -0.24188134       0.00716957      -0.14936077       0.05238842
H        4.10892271       7.34780291       7.44911894       0.37252662      -0.23282482      -0.79309994       0.09111265      -0.04828333      -0.05050173
H       13.28236029       6.37886602       6.44358055      -0.19687431      -0.00354838       0.19723064       0.10237674      -0.11946325      -0.07998885
H        4.41034943       1.15785866       7.34568811       0.31721266      -0.06369034       0.23106816      -0.01519564      -0.29744201       0.05007869
H       13.30262965      11.03555878       6.33435475       0.20952888      -0.26429856       0.25317478       0.00237826       0.01873846       0.14575975
H        3.49905895       6.50513260       8.71596394      -0.02165596      -1.27572497       0.99123722       0.07606141      -0.03199208       0.16295876
H       13.64518204       5.57695073       5.05921764      -0.39939171      -0.98826577      -0.53202556      -0.19108382       0.10241268       0.06773588
C        5.71100547       2.62416678       8.27523100       0.54980356       0.60552468      -1.01994357       0.30674466      -0.62867909       0.25680007
C       11.53587440      11.33767257       5.20897954       0.28706564       1.03584778      -0.18891622       0.70525553      -0.22903121       0.14828060
C        2.04879795       7.78425129       7.91613705       0.94945215      -1.42933395      -1.61363419      -0.65552755      -0.06026871      -0.30413892
C       15.34407271       5.95634395       6.27954327       0.20590053      -1.00089808      -0.33416471      -0.05170000      -0.10385510       0.01637877
Pb       0.03443227       3.19973137       5.72390882       0.23910221      -0.08969142      -0.16358497      -2.06840304      -1.39144527      -0.37242003
Pb      16.94525658      10.44403453       8.14277386       0.05651160      -0.10023850      -0.08551055      -2.52447162      -0.40321512       0.55263881
Pb       7.57588255       8.79604399       5.80302451      -0.33328294      -0.32362311      -0.15364556       0.68287035       1.99069053       2.65878252
Pb       9.86449848       5.16516795       8.07630240      -0.14782793      -0.18658557      -0.00170806       1.91672904      -1.23051314      -1.73561187
N        4.38823149       2.02490748       7.93341928      -1.25223726       0.59532666      -0.25098523      -0.68700192      -0.60160737       0.64578254
N       12.86657136      11.77434136       5.76826994      -0.34310086       0.90376432       0.11015476      -0.14868017       0.87363513      -0.52392967
N        3.49035593       7.40314666       8.26557373      -0.29495179       1.88848031       0.42582335       0.64497099      -0.34135894       0.85192271
N       13.99772219       6.27548790       5.70628419       0.19904854       0.11355655       1.03049463       0.12971800       0.07403354      -0.26402272
I       18.02748845       4.93100276      12.94844527       0.16962337      -0.06935624       0.05729979       3.11119999      -2.80231076       1.57986927
I       17.88055811       8.39933184      10.50158526       0.00420417       0.15406191      -0.34298417      -2.40076370       1.66935512       0.07160415
I        8.38460083      10.53199616      12.98893859       0.12060349       0.18797610      -0.18659589      -0.42839898       1.18588222       2.02021719
I        8.93262968       3.26335933      10.45297438      -0.06741721       0.16911469      -0.07529650      -1.80319872       1.27887852       0.82866889
I       15.96582809       1.75047113      10.46954613       0.06966996       0.16955814       0.02845497       0.24490319      -3.18934877      -0.78429035
I        1.19240818      11.85316556      12.84703463      -0.07181445      -0.20816599       0.11368944       1.00785561      -1.34599837       0.70518948
I       10.51281259       7.32651296      10.52989371       0.19665393       0.14067276      -0.08804072       0.76646392       1.40698625       1.53188390
I        6.78951990       6.48316594      12.67896918       0.03486552       0.11425292       0.02774072      -0.21092060       2.83900905      -0.68980742
I        2.90134675       4.49058084      10.48687623       0.11393950       0.01123011      -0.11364588      -0.27950725      -0.37904925      -1.02595370
I       14.10636024       9.16306759      12.81262421      -0.02266950       0.06084077      -0.00757379       1.71805738       2.08633214      -2.28535933
I        4.63041284      10.00793268      10.52997623      -0.07951413      -0.06155133      -0.09380342      -1.40043275       0.16111066       0.90970993
I       12.87218145       3.87476161      13.01920149      -0.13424490      -0.01740632      -0.16669128      -0.67214451      -0.45621277      -2.14070031
H        5.62587279       3.44359696      11.73044064       0.46023899      -0.51433529       0.27491782      -0.09307105      -0.00456597       0.01432663
H       11.81311908      10.57964531      11.73825375       0.19479608       0.19289124      -0.18382970      -0.05223795       0.03797232       0.00262554
H        2.02221352       8.84260311      13.54894819       0.20251758      -0.93897007      -0.38349026      -0.01270532      -0.08779697      -0.00663870
H       15.01789335       4.79444212       9.68004467       0.27770654       0.38034245      -0.05493222      -0.00427260       0.12191234      -0.13201406
H        6.48942068       2.44271095      13.00262796       0.29166037      -0.08318524       0.17941766       0.00572614       0.05677164       0.04328562
H       10.87739889      12.19658141      11.02261869       0.13197663      -0.33232031      -0.04917665       0.17942302       0.15502662       0.05629763
H        1.21207711       7.92254399      12.26325720      -0.31828653       0.00254525      -0.71008674       0.07591455       0.02248480      -0.13887138
H       15.71567685       6.54673942       9.50081178      -0.22168987      -0.79714554       0.21727064       0.07032720       0.08684785       0.04678977
H        5.92740631       1.63027623      11.41172532       0.16061162       0.16238244       0.23762012      -0.04754684       0.02791957       0.07104899
H       10.84623043      10.50779924      10.01441413       0.25841190       0.08156054      -0.20268633       0.15213660      -0.04906667      -0.32974546
H        1.50586027       7.08445840      13.79465664       0.13684886       0.20184169      -0.06770174      -0.07045870       0.06336195      -0.03321828
H       15.82226878       5.65134449      11.08524004      -0.00083367      -0.07682060      -0.64322438      -0.13889392      -0.09068021      -0.01045051
H        4.40054537       1.28302912      13.32116758      -0.20694678      -0.55769998       0.02757038      -0.17545247      -0.10173294      -0.00748928
H       12.46593280      12.51743788       9.36408844      -0.01378125       0.14278723      -0.29493700       0.08202613      -0.03274510      -0.13467566
H        3.64793343       8.01617723      11.92982801      -0.04814153      -0.22669710      -0.34344377      -0.02777674       0.04074157      -0.22107188
H       13.26802267       6.64640685       9.90205709       0.26293837      -0.26089789       0.06354462       0.05955443      -0.04734315       0.02582935
H        3.66367855       2.06200124      12.02542603      -0.59634452      -0.24227716      -0.42971347       0.08977590       0.19815344      -0.02481366
H       13.18780674      10.94459052       9.56067201       0.04599692       0.49045437       0.17352418      -0.00174609       0.22900924       0.01816647
H        3.04033660       6.38023053      12.09875925       0.42832854      -0.08645842      -0.30875305       0.07367290       0.10400427      -0.17585799
H       14.12319399       7.15713116      11.17840066       0.10467488       1.49499565       1.00521937       0.04921105       0.06439524       0.08211903
H        4.05008205       2.91780870      13.42562529       0.00320627      -0.14633852      -0.36749744       0.01766718      -0.03596388      -0.03465422
H       13.39228189      12.22558217      10.70776054       0.47984796       0.02522852       0.58923785       0.15193547       0.03822835      -0.10246073
H        3.89483146       7.20585857      13.32904575      -0.02189550      -0.29955235      -0.04433405       0.05613324       0.15752399      -0.09676813
H       13.47471769       5.65355858      11.24864289      -0.14944587      -0.09169809       0.03038167      -0.08463051       0.10401501      -0.10259816
C        5.73884651       2.42361888      12.19729005      -1.06577117       0.81848483      -0.85893751      -0.01002876      -0.04589131       0.56889186
C       11.49384237      11.21343027      10.75286241      -0.48023556       0.40132571       0.64607798       0.92881424       0.31667715      -0.23233120
C        1.91819526       7.81691035      13.07258053      -0.30044770       0.70619814       1.29391146       0.29683373      -0.55476977      -0.22080864
C       15.22459660       5.78047239      10.14799606       0.62901706       0.27308969       0.25308349      -0.73165196       0.43899809       0.35417176
Pb      38.35167723       3.12229955      10.09932532       0.00382417      -0.14053047       0.03190028       1.14435603      -0.04529386       2.30540581
Pb      17.01882509      10.31309418      12.84264843      -0.00170411       0.22298685      -0.02289724      -0.41983548       0.83786489       1.87269471
Pb       7.58778351       8.78209037      10.43099661      -0.09515189      -0.13422262       0.09647288       2.20787743       2.47751661       0.85597178
Pb       9.84072630       5.18696358      12.83175077      -0.11359485      -0.16106876       0.09075624       1.72818464      -0.61239018       2.92853662
N        4.36165177       2.14579743      12.75976707       1.03957598       0.64220573       0.94332875      -0.23655537      -0.27266822      -0.09740157
N       12.71165132      11.75899597      10.05857837      -0.62644510      -1.00586473      -0.61404708      -0.07570529      -0.37312717      -0.89741796
N        3.20835823       7.30655743      12.55859625       0.00897156       0.78408858       0.61566654       0.44812843      -0.63106803      -0.82930420
N       13.95062770       6.34571737      10.63113983      -0.87023570      -0.98610140      -0.84499136       0.64472122      -0.09937222      -0.02281186
I       18.29471315       5.13641484      17.43598083      -0.06894919       0.02383717      -0.03128657       2.01857152       1.15225384      -1.01295849
I       18.00646441       8.51411347      15.21694851       0.06792073       0.02190456      -0.18861507      -2.46322013      -1.18701099      -1.05955404
I        8.53533354      10.47980763      17.60987776      -0.15523779       0.03328921       0.06488288      -0.82878529      -0.81852860      -0.28896419
I        8.65308738       3.25436568      15.17100881       0.03628742       0.11352924      -0.05247378       2.58790666      -1.31274665      -1.45127502
I       16.21348112       1.83123830      15.27915763      -0.04696793       0.15087745       0.04430633      -0.60704601      -0.86772341       0.01189802
I        0.91891111      11.96545843      17.66949377      -0.00223863      -0.08387615       0.00374804      -0.91768003       1.42723441       1.22757805
I       10.60742637       7.47631493      15.09524976      -0.04601666      -0.08537450       0.08226102       1.56519608      -0.36228870      -2.77139290
I        6.32383760       6.38688971      17.53940570       0.38624468       0.03651941       0.03685408       0.34792401       0.33218063      -1.17717716
I        2.92125521       4.51091603      14.94084360       0.27621235       0.11415592       0.30814954      -0.90641302       0.51050680       0.59736956
I       13.94326408       9.35470200      17.51126050       0.17569634       0.00672469       0.07658852       0.74247298      -2.19927329      -0.51910523
I        4.68103363      10.03631204      15.09274380      -0.10483095      -0.01197959       0.14960316      -1.54137048       1.50252219      -0.88089396
I       12.46281295       3.77332254      17.54988299      -0.02151259       0.16567713       0.15436423       0.00428935       2.83756321       1.26191885
H        6.07894176       1.68842873      18.59452576      -0.02860482      -0.01073032      -0.44792223       0.13199801      -0.13337172      -0.12553648
H       10.73822259      11.80584136      15.53550201       0.13787242       0.12936406       0.75109092      -0.01109433       0.11307584       0.13536036
H        2.25416621       9.16306431      16.68958230      -0.00699292      -0.52147036       0.35248970       0.10772692       0.16870096      -0.06601580
H       14.95567078       5.30806247      16.65756316      -0.07997098      -0.11042639      -0.17534434      -0.12524480       0.05040037       0.22439819
H        6.45003154       2.41146138      16.93670392       0.72906136       0.06644452      -0.48622887       0.20844537       0.08497959      -0.04505383
H       11.43904735      12.36578941      13.84652389      -0.05022922      -0.25753325       0.20193404      -0.03370109      -0.05655184      -0.09222784
H        1.28149978       7.61871504      16.59451770      -0.45990653      -0.47560584      -0.05816688      -0.01124324       0.03614942       0.06414635
H       15.78029768       5.31392213      14.85995107      -0.09889700      -0.07260940       0.13644868       0.04782940      -0.06867772       0.05606973
H        5.65212674       3.37976356      18.19131431      -0.23479501       0.84197634       0.43960956      -0.06169403      -0.30071064      -0.14862973
H       11.45055895      10.47879803      14.40133887       0.11809490       0.18791899       0.00293215      -0.05735420       0.01683267       0.04646965
H        1.34282836       8.63441539      18.17936989       0.43797554      -0.45221291      -0.71214470      -0.04703231       0.09677065       0.12870834
H       15.84285781       6.94160176      15.95787783      -0.21051625      -0.91647660      -0.44664598      -0.18966629       0.27078211       0.05738675
H        4.00520783       2.74653728      16.68875777      -0.15087233      -0.35147341      -0.04085067       0.14012936       0.09887850       0.08382370
H       13.08970241      12.64377200      15.78335940      -0.05144573       0.46995363       0.21338876      -0.04919457      -0.02899029       0.03203325
H        3.82548567       8.05112122      18.27194715      -0.37658278      -0.18701125      -0.13743849       0.06608605       0.03055290      -0.00556639
H       14.26840541       7.21750183      14.40726433      -0.44675442       0.54279798      -0.65755565      -0.13247457      -0.12931218      -0.13576533
H        3.78849815       1.66473125      18.01360682       0.53032905       0.35038956      -0.91572976      -0.13175572       0.11081653       0.06324961
H       13.62654680      11.99077656      14.36889130       0.58620984       0.16435971      -0.96357066       0.07823142      -0.12502743       0.10762762
H        3.75510335       7.05719746      16.92889822       0.18223312       0.07627646      -0.78248672       0.04628244       0.05456541      -0.09956100
H       13.34695704       6.94310500      15.81045386       0.04468670       0.12342901      -0.03113350      -0.16656543       0.04795265      -0.04783504
H        4.54294315       1.08501161      16.60985303      -0.17551889       0.86163217       0.29392981      -0.19665226      -0.09352004      -0.09104111
H       13.41078906      11.00348083      15.65657547       0.18716161      -0.44310314       0.49193038      -0.00245743      -0.05687306       0.01960653
H        2.93155268       6.60072925      18.21541289      -0.36193911      -0.70568091       0.65261479      -0.01124459      -0.04359200       0.07114950
H       13.42970247       5.65234171      14.63846135       0.35509988       1.01471485       0.27725457       0.07696525       0.01552467       0.00313775
C        5.75939495       2.39073922      17.77066015      -0.37229305      -0.84431112       0.35764972       0.28716892      -0.35358774      -0.54892310
C       11.55605904      11.59864384      14.73338078       0.70622226       0.18057343      -1.18294233      -0.00444649      -0.22810321      -0.33502713
C        1.89556107       8.25302388      17.25346945       0.80977019       0.91170985       0.49497565      -0.04810569       0.19362369      -0.07127712
C       15.21078881       5.94484093      15.67929727       1.18042167       0.94155162       1.07297217      -0.22282545      -0.21720556       0.15195836
Pb       0.05422468       3.27726249      15.03622690      -0.13478912       0.01497420      -0.18755677       0.37793807       0.62355986       0.76150486
Pb      17.04819024      10.53357553      17.47871444      -0.11934136      -0.09400970      -0.11638477      -0.33680717      -0.11840137      -0.14058504
Pb       7.53804870       8.67516234      15.32320691      -0.09515194      -0.22773718      -0.15891608       3.01758742       0.03166800       1.91150449
Pb       9.56740055       5.22063852      17.46965839       0.00379327       0.03139626      -0.07476114       2.14917158      -1.65434129      -0.10059063
N        4.43750744       1.95756820      17.22581789      -0.42597779      -0.83103399       0.68389979      -0.46446896      -0.51514363      -0.03079647
N       13.02470243      11.81938046      15.15145047      -1.78649933      -0.42115232       0.54652120      -0.08741260       0.31809366       0.33076930