768
Lattice="25.489424268572538 -0.0956594233117733 0.005584256169073863 0.09977264370270744 24.739172851202614 0.6001478684267295 -0.002024446371267937 0.5682806783236378 24.75292066089703" Properties=species:S:1:pos:R:3:forces:R:3:momenta:R:3 energy=-3328.6303739734544 stress="0.0 0.0 0.0 0.0 0.0 0.0 0.0 0.0 0.0" pbc="T T T"
I        6.87340844      24.06786520       1.79893778      -0.13032389      -0.22035365       0.05852048       1.42982063      -1.71866016      -1.93634441
I        6.21940188      10.10144946       7.46600577       0.15058126      -0.01771973      -0.01154048      -0.95753178      -1.30763664       2.15252376
I        5.68215440       7.84174800       3.82430610       0.19761764       0.17960742      -0.15918925      -1.59845453      -2.50796226      -2.60365717
I        6.50595469       1.59166085       5.08423879       0.06333181       0.09680182       0.05346510       0.54541329       0.27666986       0.59998721
I        0.20169838      10.13318925       7.43329187       0.05481513      -0.06342140       0.11967704      -0.31745109       0.65445708       0.42841780
I       12.47067386      24.32716321       1.93152658       0.09202190       0.05594023      -0.25605326      -2.22504555      -0.67922055      -1.57592279
I       12.45624990       1.70341181       5.06742707      -0.05474610       0.07917008      -0.00221613       0.90381037       1.45140057       0.15886206
I        0.18185681       7.94401594       3.31801813       0.15179672       0.06347769       0.16142878       1.17804705      -0.47852840      -2.86086958
I        9.65703754      11.48149068      10.42435594      -0.17511544       0.22674896      -0.30295529      -2.67840420      -1.71912822      -0.75392610
I        3.17001752       4.11521931       4.62449342      -0.03522720       0.04990718       0.12891828       3.54744240       2.07858719      -0.49719255
I        3.33985428      23.59417737       4.45169153      -0.06147849       0.08733758      -0.25963960      -1.92204106       0.07441030       0.08456252
I        9.89119863      10.48660722       5.02932743      -0.41877759       0.04164085       0.15808769       1.44908455      -1.62097435      -1.85394384
H        2.23110127       0.63958733       0.58354675       0.44029431       0.27331049      -0.24208482       0.02289878       0.13357191      -0.10046033
H        9.14837039       0.89526708       3.00865491       0.25417045      -0.00989301       0.04913823       0.11755225       0.26521486      -0.17985401
H       10.45381497       8.40888828       2.57817248      -0.24488278      -0.00171443       0.18151360       0.09013319       0.02924296      -0.10960733
H        3.24909593      -0.00041324       8.17995066       0.06589565       0.49984611      -1.30750263       0.04100014       0.24915019      -0.00210411
H        4.11683192       6.88923178       6.18552600      -0.42960396       0.11284804      -0.33409898      -0.02582230      -0.15972342       0.16577612
H       10.97229187       1.79083098       2.56405846       0.32329816       0.79985835       0.32615641      -0.01152142       0.01350053       0.03636484
H       10.63490312       2.76914206       8.25961923      -0.17806254      -0.06757291      -0.35992089      -0.16597797      -0.19725683       0.00611427
H        2.15753845       0.22410453       6.73823367       0.13361061       0.58419642      -0.29597416      -0.04067429       0.06659055      -0.10937144
H        4.00911027       0.18073525       0.55713933       0.45406216       0.16498877      -0.16820112       0.14531306      -0.02962368      -0.18070075
H        9.14942067       2.84476858       2.64303341      -1.11372370       1.39254694       0.49023716      -0.36737914       0.08127021      -0.16966124
H        8.65172957       8.83199162       2.24465375      -0.83186635       0.15031224       0.59007377       0.03625602       0.05800321      -0.10542901
H        4.03215856       0.49438867       6.62049115      -0.17829666      -0.33114095      -0.47319255      -0.04198401       0.31554357       0.01477056
H        4.19498692       2.72270056       1.75766394      -0.28755271      -0.66249878       0.06334617      -0.08618631       0.17449711      -0.27230638
H        9.90201273       8.41186843       6.69156513       0.27094026      -0.04419642       0.57912600       0.23052876      -0.01672577       0.17735843
H        8.54292673       7.20404677       0.44618337       0.88110358       0.32261402       0.86449855       0.00278469       0.03613919      -0.12211714
H        2.31009104       8.75992323       1.80935100       1.30469987      -0.73444543      -1.21089027       0.33297243      -0.07603717       0.24285910
H        3.40811234       1.34105875       2.62566964       0.50436111       0.51378102      -0.16473321       0.00597878       0.06258586      -0.05270838
H        9.12369728       7.03167615       6.99298417      -0.13652662      -0.28543592       0.41043460       0.14045499       0.16118660       0.04442608
H        9.17769901       6.38718574       1.87045993       0.33453426       0.10190982      -0.04215562       0.18887151       0.13563335       0.06962119
H        3.26733427       8.57070489       0.29107995       0.32261375       0.95738712      -0.92584164       0.07958017       0.07322464      -0.02724520
H        2.51789545       2.55640221       1.98295872      -0.27247360       0.31952408      -0.65119945      -0.05541581      -0.03112179       0.14516921
H       10.11612112       0.81682545       0.63104307      -0.51436363      -0.16029500       0.07794732       0.00487738       0.04259309      -0.17380268
H       10.21726246       6.96678758       0.59126839       0.05290599      -0.22237664       0.35950809       0.21120963      -0.11935202       0.08720299
H        3.97600518       8.47754137       1.92613663       0.05182474       0.01828866      -0.52205624       0.00403763       0.03900350       0.00021948
C        3.17106169       7.44985634       6.31227838       1.50747310       0.50882017      -0.19921709      -0.28038924      -0.53558522      -0.54425096
C        9.68445889       1.81930068       2.41723802       0.31160949      -1.72233692      -0.05236922      -0.03097987       0.41460889       1.61344473
C        9.64522444       2.75340285       7.73106655      -0.30779575      -0.32019893       0.09749010       0.19500240       0.81640459       0.31718945
C        3.10863100       0.58587054       7.19360220       0.92213717      -0.76463826       2.53568196      -0.62074583      -0.10625479      -0.54787812
Pb       6.33566705       4.88085359       4.49997621      -0.13710749      -0.19127206       0.05760897      -3.60124224       0.45271484      -3.57956284
Pb       6.78792886      11.12044531       4.41198926      -0.36421013      -0.24597632       0.13032258      -0.07085564       1.60794858       0.14970986
Pb      25.53353751      10.93987379      10.56834806       0.02873825      -0.19515592      -0.13399748      -3.92649085      -2.91749038      -2.18626377
Pb      25.66815477      10.99434552       4.24887748      -0.00728238      -0.13425914       0.17476207       0.78444693      -0.59096088      -2.87768928
N        3.36805210       2.00914814       1.77718135       0.52953209      -0.71440376       0.82040659       0.12191651      -0.04504144       0.03505118
N        9.95957658       7.56237166       7.32030168      -0.83329040       0.44641173      -1.97217792      -1.06764390      -0.00845699      -0.02278124
N        9.38530164       7.18456659       1.17425259      -1.22733086      -1.08306107      -1.43634520       0.53131702      -0.08781034       0.37558286
N        3.17840440       8.20925619       1.29050963      -1.72865594       0.26890890       2.62540818       0.45301911      -0.79276328      -0.43153748
I        6.51642506       5.81287763       7.58347215       0.27569618       0.07070385      -0.16741502       0.08783784      -2.64134051      -1.42468408
I        6.29633563       3.82995610       1.45491694       0.12797662       0.12399513      -0.38456404      -1.54054467      -1.14950103      -1.38634144
I        6.24612867       1.74495897       9.51084916      -0.13278823      -0.19366186       0.05018061      -0.04754403      -0.54069276       0.78665163
I        6.32565385       8.09720234      24.05615269       0.17015483       0.06572085       0.03341303      -1.48424626      -0.59496144      -2.82456202
I        0.19088472       3.75250622       1.48437671      -0.01214509       0.03822271      -0.29654468      -0.14569502      -0.46500714       0.00361712
I       13.00815618       5.85838894       7.46896354       0.00624143      -0.05123855      -0.12241339      -1.25421802       2.72233727       1.32823971
I       12.50940957       8.30771279      23.95724603      -0.26148036      -0.22945978       0.07840105       1.94798839       0.38531645      -1.00606039
I       -0.08110913       1.50676443       9.24651284       0.05046721       0.44612946       0.25420591      -0.07005870       1.62991671      -0.05448806
I        9.58243090       5.41958210       4.32955982       0.08248829       0.00819836      -0.04635172       1.62992517      -1.69790671       0.13048733
I        3.24782388      10.97785920      23.15891315       0.48918786      -0.05045375      -0.04902297       2.20247432      -0.19538609      -1.84900177
I        3.18004518       5.05256056      10.05959921      -0.25726670       0.14341475      -0.23598318      -1.98860133       1.73786108       1.68231170
I        9.63087159       4.75336473      23.35225041      -0.03047434       0.17512189       0.05276945       1.46607524      -0.67565876       0.60557570
H        3.06454220       8.24332713       5.54035712       0.15300700       0.02507360       0.09452601      -0.12082711      -0.15511707       0.23056591
H        9.74375487       6.86096492       9.25933430      -0.06139665      -0.29894147       0.57336311      -0.28056573      -0.04948975       0.25126009
H        8.84701415       2.94797529       8.51269807       0.43120818      -0.09922286      -0.58387084       0.06262602      -0.25962452      -0.17749257
H        3.97924550       6.05737087       1.01400501      -0.26956698       0.16616526      -0.20258109      -0.02856983       0.22915392      -0.00661891
H        3.44713993       1.72980646      -0.40811309       0.21890977       1.21828672      -1.12064612      -0.02224954      -0.08806282       0.18826380
H       11.02933365       8.18473229       9.04142722      -0.26913855      -0.12542551       0.10242524       0.00226618      -0.12757495       0.02523526
H        9.97963340       9.24294419       1.00413904      -0.29382967       0.20340196       0.11684670       0.08622686       0.16623090       0.06071177
H        2.79512015       6.38159275       2.49082552      -0.21872881      -0.95218020       0.99727244       0.03967762       0.20886121       0.26940659
H        2.31804348       6.80091847       6.27880667      -0.83484150      -0.65322815      -0.07377047      -0.06580068      -0.14004995       0.28680261
H        9.23633404       8.64372727       8.99031425      -0.22668932      -0.05178530      -0.01874431       0.08609464      -0.09378207       0.17079887
H        9.58585778       3.49688144       6.88967626       0.01379473      -0.54260657       0.62062900      -0.06739699      -0.21459296       0.20693754
H        2.10584210       6.36997667       0.70555540       1.37035165       0.21736548       0.79303220       0.01195185      -0.07963802      -0.09594410
H        3.25786417       7.28730127       8.39808914      -0.19509554       0.21703338      -0.38451298       0.06341935      -0.18929720       0.14951621
H        9.32647275       2.24102017       0.34658929      -0.02420356       0.18255923       0.18417307       0.03745208      -0.08049021      -0.01977649
H        9.31346410       0.62649230       7.88393620       0.19236117      -0.45840381       0.73255773       0.10106470      -0.29477922      -0.20039502
H        3.94162127       2.21847026       8.23971411      -0.26875160      -0.14177467      -0.38111796       0.15348517      -0.01494514      -0.02208757
H        2.52358561       8.69401898       7.88637024      -0.48481786       0.31553476       0.00937782      -0.10958921      -0.08218843      -0.30109057
H        8.38335306       0.94545420       0.91679533       0.42222177       0.10512758       0.25661241       0.07171363      -0.07458866      -0.06486360
H       10.32051566       1.08587526       6.57602585      -1.21453540       0.15122053       0.64853003      -0.14214188      -0.15973259      -0.21099384
H        2.24637704       2.05598748       8.32183448      -0.01264140       0.45747696      -0.14154408      -0.02157357       0.24328428       0.01051734
H        4.20739530       8.55426365       7.90555548      -0.86236436      -0.41381401      -0.96616808      -0.22991171       0.16111825       0.07498028
H       10.79317906       7.02591172       6.98482225       0.22531324      -0.21943614       0.27076187      -0.18633490      -0.10591595      -0.20337779
H        8.60618609       1.32133281       6.54377273      -0.58940364      -0.14874289      -0.55559183       0.41053438       0.09237443       0.19022627
H        2.98882907       2.72292856       6.86106304      -0.01358059      -0.91439667       1.25133880      -0.21963178       0.24883594       0.11575133
C        3.29390084       1.10238401       0.49436966      -1.64045584      -1.33025415       1.53493374       0.17606405      -0.41046635       0.52985324
C        9.97602438       7.83263829       8.76442309       0.63820023       0.61594177      -0.00290399       0.03228775      -0.77230718      -0.58931356
C        9.59837992       8.50890707       1.82498840       1.36494199       0.47338791      -0.74962976       0.04017448       0.25496396       0.36585490
C        2.99689699       6.63865280       1.37282780      -0.79243572       0.08728744      -1.40170197       1.18441695       0.31443551       0.41091295
Pb       6.52712579      11.04384451      10.46729359      -0.11465781      -0.01860419       0.28879891       0.53959668       2.86702672      -3.33774867
Pb       6.26373208       4.80448416      10.59179347       0.23523452      -0.14139387       0.02871329       0.59696002      -0.42670963       0.84111369
Pb      25.32493431       4.71711425       4.29862619       0.39114386       0.09261943       0.13065520      -1.43682911      -0.92845595       1.94062834
Pb      25.43137663       4.81809400      10.41213139       0.19332134      -0.45483483       0.32471144      -0.84150073      -3.23369032       2.64706654
N        3.28733306       8.04366326       7.65905185       0.93419245      -0.05715144       1.99245653       0.17470789      -0.52637693      -1.21031767
N        9.33638884       1.43694037       1.00775241       0.47749208      -0.46303522      -1.45973803       0.62643840      -1.12037097       0.33324990
N        9.44299429       1.33412009       7.15099925       1.75977399       1.49727887      -0.68740525       0.33228798      -0.53824322       1.51405760
N        3.07883548       2.00599849       7.67699480      -0.44973775       0.67193761      -1.19184429      -0.66106318       0.13127408      -0.03173459
I        6.62106873      24.36668888      14.41666586      -0.08897070       0.02617563      -0.47372533      -1.12774695       0.39476721       1.65516207
I        6.19316513      10.06273367      20.01831399       0.02433375       0.09085418      -0.16284751      -2.20315251       1.50757163       0.12956270
I        5.99192282       7.89289031      15.90635753      -0.40043405      -0.03756810      -0.32404442      -0.46373946      -1.84066156       2.03282814
I        6.39944287       1.73348563      17.62119562       0.29239880       0.14971949       0.07700096      -0.53547983       1.79970036      -0.76802897
I        0.29657606      10.45122434      19.88965329       0.17768394      -0.05390759       0.03707358       1.21151865       2.28080292       1.24174485
I       12.81125396      24.22254591      14.18740198      -0.12940682       0.10874060      -0.07515889      -0.33499313       3.10500644      -0.26092529
I       12.46261482       2.11296214      17.93921895      -0.04103055       0.08135977      -0.24233097      -2.27416631      -0.15053124       2.62733635
I        0.40304256       8.18300878      16.59390862      -0.08748579      -0.13514905      -0.22757728       2.09502613       1.52422017       0.18628656
I        9.83279550      11.91206563      22.77128584       0.00984834      -0.10909486       0.10882621       0.58571268       0.54435550       0.29877151
I        3.23137912       4.59992283      17.00947640      -0.30597110      -0.29773134       0.14766750       2.97745095      -1.70538193       4.25606488
I        3.38168433      23.82511041      16.72481735      -0.06996754      -0.22280091       0.15335997       2.43494112      -0.52784675       0.19431086
I        9.45687275      10.67420452      17.20318776       0.38582418       0.11892520       0.02530832       1.80847507      -0.27027497       0.00055930
H        2.23311197       1.18229012      11.77253040      -0.01130408      -0.47660856       0.08897208      -0.07020206       0.00392523       0.07837287
H        9.34306897       1.58464650      15.62048224       0.18558217       0.68508516      -0.59779444       0.36787830      -0.24571284       0.08644657
H       10.09403696       9.32012931      14.42498013       0.48928878      -0.25829483       0.07589577       0.00970501      -0.00503684      -0.07678430
H        3.73690424       0.16565422      20.29168573      -0.03472777       0.51409458      -0.05685841       0.24105225       0.08835559       0.06265972
H        3.72934902       6.46098174      19.00917339       0.56597172      -0.62599755       0.07235497      -0.00324153       0.00219206       0.07937783
H       10.53605245       2.79209810      14.72183094      -0.71739048      -0.30580209      -0.41192006       0.07695327      -0.16653789      -0.01724967
H       10.72049831       2.58774854      20.82275147      -0.36029021      -0.35593845      -0.04678711      -0.02806771       0.01640011       0.08173847
H        2.42588233       0.61170443      19.07942039      -0.49457305       0.31276541      -0.38108351      -0.08805157       0.00917907       0.23443501
H        4.09204217       1.47582898      11.62548027       0.46266630      -1.26065234      -0.17903958      -0.16488829      -0.06500546       0.16453422
H        8.67694588       2.99904952      14.57840306       0.13250926       0.40661365       0.07377712      -0.21304510       0.12312576       0.02010608
H        8.33070170       9.00439961      14.23763749      -0.19506774       0.01009313       0.03560662       0.12740508      -0.15518822      -0.19341903
H        4.24183522       1.03813141      18.68330836      -0.77822169      -0.00535536       0.31970361      -0.00157028       0.05705026       0.18451334
H        4.10549145       2.18413448      14.01905948       0.16060362      -0.42212330      -0.33912824      -0.08272703      -0.13424956       0.18009087
H        9.67599983       8.79150873      18.92465375       0.12890704       0.70005847      -0.60600314       0.06438213       0.26539118      -0.09018372
H        8.65489149       7.05549917      13.00469225       0.07672346      -0.47167704       0.01444491      -0.13464621       0.17179458       0.07046413
H        1.99361420       8.64351577      14.27165406      -0.74098425       0.24730689      -0.01615359      -0.04982637       0.30964835       0.01252654
H        3.18449420       0.74702766      14.19747894      -0.35915189       0.56918347      -0.78495944       0.26845567      -0.09203050       0.28137617
H        8.69341777       7.55927769      19.37765408      -0.84017482      -0.90611824      -0.27481967      -0.21587280       0.10724427       0.14332911
H        9.69395221       6.77007503      14.40692232      -0.47194231       0.43840994      -0.32793723      -0.00456629      -0.03164072      -0.15199542
H        2.82788837       8.96802386      12.77660082      -0.18002124       0.72855286      -0.75100545      -0.03323807      -0.00692934      -0.05543586
H        2.54736251       2.45718487      14.07211327      -1.07936848      -0.40943562       0.23460150       0.19283470      -0.01366818       0.00326792
H       10.21266805       0.56036242      13.29524545       0.17171713      -0.17849442       0.30586073      -0.02626516       0.13897165      -0.23903889
H       10.30912883       7.19425522      12.92909811       1.17755228      -0.06879823      -0.87186334       0.16046881      -0.01934932       0.01028239
H        3.62614912       8.64397634      14.23306260      -0.42759171       0.43009697      -0.35444299       0.15538300      -0.07816418       0.35520575
C        2.97685067       7.25943595      19.07321056      -0.36361830       2.58750039       1.45208753       0.03160306       0.49362424       0.95711052
C        9.53640023       2.27382328      14.65809652       0.39401719      -1.12000674       0.41250782       0.20376888       0.61175307      -0.54208714
C        9.71685995       2.56522700      20.31983938       0.09770107      -0.27737664       0.03537255      -0.75430518       0.53533263       0.23111841
C        3.39615071       0.94223333      19.48911296       1.45728228       0.31237678       0.51207822       0.69701570      -0.53141335       0.03716721
Pb       6.19474086       4.96942449      16.91078912      -0.00487646      -0.22294020      -0.47547750       1.15766099       1.08205247      -1.79291630
Pb       6.26225843      10.84312619      16.78959768       0.12460338       0.21981821       0.03946421       3.68118923      -0.39958486      -0.91344247
Pb      25.59229860      11.39665100      22.90567148       0.23714427      -0.20161386       0.01270252      -0.79157578      -0.64898634       4.88963762
Pb      25.53715615      11.41602167      16.85763006       0.09351671      -0.52379106      -0.01702281       0.78266910       0.23960618       3.48336564
N        3.20833573       1.70904903      13.68564826       1.03318060       0.58961187       1.40538468       0.58751256      -0.21993344      -0.02912958
N        9.59718605       7.98909666      19.54540384       1.29693360       0.28860400       1.77054247       0.71884949       0.10529583      -1.13405567
N        9.52020223       7.34975358      13.51145769      -0.87948124       1.00770404       1.19386849      -0.52753747      -0.06407284       0.40248614
N        2.78079214       8.43855352      13.64871641       1.79998071      -1.79215113       1.56968681       0.90870374       1.10059098       0.24878749
I        6.81073709       6.00477999      19.86001450      -0.19378138      -0.16569111       0.14260440      -1.67349464       1.76156068      -0.02709644
I        5.92366210       4.01864657      13.67297490       0.05845350       0.09912905       0.33355572       0.91068616       2.90528819      -0.65761663
I        6.18197621       2.01872580      22.33408234      -0.11472530      -0.09889356      -0.25705370      -0.30063815       2.75373161      -5.15242072
I        6.62931765       7.86483738      11.26378247       0.07289216       0.12653399       0.21849998       1.40957432      -0.56381313       2.88859611
I        0.56532726       4.05903922      13.79408126      -0.07145032       0.09256263      -0.47195797       0.18063737       3.23615449      -1.99838295
I       12.49408994       6.01645766      19.91769949      -0.01385316       0.04589022      -0.55856302      -3.08672827      -0.29350513       1.83446448
I       12.73729974       8.01717264      11.65779834      -0.18828822      -0.08019182       0.05283909      -0.93038846       1.99185072      -1.76788240
I        0.40038519       2.28016456      22.22635557       0.09700455      -0.56279205      -0.03530661       0.85117757      -0.64723890       0.87425422
I        9.33138006       5.56113408      16.54687993       0.52634286      -0.09587418       0.11041670       3.52351839       0.06007735      -0.74582330
I        3.21878888      10.31869169      10.72781528      -0.14671468       0.09835505      -0.14308378      -4.32149170      -0.03021106      -0.24249146
I        3.16870200       5.33689368      22.67504373       0.44331822       0.03626506      -0.21758628      -0.58097908       3.78950865       1.14926402
I        9.45190087       4.14534481      11.15703619       0.49486587       0.28589628      -0.05716043       2.73663909      -1.18175932      -0.70850922
H        3.18358186       8.00843540      18.22485439      -0.62769869      -0.74599754      -0.39117735      -0.05580116      -0.14360109      -0.05553839
H        9.83931437       7.47911711      21.54509699      -0.34691251      -0.88957132       0.97104078      -0.08607351      -0.05339215      -0.05685123
H        8.89700596       2.92374394      20.96109100      -0.18336368      -0.37859896       0.46488704      -0.05299885      -0.05117900      -0.04467745
H        3.97867395       6.67458378      13.11638756       0.03303061      -0.22349496       0.26890180      -0.07700855      -0.16644857       0.04279728
H        2.96708578       2.90781117      11.85180069      -0.23275429       0.27312549      -0.27025847      -0.00835457       0.22562419       0.07859403
H       10.56354190       9.01151252      21.17715430      -0.37341368       0.33522631      -0.14952688       0.10151639       0.09702262      -0.03920473
H        9.28312859       9.35505815      12.76450277      -0.00978040       0.18538832      -0.18162877      -0.11732238       0.03983661      -0.02758644
H        2.65352220       6.46715465      14.51753335       0.26451242       0.26457359      -0.92055959      -0.19975093      -0.08670193      -0.17735473
H        1.91707588       6.81876454      19.30207944      -0.26723689      -0.11851427      -0.83747143      -0.25739569      -0.18111644      -0.04598125
H        8.69920914       8.85836153      21.25062642      -0.34145219       0.62699506       0.37012413       0.03627924       0.29217600       0.04216613
H        9.73510084       3.26342260      19.50534553       0.14163300       0.47257714      -0.81109662      -0.03447824      -0.20109223      -0.26849615
H        2.21827982       6.58985312      12.64126668      -0.76843984      -0.02214243      -0.29658288      -0.08174140       0.05010765      -0.07631959
H        3.43023092       7.57979001      21.24631240      -0.28016470       0.57307929      -0.16491679      -0.00268272      -0.04459278       0.23994213
H        9.54459787       1.88872037      12.43528757      -0.03025900       0.04479246       0.30929850       0.06584387      -0.02556647       0.02653069
H        9.42534847       0.38221349      20.45073392       0.12742213       0.64046172      -0.52617049       0.17457176      -0.22921855       0.00139521
H        4.14342899       2.60402499      20.61813244      -0.33254285      -0.32025030      -0.42875430      -0.04267866       0.17634088      -0.02336907
H        2.44333828       8.83575450      20.64354602      -0.55076724       0.20471540      -0.48759972       0.02348712       0.11319171       0.23183739
H        8.50041837       0.82002405      13.45434949       0.28432811      -0.15984342      -0.14339023       0.03975853       0.08475311       0.05122369
H       10.20217899       1.00105266      19.00595043      -0.49563365      -0.17070540       0.47552735       0.10377120      -0.06592162      -0.10872383
H        2.47422740       2.41923837      20.82341268       0.16180478      -0.19066316      -0.49870483      -0.21019203      -0.09812234      -0.00715407
H        4.12738875       8.88386439      20.22240526      -0.76116320      -0.51453474      -0.20810633      -0.10425217      -0.04474087      -0.13640728
H       10.37679782       7.28978891      19.37519948      -0.38973696       0.34417158      -0.11319374      -0.22977606      -0.19220283      -0.00266773
H        8.51064644       1.16897759      19.16163598       0.47581626       0.20659085       0.44746213       0.14783192      -0.13808154       0.06453366
H        3.11430507       3.05053657      19.37134035      -0.06661732       0.92863066      -1.20801542      -0.08560169      -0.21225160      -0.18706377
C        3.09176644       1.76279993      12.13119838       0.12477443       1.19031572       0.00763919      -0.15046911       0.31568123       0.61119634
C        9.65833566       8.40983362      21.02627555       1.00119114      -0.46988690      -1.98392752      -0.50449441       0.33360678      -0.17424226
C        9.31045206       8.87372487      13.75875653      -0.23422788      -0.76090356      -0.18243915      -0.29870719       0.23931039      -0.16385976
C        2.91518974       6.90998494      13.45294112       0.35386111       0.31000454       0.86826352       0.25309383      -0.23213088       0.14674396
Pb       6.66763042      11.23761084      23.14203927      -0.25775665      -0.12212584      -0.44171194       2.04359736       3.55424346      -0.26942849
Pb       6.47255916       5.10508163      22.84055461       0.02824283      -0.01144733       0.51599871      -1.07124206      -0.35468670      -1.12336382
Pb      25.39136064       4.74502581      16.71217759       0.28273997       0.35168965      -0.11022227       2.94052417      -3.34908657      -1.58327770
Pb      25.67963747       5.13950952      22.96122572      -0.29566063       0.08996521       0.11819774      -1.01232993      -1.78570678      -0.98138516
N        3.21692845       8.22458713      20.36806435       2.21100997      -1.06158389       0.67188171      -0.34191300      -0.44182530      -0.31207832
N        9.47320761       1.31185547      13.38446417      -0.18353339       0.57996534      -0.01219374       0.64003396       0.16519905      -0.04221784