768
Lattice="38.36233378009021 -0.17091669423460434 -0.23415642229604455 0.13860846621712591 21.550492846406996 -0.023849043928523623 -0.012701609790407587 0.03213069133637567 18.81004073834508" Properties=species:S:1:pos:R:3:forces:R:3:momenta:R:3 energy=-3295.5849311327015 stress="0.0 0.0 0.0 0.0 0.0 0.0 0.0 0.0 0.0" pbc="T T T"
I       17.69743096       4.92883696       3.66879633       0.12268294      -0.20785846      -0.03266740       1.82610018       0.42199816      -3.23590854
I       17.99075495       8.15615854       0.91467180       0.03351863      -0.08477271      -0.07730742      -2.19041674      -1.58176378      -1.61960092
I        8.56219769       9.86981384       3.35437964       0.13375748       0.79646278      -0.22118779      -0.10450324      -1.08710174       0.69485378
I        8.57753585       2.87596225       1.16063204       0.17934497       0.33732359       0.02978865       1.86159465       1.49555782      -0.91016435
I       16.46351024       2.01526686       0.91188680      -0.84105992      -0.30270663      -0.00377957       1.43386969       1.85703937      -0.08590888
I        0.90299000      11.46893335       3.75707618       0.64521974       0.22940700       0.15907107      -0.42637026      -0.11107470       1.13220390
I       10.47048510       7.30484146       0.36233171      -0.39398929      -0.17390547       0.32677231       0.99917955      -1.76487325      -0.90999984
I        6.74821682       6.13697375       3.28717043      -0.41339026       0.61749514       0.04977238       0.12252546       3.39360889       0.34553263
I        2.97411241       4.89352304       0.87380088      -0.43412775       0.03804104      -0.05202438       1.71671080      -4.78310408      -1.96686606
I       14.08333311       8.76319753       3.43128464       0.25669634      -0.37352233       0.09290948      -0.76122402       1.02033787       0.90562657
I        4.34371660      10.18168466       1.13519412       0.40869941       0.05538279       0.02662779       0.43230723       3.57442528       0.46547334
I       12.58936634       3.81038621       3.04920352       0.07026628      -0.20973133       0.52985674       5.30144828       2.11652155      -2.47335917
H        4.61423809       3.28483574       2.30374590       0.35041372       2.25635631      -0.96602475       0.10325602      -0.07811446      -0.10649742
H       11.84088054      10.05731899       2.65626061       0.97636677       0.40765886      -0.50900582      -0.03417615      -0.03590752       0.33069846
H        2.37529776       8.63018033       5.54827586      -0.15055296      -0.60809884       0.02068078       0.10218078      -0.19571884       0.49071347
H       14.71397300       4.89384618      -0.89364806      -0.04872358      -0.93817443      -0.93500373      -0.25304940       0.16080939       0.05988336
H        6.11848953       2.42932036       3.29351212      -0.16385495       0.04467510      -0.61037962       0.17276705      -0.14923297       0.02872593
H       11.15666413      11.71202238       2.73438062      -0.20761695      -0.05059130      -0.08267037      -0.13689387       0.16378532      -0.09552783
H        1.17680467       8.95837676       3.74946807       1.30422720       0.17011433       0.62797742       0.18731538       0.25352388       0.18367158
H       15.21922438       6.61412661      -0.49597356       1.31636109       1.34577208      -1.63327724       0.33606231      -0.12734941       0.12609592
H        5.29514497       1.73564009       1.67031266       0.16132193       0.00011689       0.42020783       0.03217733      -0.02607929      -0.29181946
H       10.60764401      10.57492672       1.42272408      -0.44609419       0.12826222      -0.31127753      -0.16768769      -0.16691299      -0.05877876
H        1.36255758       6.89080732       4.40028272       0.81128814       0.85204463       0.40264356      -0.11607189       0.02523069      -0.01176258
H       15.93022225       5.11007643       0.56502281      -1.81840334       0.64851299      -2.17701047      -0.20199004      -0.29747457      -0.01205873
H        4.61527035       0.64012164       3.67055000      -1.06080800      -0.15791368       0.84770519       0.30804223       0.26815672      -0.12752165
H       12.17095830      12.59031147       0.68939955      -0.26528646       0.89119603      -0.90524502       0.17360069       0.08047383      -0.10114016
H        3.68804605       8.61662996       3.08553978      -0.17583955       0.20993238      -0.04343203      -0.22514098       0.28205967      -0.05585161
H       13.00420698       6.51488530       0.29226861       0.51845230      -0.71045302       0.85068065      -0.15340572       0.34806897      -0.37316795
H        3.06208110       1.84060174       3.16064811      -1.56822303      -0.80423841      -2.39279445      -0.00628007       0.20719179       0.45146924
H       12.65727061      10.97043097       0.02755843       0.38477980       0.81893360       0.44320370      -0.02660858      -0.38829601      -0.15747354
H        2.77078421       7.16710788       2.36461503      -0.38349405      -0.91075252      -1.06136135       0.09307443       0.46263571       0.06073277
H       14.09306024       6.63229143       1.66122952       0.25597070      -0.40820035      -0.65834610      -0.22324223      -0.03939216      -0.17882801
H        3.75404800       2.18246318       4.69090441       1.19570540      -0.32547428      -0.44468245      -0.00507921      -0.17051631      -0.01243457
H       13.54345429      11.64803102       1.41731323       1.79581758       0.45917494       1.91978105      -0.37583612       0.14886913      -0.04570200
H        3.95636700       6.69747980       3.80363536      -0.28405472       0.78318638       0.65954129      -0.27907062       0.13784993       0.34887715
H       13.46926718       5.15945638       1.43523333      -0.16619223      -0.90087446      -0.38754422      -0.09949069       0.22175177      -0.33943413
C        5.12186869       2.37805561       2.66361212       0.73124762      -0.73373330       0.33252462       0.15301116       0.08120495       1.77820213
C       11.48675559      10.92587382       2.04098745      -0.04749074       1.04921571       0.00285377       1.44713168      -0.44727660       1.06647760
C        1.95658059       8.11233532       4.40736367      -0.12878669      -1.15866479      -1.55028883       0.64962649      -0.42990444       0.06191190
C       15.00035121       5.61595312      -0.12562229       1.64852615      -1.46421414       4.45803016      -0.25318070      -0.68744964      -0.97119973
Pb      38.41613166       2.78759517       0.50437006       0.66764643       0.34388427       0.07196487       0.67658127      -0.24320994      -1.19023281
Pb      17.07708871       9.81250898       3.35460665      -0.24226095       0.10471698       0.03338744       3.17482007      -7.68779731       2.83395242
Pb       7.39211350       8.58183117       0.70337523      -0.30989538      -0.68295887       0.02503329       2.94977088       4.35247876       2.21941500
Pb       9.65024956       5.19583892       3.21193464       0.01359768      -0.42057061      -0.49608143       0.78701286       0.55613555      -2.03622601
N        4.08386274       1.75351723       3.58210759       0.86283932       0.13729117       2.61432986      -0.89926295       0.22605788       0.09890843
N       12.54458016      11.63510679       1.00037907      -2.31384857      -3.88216426      -0.81722124      -0.68126482       1.18173986       0.93366447
N        3.16269507       7.68508039       3.36852179      -1.14201312      -0.01932583       0.78468516      -0.14710132      -0.84365333       0.08498769
N       13.84830166       5.92086116       0.83471918      -1.28874301       2.81051743       0.66274657      -0.30937019       0.04983437       0.48598078
I       18.10131883       4.56285047       8.12053328       0.00797899      -0.03015333       0.32820687       0.62619620      -2.80133031      -3.03347468
I       18.12629786       8.10059419       5.93031962       0.17888330      -0.28814698      -0.40847401       0.55017081      -1.04415852      -2.11317606
I        8.86938619      10.37276715       8.15790111       0.04482889       0.02940338      -0.54872199       5.06505047       1.85695545       2.19668004
I        8.24333817       2.93396514       5.00178445       0.33628814       0.22301481       0.34787458       1.63967554       2.07825108       1.10602876
I       16.12026406       1.56239321       5.92924582       0.08838651       0.09713113      -0.11167285       4.44943667       1.11950180      -3.16546475
I        0.75723968      11.51840456       7.84995226       0.02755431       0.35115122       0.05940005       2.05406979      -1.83546074      -1.69187932
I       10.23921446       7.01266799       5.82988622       0.27767487       0.22757734      -0.04859480       3.61376714      -2.20837233       0.36980791
I        6.43851005       6.44352518       8.15725490      -0.06308026      -0.07237572      -0.01058544      -3.11668936      -0.53106149      -0.45442419
I        2.55188128       4.18057126       5.62996495       0.35420973      -0.02911961       0.19384712       6.99621672      -1.73140715       4.68831520
I       13.88512650       8.60423322       8.09074101       0.32604395       0.66090340       0.01921286      -2.50404264       0.67569123       2.24129283
I        4.64277328      10.01104673       6.10670427       0.15843946       0.14487333      -0.50326292       1.45023342       0.84731765       1.25613303
I       12.06381853       3.48826860       7.60767373       0.18243104       0.11342345       0.39179124      -0.48256664       0.69820643       1.87639882
H        6.53943457       2.03918893       8.23159288       0.45564080      -0.91698644      -0.70881582      -0.08494180       0.26293088       0.02286239
H       11.28965340      10.66601821       6.37375574       0.70194665       0.82928341      -1.62867306       0.10963131      -0.18056692      -0.11277719
H        2.62974053       8.40673029       6.83835060      -0.30285579      -0.61881804       0.61440626       0.47066550      -0.34803556      -0.05001167
H       14.68509566       5.42044438       7.96304005       0.19405542      -0.20369349       0.29860775      -0.01318178       0.08701701      -0.21274183
H        5.86554388       3.86430790       7.01498548       0.03325992      -1.57395146      -0.92685464       0.02029179       0.02556183       0.27770001
H       11.35632209      11.65384522       4.67304754       0.60960924      -1.74034365       1.25570835      -0.11566171      -0.31300466      -0.17255859
H        1.20802550       6.97839437       7.54140720       0.42386664      -1.62933214      -1.73590089      -0.02666025      -0.37291063      -0.27499188
H       15.51837222       4.99422445       6.03799611       0.08429776       0.17231599      -0.78404226      -0.13647616       0.31597313       0.13725715
H        4.80250741       3.20788957       8.75929880      -0.22334089       0.14310425       0.11737366      -0.06100740       0.42265279      -0.07069007
H       12.09808384       9.87234569       5.00418864       0.34354158       0.34806866      -0.37954345       0.17839789      -0.19972798       0.20695654
H        1.35472874       8.44217137       8.42941720       0.24404057       1.03460984       0.57773735      -0.32713992       0.25545085       0.13511953
H       15.30652671       7.23747275       6.68298819      -0.15668335      -1.59110354      -0.46451779       0.28179510      -0.20121688       0.35138088
H        3.65047550       1.92582828       6.78467704      -1.10263407       1.22001540      -1.01475734      -0.23480419       0.21306773       0.26560179
H       12.90727346      12.57868801       6.25245607       1.07733542       0.12350641       0.57521617       0.17455974       0.06908459       0.08005903
H        3.86289568       7.93641114       8.79849774      -1.02905850      -0.63490752       0.29978811       0.05259587       0.17805938       0.17295683
H       13.57339236       6.91254424       5.30255225      -0.02225051      -1.72662541       1.01426495       0.25005585       0.09667220       0.03908905
H        3.84005235       1.14023235       8.28581764      -0.62897868       0.15606635       1.00426723       0.34512398       0.01391387       0.21789570
H       13.88477136      11.52832010       5.17400471       1.56405478       1.43556434      -1.82452901       0.07770023      -0.22156534       0.01545443
H        3.74834749       6.19854629       8.11253915       1.05971767      -1.26711445      -1.95400722      -0.06766672       0.11654631      -0.22385361
H       12.85632117       6.29665279       6.66165991      -0.74001393       0.30106489       0.85083020       0.06108238      -0.15982901      -0.08041063
H        4.76475137       0.48555715       7.12690497      -0.28455255       1.27378854      -0.14492120      -0.07019864      -0.14124968      -0.01521919
H       13.62404876      10.93084041       6.55791068       0.32422180      -0.25437016       1.65610962       0.03410292       0.24100216       0.08798228
H        2.57787039       6.53802156       9.66122511       0.41186887      -0.56636576       0.00511342       0.13208577       0.04315142      -0.07080150
H       13.07555072       5.30868575       5.38203276       0.83771948      -0.62759624       0.23914146      -0.01311653      -0.13876013      -0.28029662
C        5.47313460       2.60656694       7.80098297       0.07154490       2.79345720       2.78056419      -0.54306157      -0.23042095      -1.19006236
C       11.86548694      10.89499008       5.39056552       0.23248183       1.62436923       1.95441617      -0.81702947      -0.39678398       0.72073520
C        2.07892501       7.76451583       7.76456925      -1.57285228       1.93148627       0.48354059       0.35319176       1.19481606      -0.47244072
C       14.87884080       5.87714653       6.70309272      -0.18133696       1.14959770       0.85384437       0.42495144       0.82056156       1.17109886
Pb      -0.12990456       2.59541225       5.69765373      -0.07597491       0.52333069      -0.36307996       1.66522722       1.33689548      -0.26274809
Pb      17.18526101       9.84816536       7.92085058      -0.35777917       0.41200855       0.52966806       4.18616524       0.49360332       0.68135452
Pb       7.47173157       8.44606144       5.66114817      -0.34421571      -0.11924360       0.47711418       1.51879162      -6.32687046       4.63526687
Pb       9.09049020       4.69217439       7.71605539       0.07316721      -0.06246581      -0.03208452      -4.02739499       2.19105053       1.12040464
N        4.35549962       1.51824674       7.47733068       1.57529882      -3.05897069      -0.83794346       0.43338686       0.79635811      -0.36719757
N       13.22937360      11.60772172       5.92534810      -5.27968455      -2.30034657      -1.30371363       0.31394510       0.56661144       0.42700933
N        3.08412485       7.02544352       8.60853389       0.40581392       1.60304994       1.74077018       0.35513078       0.37878586       0.34520077
N       13.53893096       6.02872866       5.97825110       0.35916047       2.30373353      -2.59192090      -0.72691628      -0.06518948      -0.81401843
I       18.40363568       4.54237547      12.92867627      -0.08185666      -0.17797944      -0.43193437       2.01170213      -1.65710979      -1.15720764
I       17.72022504       7.89748265      10.38476717       0.02839355       0.25157646       0.02229608      -0.73610128      -0.63942849      -1.90150806
I        8.99140317      10.08679251      12.90092914      -0.14260052       0.49163254      -0.20295376      -1.10070766      -0.65438541       1.37190435
I        8.18030192       3.27543542      10.40306080       0.06663547      -0.49665828       0.02278742       1.13666242      -0.43898228      -5.24716851
I       16.23496046       1.67760846      10.40828907      -0.20920225      -0.37676486       0.24019959      -0.78073336       3.72895621      -4.80190950
I        0.82991227      11.58093582      13.51167136       0.01552092       0.26860143      -0.43670514       2.01123661      -0.08567923       1.16150581
I       10.55934311       6.61878368       9.96868992      -0.43958508       0.53148875       0.14362197       3.87851301      -1.09605416       0.46267643
I        6.38077727       6.76657221      12.56622158       0.42091127      -0.84790029      -0.02280505       3.08346665       2.39495656       0.26155095
I        3.00884463       4.37596678      10.97734799      -0.47840505      -0.06367266      -0.26161321       3.91332771       0.86343253      -0.31997960
I       14.06239863       8.47833167      12.67866008       0.06670668       0.36810395       0.06292109       3.01390032       2.76165484       1.17568400
I        4.35423819       9.82720286      10.31923965       0.39720189      -0.16265551       0.17576321       0.66835009       0.88150094      -1.11076143
I       12.30762213       3.53740819      12.50424957       0.04776590       0.13777650       0.20907119      -2.12427712      -1.57970787       2.75151443
H        5.59824094       2.79835315      11.19120368      -0.66110690       2.01472300      -0.69113784       0.09253753      -0.36860448      -0.22249989
H       11.19748767      11.00204550      11.53142155       1.09484931       0.24435207       0.35288416      -0.05663010      -0.17028085      -0.18601695
H        1.81722600       8.81698998      13.36373770      -0.52546154      -1.36485160      -0.57190205       0.19098362       0.05530382       0.27499574
H       15.17332019       4.10071763      10.01755424      -0.46575821      -1.66840911      -1.74423375      -0.34623176       0.11716473       0.25700464
H        6.32235790       2.42624603      12.80415468       1.58262706       1.05621468       1.33435899      -0.28437813      -0.24550149       0.36718779
H       11.71924431      13.11182605      11.58070033       0.43848136      -1.08592196      -1.27825482      -0.11868394      -0.01380606       0.08287896
H        1.24757081       6.84845245      12.45777257      -0.86509067       0.22735065      -1.64887917      -0.01861086       0.28045407      -0.08868504
H       15.61732523       5.82171406       9.18591957       0.52440374      -0.00940124      -0.50990722       0.02466376      -0.03422343      -0.00637683
H        6.18965609       1.16949633      11.63038538      -0.63194189      -0.08806811       0.07905404      -0.09936847       0.50280336       0.02717478
H       10.74809336      11.92997282      10.20219503       0.42181866       1.23554338       0.12358443       0.02743742       0.35166846       0.35643042
H        1.81055606       6.85348055      14.52665873       1.13759682       0.93298792      -1.01102657       0.49610439      -0.29303196      -0.13878215
H       15.97236392       5.41357560      10.93422924       1.27033395      -0.19389217       2.11427293      -0.17760704      -0.36561897       0.05635127
H        4.70695514       0.91861505      13.43484206      -0.57653651       0.83510348      -0.45684638       0.24620118       0.37602405      -0.13176455
H       13.51600020      12.62133873       9.70006057      -0.47658843       0.98142055      -0.56841969      -0.09216212      -0.05981389       0.36931742
H        3.90933985       7.77151352      12.27634592      -0.86662419       0.55984769       0.44679046       0.39953129       0.07873984      -0.38949936
H       13.49579483       6.35442161       9.68948899      -1.13215116       0.29567806      -1.57018146      -0.05357974      -0.26492947       0.05299523
H        3.80944551       1.31198750      12.03183082      -0.26370195      -0.57467536      -0.09156079      -0.13456906      -0.07427055       0.36937930
H       13.23996600      10.78432122       9.55610582      -0.46278853      -0.08309649       0.56535498      -0.26624430      -0.04537346       0.24167032
H        3.82452791       6.06857196      12.87278891      -0.45928485       1.46477558       0.87145951       0.05882024       0.29705170       0.20505409
H       14.25365472       6.75084992      11.08933604      -0.18703480       0.24124590      -0.17758107       0.39974977       0.02481263      -0.22756359
H        3.76248613       2.41769992      13.22155825       1.22410239       0.79700630       0.39463571      -0.27586632       0.04193632      -0.37347480
H       14.01498407      11.56115958      10.95989068      -0.46377798      -0.27847072      -0.92135827      -0.34645082       0.09890579       0.07569201
H        4.24507419       7.48691284      13.99974187      -0.47901959       0.40332384       0.34295509       0.00021912       0.22645813      -0.27998150
H       13.28547469       5.37121765      11.02555212       0.04346762      -0.83961257       0.15860918      -0.04783756      -0.15716632       0.22929470
C        5.71321578       2.12596347      12.02487919      -0.76088881      -2.40383679       0.81803044       0.09264801       0.78640530       1.03605224
C       11.63304813      12.00781983      10.92682813      -0.90963027      -0.34993391      -0.15721833      -1.24706854      -1.17788654      -1.03217873
C        1.99000445       7.42315006      13.35629413       1.22999140       0.87199285       2.89625835       1.30038093       1.13078316      -0.42933804
C       15.28021305       5.24219973      10.11515381      -1.03775413       1.62036115      -0.49512570       0.16420465      -0.92380847      -1.08829963
Pb      38.10975875       3.19707498      10.12664540       0.66203290      -0.19137170       0.36289429      -1.07334856      -6.36382835      -6.87688374
Pb      16.99907353      10.10674821      12.72752961      -0.12280727      -0.24925815      -0.24817625       1.71155559       3.65328053      -3.92590121
Pb       7.48972580       8.81374899      10.31400274      -0.04820589      -0.31295129      -0.16896051      -4.03357854      -1.46007225      -0.01567341
Pb       9.35672530       5.03206952      12.54799398      -0.09193433      -0.15969609       0.58810204       2.76417062      -3.18270086      -1.49145905
N        4.43680918       1.72877946      12.76078863       0.01405972      -1.65914142      -1.19510578      -0.06370730      -0.27858672       0.29590098
N       13.17384247      11.70362356      10.22220350       0.35702936      -1.41782166       1.88066051       0.66728067       2.13681209       0.81883574
N        3.52755522       7.23325798      13.15722881       0.27340667      -2.74771613      -1.89714390      -1.97322915       0.41307641      -2.05409184
N       14.00342652       5.92771559      10.45703664       0.79856335       0.51315686       2.11400709      -0.30520174      -0.92338516      -2.01760209
I       18.93242341       4.89364621      17.35903991      -0.61654123       0.54469546       0.18951550       3.50290865       1.45982833       0.97442384
I       17.66991355       8.25481582      15.07200364       0.05728668       0.03375004       0.35180072       1.14218419       3.52122381      -3.13558230
I        8.05838887      10.49437000      17.28061116       0.43015141       0.11703285       0.14778339       1.56355454      -0.78637259      -0.10367931
I        7.92291518       2.99023686      14.98625962       0.45303116       0.50029842      -0.42344789       4.57509886       1.98783368       0.65591598
I       16.44957364       1.34407227      15.29113475      -0.03561356       0.35941458       0.01343670      -1.72424632       0.64663399      -1.40324014
I        1.06914080      11.59646017      17.24868296       0.01200195       0.14120502       0.35946770      -3.37109704      -2.85535167      -0.49417643
I       10.48064977       7.03920935      15.14024472      -0.12300778      -0.12794946       0.00003867      -2.04950656       0.12946575       0.24977882
I        6.01288543       5.96131775      17.47736684       0.73344725       0.76867718      -0.10227199      -2.02976189      -1.99827030      -1.07748905
I        3.38932806       4.32710060      15.14260212      -0.53676146      -0.01630756      -0.02877837       4.14192162      -5.37245202      -0.92539672
I       13.99769331       9.18493230      17.77512728       0.00821341      -0.03635982      -0.41239243       0.09662170      -1.16274846      -1.48901437
I        4.36972354       9.73935575      14.64027586       0.69033054      -0.21181987       0.29192935      -0.77415805      -0.70670270       6.32444131
I       11.91379173       3.59240881      17.59198067       0.45201618       0.11210324      -0.23871035       2.15946986      -4.65642935      -0.57033461
H        6.24212387       1.70150505      18.28924997      -0.55750360       0.30242873       0.33305759       0.35132193       0.18981357       0.24561212
H       10.99268200      10.38457265      15.30410027      -1.00639143      -0.01765314       1.38032360       0.42461180      -0.01999156      -0.16437780
H        1.95689246       8.99771539      16.58685732       0.11751610       0.58587405      -0.42564921       0.09417919       0.06185423       0.08227732
H       15.17630717       4.20531912      15.92388944       0.07991854       0.99798364      -0.42840598       0.17053479      -0.01640139       0.21823404
H        6.14228689       2.93448034      17.03828859       0.68011164      -0.21044128      -1.27234687      -0.34122581      -0.04466973       0.09723996
H       11.02650643      11.65096656      14.07505944      -0.65689602       1.62087157      -1.26072572       0.11873825       0.16164353       0.40516399
H        1.22118540       7.33649784      17.15844298      -0.03653990      -0.60096040      -0.84475760       0.11846577      -0.00127567       0.15902542
H       16.02866735       4.95830594      14.61806922       0.13145607       0.44292082      -0.84966407       0.41708041      -0.16454424       0.03105029
H        5.44899060       3.47491992      18.41677387      -0.33413853      -1.59495474       0.25196026       0.39084728      -0.01531332       0.02874933
H       12.00287782      10.04689570      13.86757342      -0.66250111       1.20356423       0.30182272       0.18095833       0.02186504       0.03790544
H        1.76261172       8.52836402      18.49055386      -0.51664491       0.51725711       0.45048494      -0.14655486      -0.20019504       0.42864451
H       15.80859294       5.90837463      16.15147774      -0.57042084      -0.33930100      -0.79102030      -0.08800173      -0.13758379      -0.10011365
H        3.83272219       2.75670792      16.77025707       0.31208009      -0.13412917       0.48256246      -0.12626074       0.05494206       0.23758773
H       12.66660292      12.46957979      15.65578363       0.79906823      -2.92656307      -1.41474332      -0.27670684      -0.41666181      -0.06693576
H        4.06603130       8.31412266      18.13091054       0.18036958       1.10921320      -0.65777726      -0.19798819      -0.18721372      -0.39759627
H       13.98336052       6.60964292      14.44634681       0.29901316      -0.40730775       0.14656355      -0.03482026       0.03191780      -0.15792161
H        3.59693040       1.49593162      17.96463259       1.26558078       0.55308696      -0.69433509      -0.19436137      -0.19272422      -0.27842579
H       13.37498164      11.63649360      14.30031092       1.76738467       0.79086691      -0.84452733      -0.46562532      -0.11453685       0.13548105
H        4.03732011       7.65953746      16.48264995      -0.32527517       0.18407227       0.54541950       0.03226799       0.56267554      -0.06212484
H       13.28951845       5.74442533      15.66718270      -0.56474126      -0.06174942       0.97459009      -0.14644895       0.11733619       0.12149530
H        4.54717234       1.20563469      16.52487378      -0.12434169       1.91220778       1.56494559       0.01985960       0.26888422       0.33533455
H       13.37189378      10.77645076      15.70807877      -0.04345272       0.02774962       0.54938263       0.15808054      -0.22533810       0.43910260
H        3.70334746       6.82091062      18.05365731      -0.54229705       0.43474562      -1.35658317      -0.07914880      -0.36180947      -0.08605303
H       13.58135486       4.97463067      14.21641262       0.10660658       0.19291179       0.35582726      -0.24910507      -0.09097410      -0.08653087
C        5.56062045       2.50073975      17.85134611       1.61593210       1.96492613       1.36051827      -0.98762732       0.15731549       0.17111938
C       11.58280905      10.90855602      14.54273311       2.35956441      -3.37205604       0.18622895       0.32095080      -0.94703799       0.74257718
C        2.02615491       8.20721461      17.37519099       0.25728122      -0.95312533       1.17205153      -1.24843037       0.18359999       1.54797500
C       15.33745037       5.20376031      15.40429207      -0.59348398      -1.15261082       2.21639184       1.35845903       0.49268694      -0.06119562
Pb       0.37617452       3.11772497      15.14031549      -0.07471902      -0.60203751      -0.44556969      -2.00559393      -1.25923511       0.12449170
Pb      17.11822565      10.40213941      17.52042395      -0.35011326      -0.37339082      -0.05315072      -0.31510607       0.18384935       2.51724432
Pb       7.54897251       8.32051929      14.90332561      -0.40689658      -0.18006616       0.53920970      -5.85080225      -3.56275143      -2.44835353
Pb       9.05763100       4.78063202      17.45067162      -0.23260466      -0.08813209      -0.14437350      -0.18208252      -0.08643358      -4.28546760
N        4.36594816       2.00555871      17.32288526      -2.83863001      -3.29889199      -1.95719036       1.13996515       0.03470268      -1.09554984
N       12.86188881      11.46744854      15.12977083      -2.73515428       2.79088847       1.49431383      -0.59032646      -0.26085026      -0.69859099