768
Lattice="25.489424268572538 -0.0956594233117733 0.005584256169073863 0.09977264370270744 24.739172851202614 0.6001478684267295 -0.002024446371267937 0.5682806783236378 24.75292066089703" Properties=species:S:1:pos:R:3:forces:R:3:momenta:R:3 pbc="T T T"
I        5.85320204      23.47253726       0.97547779      -0.03862554      -0.11046772       0.15537747       0.96933488      -0.02099774      -1.71227212
I        5.44738152       9.44989283       6.98923380      -0.05119265      -0.01480438      -0.22260009      -1.44980311      -0.98962147      -0.55244414
I        5.06557341       7.14532301       2.98332968      -0.09864448       0.00240278      -0.14284629       1.21036911       0.82721533       0.81755411
I        5.37050274       0.86638821       4.37576723       0.02332180       0.08302866      -0.05279711      -2.02178211       0.07384785      -0.37230681
I       25.06584957       9.55625246       7.19483130      -0.06073336      -0.09661919      -0.15637304       0.66363788      -0.30574630      -2.25076953
I       11.99140194      23.28510462       1.23507069      -0.31212161       0.12430379      -0.01956635       2.05581654       0.61953815       1.33231602
I       11.60455670       0.97896775       4.56014164      -0.17523447      -0.27156343       0.12965732      -0.54727388       0.50000136       2.28244487
I       24.61856859       7.06623548       2.98226336      -0.11940250       0.15178371       0.14853354       0.61054501      -1.26164529       0.66527747
I        8.70907797      11.02604776       9.93325703      -0.16523518      -0.06036286      -0.13081313      -1.34735457       0.85566368       0.57410675
I        2.03901551       3.77330354       4.09006415       0.24696152      -0.01368318      -0.08384736      -1.93181518      -0.70037548       0.15566416
I        2.33988353      22.75751377       3.64194990       0.18173840       0.30473028       0.02733207       0.09037873       1.88489362       2.21073487
I        8.75059807       9.81153148       4.42511918      -0.20134815       0.15510003      -0.02287508      -2.28029430       0.26293555       1.17365435
H        1.26035710       0.83932673      24.42216632       0.88161438      -0.10662049       0.36683632      -0.00404357       0.08978044      -0.10341220
H        8.74053672       0.22446702       2.20333318       0.04694735       0.40272984       0.23022886      -0.17875497      -0.01952159       0.01923892
H        9.35053621       8.13312706       1.76264625      -0.07999776       0.15413012      -0.16078386      -0.14188363      -0.00562740       0.03278070
H        2.76777444      24.18025889       8.25215695      -0.23220958       0.17153777      -0.36520455       0.10333059       0.26146383      -0.04540780
H        3.09203070       6.65532227       5.84458168      -0.58432739      -0.08553060      -0.15106577       0.24823942       0.16050981       0.23106282
H        9.13561486       2.09668545       1.87674534      -0.37944341      -0.40078626      -0.33910402       0.02219313       0.22160848      -0.00527221
H        9.14079138       1.78047539       7.69574324       0.19317603      -0.45359033       0.22430026       0.04698954       0.14397798      -0.08036130
H        1.39711172      24.30222840       6.87925753       0.78821041      -0.21697897       0.38906929       0.17757594      -0.11010854       0.25207928
H        3.17226014       0.58183767      24.61169205      -1.29953266       0.50172864      -0.12598494      -0.21031472       0.01670887      -0.10543339
H        7.31915137       1.36117283       1.64099025      -0.05563298       0.14509114       0.08251273      -0.12171649       0.00692728      -0.15448325
H        7.59744366       8.22171636       1.80517668      -0.91934689      -0.19801328       0.61064525       0.10602987      -0.18548584      -0.05231026
H        3.25766668      24.58185377       6.49555561      -0.50761158       0.33518575       0.20240708       0.12453518      -0.04887502      -0.10357145
H        3.12537871       2.00025797       1.31557968      -0.68711266      -0.80110996      -0.22702238      -0.22886189      -0.05778959      -0.02866904
H        8.77374821       7.63079832       5.72875046      -0.18947265       0.30237562      -0.16209565       0.00595425       0.05434637       0.03033621
H        7.57823069       7.01077469      24.79407367       0.16847123       0.25027304       0.27599402       0.04678276       0.10028097      -0.05826831
H        0.97942877       8.05464500       1.70722077       0.11473596      -0.31653243      -0.08394650      -0.01915844      -0.01437114      -0.16644128
H        2.12274732       0.73276748       1.99432317       0.02619212       0.31280553      -0.41430271       0.11646748       0.06848281      -0.10097046
H        8.01562996       6.22140605       6.28588968      -0.06556683       0.35308179       0.12389929       0.02678930       0.26930411       0.20355501
H        8.56751665       5.91453096       1.35012360      -0.39806251       0.52243245      -0.03542831       0.14435261       0.26535240       0.07041438
H        1.98881156       8.81036772       0.51762034      -0.08788696      -0.31594668      -0.25802366      -0.02808668      -0.04663401       0.08097834
H        1.48300914       2.12991539       1.18709966      -0.94315397       0.23021116       0.37231795       0.05739036      -0.05070925       0.07993914
H        9.77774504       0.17278778       0.11126088      -0.91827449       0.23536403       0.29908674       0.13724529      -0.00931259       0.01958839
H        9.25221938       7.11988299      24.72880400      -0.23640690       0.20883218      -0.01272269      -0.10786002      -0.04024179       0.05306656
H        2.63812960       8.17621585       1.90295806       0.41359866      -0.01736688       0.34104587      -0.03814650      -0.20536688       0.08207360
C        2.20893842       7.26689746       6.14113251       0.59505120       0.08495458      -0.45896343      -0.05298624       0.29974158       0.11004582
C        8.48377408       1.13259737       1.57597786       0.16503082      -0.44968488       0.46569358      -0.34059157      -0.32945806      -0.35655275
C        8.34015384       1.72340263       6.92194655       1.10690710      -0.44479885      -0.74494118       0.51183952      -0.54959501       0.56312396
C        2.43320856      24.69203789       7.25428768      -0.46015190       0.28246394      -0.12391324       0.41639817      -0.21820632      -0.68165549
Pb       5.42023093       4.08172655       3.68502099      -0.16374017      -0.05649440       0.20137054      -0.77318483      -0.23061123       0.12263316
Pb       5.47023985      10.15123288       3.75425069      -0.02482093       0.15361299      -0.07082688      -1.44314865      -1.43348909      -1.13996499
Pb      24.61816953      10.24784722      10.23213427      -0.10666805       0.35124946      -0.04681363       4.51349901       1.88554072      -1.47417381
Pb      24.58111008      10.19040965       4.09850141       0.08749921      -0.13106622      -0.13062498       0.65794051      -0.71510596      -0.34977704
N        2.23792204       1.41056179       1.16478660       1.39802716       0.50988439       1.51343648      -0.06598050      -0.60760742       0.07788820
N        8.80928270       6.88667790       6.44900353      -0.91388750      -0.75114672      -0.88041009      -0.01061988       0.15768755       0.04332278
N        8.42519291       6.68151873       0.61766313       0.29941169      -1.46288996      -0.63534794       0.46046640       0.19346912      -0.09615564
N        1.90993687       7.98887777       1.19325604      -0.56725358       0.34041505       0.41641239      -0.77628225       0.00369445      -0.08102583
I        5.59894358       4.90751608       6.77302711       0.17307111       0.20187021       0.18105714      -0.87397688      -1.72015104      -0.75550442
I        5.12021788       3.50821360       0.75570908      -0.04417189      -0.17531103      -0.36745504      -2.59202737       0.15637915       1.15310096
I        4.97258082       1.14574392       8.89016681       0.04460731      -0.21085899       0.10692313      -0.26756378      -0.06529127       0.44011585
I        5.71510943       7.47952456      22.84356506       0.15177889       0.24980081       0.24707463       0.63508169       1.64578393      -0.80849983
I       24.60553155       2.99690551       0.72263617       0.09554191       0.02967858      -0.00791578      -0.89511622      -0.73404363      -0.09360205
I       11.61280186       5.06680079       6.88263907       0.08221083      -0.20830128      -0.07456549      -2.57762602      -0.15133323       0.36459241
I       11.24754131       7.44392013      23.17676716       0.04848120       0.24797811       0.13138444      -0.78601487       0.41832008       4.14267351
I       24.72278174       1.03248718       8.90207553       0.02827428      -0.08254269       0.21909029      -0.66935068      -1.11375743       1.74267950
I        8.44744548       4.60019796       3.68688359       0.15295651      -0.02516736      -0.17441403       0.22685686       0.53386733      -1.41422104
I        2.27208508      10.17424230      22.78638680       0.12299807       0.02658859       0.02098786       0.95093739      -0.18084614       0.69368258
I        2.28048483       4.51093109       9.47129406       0.21041231       0.01750811       0.05739083       2.35949971      -2.99477470      -0.44826598
I        8.74869635       3.95652278      22.71195951      -0.26413604       0.16131471       0.03396681      -2.02333183      -1.80861357      -0.66159235
H        2.23043868       8.20825307       5.55586316      -0.18365917      -0.31582686       0.08842908       0.16423076      -0.04554603       0.14480173
H        8.81557070       6.63881425       8.54824564       0.04142231      -0.32188304      -0.03162449       0.03602143       0.04449078      -0.25115666
H        7.38169037       1.81041767       7.39834828      -0.85265643       0.67327754       0.27342989      -0.00183169       0.07316559      -0.01637082
H        3.16925107       7.37683703      24.76012099       0.10732771      -0.51498782      -0.47762149      -0.17001822       0.02585538      -0.12228647
H        2.36825110       2.08185145      23.82278409       0.41384270      -0.07785134       0.11802018      -0.03855408      -0.04543138       0.04247615
H        9.84412346       7.89213284       7.82817751       1.12779688       1.01202566       0.60139172       0.01964626      -0.09994461       0.10580699
H        8.37978163       8.80122180       0.38306523       0.21423321      -0.04507371      -0.51086074       0.00531298       0.04108479       0.13805550
H        2.14059746       5.76669718       1.19867987       0.12389839       0.47493091       0.37280989      -0.04492443       0.03576416      -0.04950592
H        1.22615871       6.74785970       6.05120538       0.46664028       0.14701720      -0.09853146      -0.10208164       0.00084641       0.31138621
H        8.04995946       8.16916827       8.00646173       0.77577423      -0.47325464      -0.37467690       0.14675804      -0.08001422       0.04448561
H        8.65828574       2.49709197       6.13368172      -0.70489678       0.00475255       0.00956974      -0.17766836       0.00509815      -0.06222906
H        1.33906219       6.97618525      24.51793603       0.31222799       0.37596604      -0.10028285       0.03332219       0.04367733       0.01629440
H        2.33813589       6.75933242       8.14991465      -0.03913676      -0.03525675       0.26715976       0.06901541      -0.26886510      -0.21368773
H        8.70279783       1.92146909      24.20840403       0.06847496      -0.09146506       0.36637938      -0.14062322       0.04650931      -0.04698416
H        8.47542770      24.38163554       7.63422080      -0.12257863      -0.08535639      -0.31959627       0.10454345      -0.14733161      -0.10046430
H        2.98165304       1.85927702       7.43629315      -0.68004783      -0.25074248      -0.33037374       0.01494979      -0.04772324      -0.01053621
H        1.69683449       8.35229132       7.86672431       0.57354877      -0.29412013       0.07669503      -0.02492088       0.04049704      -0.07436876
H        8.14097433      25.20604572      25.26891324      -0.10966532      -0.52788532       0.03098322      -0.06095252       0.12217321       0.16595718
H        9.05958750       0.21544095       5.58362776      -0.06891189      -0.05565057       0.09712607       0.15182306      -0.02257916      -0.16729841
H        1.30403608       1.52500476       7.54080467      -1.05838933       0.43116905       0.54287406       0.04372743       0.07135137       0.22384807
H        3.42893878       8.02382490       7.75112218      -0.70083879      -0.21209644      -0.22016835      -0.08126152       0.05344165      -0.18393660
H        9.65357962       6.33444128       6.24749820       0.59958342      -0.40223728       0.06333113      -0.04185278       0.05917357      -0.22929058
H        7.36075666       0.25888977       5.75904060      -0.08978608      -0.10511044      -0.13213048      -0.15853230       0.03331450      -0.15948343
H        1.99005292       2.02636496       6.05218600      -0.29195448       0.05094849      -0.07413868      -0.06919777      -0.02571988      -0.00506283
C        2.27343436       1.30033408      24.62062417       0.28715375      -0.74856570      -1.57592911       0.05571465      -0.34498265       0.00916574
C        8.88415201       7.43237564       7.79144140      -1.69913707       0.24323166       0.75942657      -0.45062792      -0.04847009      -0.31487169
C        8.42805700       8.03753560       1.16696238       0.92368890       0.44574571       0.30102745       0.23475301      -0.50544087      -0.19868051
C        2.14727479       6.65914333       0.49591815      -0.22585017      -0.26735867      -0.32481105       0.20753072       0.02638497       0.00306136
Pb       5.46863543      10.37281637       9.89715685       0.15406386       0.25765668       0.25234926       1.35157838       3.25652931      -4.06779064
Pb       5.60282604       4.21272282       9.82248718      -0.06759940      -0.21612131      -0.00334266      -0.51803194      -2.60800064       0.62015194
Pb      24.51109553       3.93158999       3.74658700      -0.02332175       0.23938948       0.22637711       2.91248630       2.16837369      -1.24181069
Pb      24.75580472       4.17213039      10.00830289      -0.19668699      -0.33727005      -0.32487931       0.09392288      -0.63910402       1.78295355
N        2.43439110       7.62678592       7.57513096      -0.07409873       0.56308101       0.43153362       0.32764100       0.35266885       0.31975454
N        8.77059585       0.59612750       0.19762678       1.36511149       0.56469334      -1.09453585      -0.28294969       0.18380090       0.19949556
N        8.27478137       0.34889326       6.26140237       0.81997239       0.51138370       0.72307720      -1.06883540       0.58884271       0.33706211
N        2.10939553       1.45694126       6.92554372       2.31863408      -0.74336383      -0.29892391      -0.31648298       0.16395875      -0.12783107
I        5.85218982      23.75667760      13.35193812      -0.03862554      -0.11046772       0.15537747       0.96933488      -0.02099774      -1.71227212
I        5.44636930       9.73403317      19.36569413      -0.05119265      -0.01480438      -0.22260009      -1.44980311      -0.98962147      -0.55244414
I        5.06456119       7.42946335      15.35979001      -0.09864448       0.00240278      -0.14284629       1.21036911       0.82721533       0.81755411
I        5.36949052       1.15052855      16.75222756       0.02332180       0.08302866      -0.05279711      -2.02178211       0.07384785      -0.37230681
I       25.06483735       9.84039280      19.57129163      -0.06073336      -0.09661919      -0.15637304       0.66363788      -0.30574630      -2.25076953
I       11.99038972      23.56924496      13.61153102      -0.31212161       0.12430379      -0.01956635       2.05581654       0.61953815       1.33231602
I       11.60354448       1.26310809      16.93660197      -0.17523447      -0.27156343       0.12965732      -0.54727388       0.50000136       2.28244487
I       24.61755637       7.35037582      15.35872369      -0.11940250       0.15178371       0.14853354       0.61054501      -1.26164529       0.66527747
I        8.70806575      11.31018810      22.30971736      -0.16523518      -0.06036286      -0.13081313      -1.34735457       0.85566368       0.57410675
I        2.03800329       4.05744388      16.46652448       0.24696152      -0.01368318      -0.08384736      -1.93181518      -0.70037548       0.15566416
I        2.33887131      23.04165411      16.01841023       0.18173840       0.30473028       0.02733207       0.09037873       1.88489362       2.21073487
I        8.74958585      10.09567182      16.80157951      -0.20134815       0.15510003      -0.02287508      -2.28029430       0.26293555       1.17365435
H        1.26136933       0.55518639      12.04570599       0.88161438      -0.10662049       0.36683632      -0.00404357       0.08978044      -0.10341220
H        8.73952450       0.50860736      14.57979351       0.04694735       0.40272984       0.23022886      -0.17875497      -0.01952159       0.01923892
H        9.34952399       8.41726740      14.13910658      -0.07999776       0.15413012      -0.16078386      -0.14188363      -0.00562740       0.03278070
H        2.76676222      24.46439923      20.62861728      -0.23220958       0.17153777      -0.36520455       0.10333059       0.26146383      -0.04540780
H        3.09101848       6.93946261      18.22104201      -0.58432739      -0.08553060      -0.15106577       0.24823942       0.16050981       0.23106282
H        9.13460264       2.38082579      14.25320567      -0.37944341      -0.40078626      -0.33910402       0.02219313       0.22160848      -0.00527221
H        9.13977916       2.06461573      20.07220357       0.19317603      -0.45359033       0.22430026       0.04698954       0.14397798      -0.08036130
H        1.39609950      24.58636874      19.25571786       0.78821041      -0.21697897       0.38906929       0.17757594      -0.11010854       0.25207928
H        3.17327237       0.29769733      12.23523172      -1.29953266       0.50172864      -0.12598494      -0.21031472       0.01670887      -0.10543339
H        7.31813915       1.64531317      14.01745058      -0.05563298       0.14509114       0.08251273      -0.12171649       0.00692728      -0.15448325
H        7.59643144       8.50585670      14.18163701      -0.91934689      -0.19801328       0.61064525       0.10602987      -0.18548584      -0.05231026
H        3.25665446      24.86599411      18.87201594      -0.50761158       0.33518575       0.20240708       0.12453518      -0.04887502      -0.10357145
H        3.12436649       2.28439831      13.69204001      -0.68711266      -0.80110996      -0.22702238      -0.22886189      -0.05778959      -0.02866904
H        8.77273599       7.91493866      18.10521079      -0.18947265       0.30237562      -0.16209565       0.00595425       0.05434637       0.03033621
H        7.57924292       6.72663435      12.41761334       0.16847123       0.25027304       0.27599402       0.04678276       0.10028097      -0.05826831
H        0.97841655       8.33878534      14.08368110       0.11473596      -0.31653243      -0.08394650      -0.01915844      -0.01437114      -0.16644128
H        2.12173510       1.01690782      14.37078350       0.02619212       0.31280553      -0.41430271       0.11646748       0.06848281      -0.10097046
H        8.01461774       6.50554639      18.66235001      -0.06556683       0.35308179       0.12389929       0.02678930       0.26930411       0.20355501
H        8.56650443       6.19867130      13.72658393      -0.39806251       0.52243245      -0.03542831       0.14435261       0.26535240       0.07041438
H        1.98779934       9.09450806      12.89408067      -0.08788696      -0.31594668      -0.25802366      -0.02808668      -0.04663401       0.08097834
H        1.48199692       2.41405573      13.56355999      -0.94315397       0.23021116       0.37231795       0.05739036      -0.05070925       0.07993914
H        9.77673282       0.45692812      12.48772121      -0.91827449       0.23536403       0.29908674       0.13724529      -0.00931259       0.01958839
H        9.25323161       6.83574265      12.35234367      -0.23640690       0.20883218      -0.01272269      -0.10786002      -0.04024179       0.05306656
H        2.63711738       8.46035619      14.27941839       0.41359866      -0.01736688       0.34104587      -0.03814650      -0.20536688       0.08207360
C        2.20792620       7.55103780      18.51759284       0.59505120       0.08495458      -0.45896343      -0.05298624       0.29974158       0.11004582
C        8.48276186       1.41673771      13.95243819       0.16503082      -0.44968488       0.46569358      -0.34059157      -0.32945806      -0.35655275
C        8.33914162       2.00754297      19.29840688       1.10690710      -0.44479885      -0.74494118       0.51183952      -0.54959501       0.56312396
C        2.43219634      24.97617823      19.63074801      -0.46015190       0.28246394      -0.12391324       0.41639817      -0.21820632      -0.68165549
Pb       5.41921871       4.36586689      16.06148132      -0.16374017      -0.05649440       0.20137054      -0.77318483      -0.23061123       0.12263316
Pb       5.46922763      10.43537322      16.13071102      -0.02482093       0.15361299      -0.07082688      -1.44314865      -1.43348909      -1.13996499
Pb      24.61715731      10.53198756      22.60859460      -0.10666805       0.35124946      -0.04681363       4.51349901       1.88554072      -1.47417381
Pb      24.58009786      10.47454999      16.47496174       0.08749921      -0.13106622      -0.13062498       0.65794051      -0.71510596      -0.34977704
N        2.23690982       1.69470213      13.54124693       1.39802716       0.50988439       1.51343648      -0.06598050      -0.60760742       0.07788820
N        8.80827048       7.17081824      18.82546386      -0.91388750      -0.75114672      -0.88041009      -0.01061988       0.15768755       0.04332278
N        8.42418069       6.96565907      12.99412346       0.29941169      -1.46288996      -0.63534794       0.46046640       0.19346912      -0.09615564
N        1.90892465       8.27301811      13.56971637      -0.56725358       0.34041505       0.41641239      -0.77628225       0.00369445      -0.08102583
I        5.59793136       5.19165642      19.14948744       0.17307111       0.20187021       0.18105714      -0.87397688      -1.72015104      -0.75550442
I        5.11920566       3.79235394      13.13216941      -0.04417189      -0.17531103      -0.36745504      -2.59202737       0.15637915       1.15310096
I        4.97156860       1.42988426      21.26662714       0.04460731      -0.21085899       0.10692313      -0.26756378      -0.06529127       0.44011585
I        5.71612166       7.19538422      10.46710473       0.15177889       0.24980081       0.24707463       0.63508169       1.64578393      -0.80849983
I       24.60451933       3.28104585      13.09909650       0.09554191       0.02967858      -0.00791578      -0.89511622      -0.73404363      -0.09360205
I       11.61178964       5.35094113      19.25909940       0.08221083      -0.20830128      -0.07456549      -2.57762602      -0.15133323       0.36459241
I       11.24855354       7.15977979      10.80030683       0.04848120       0.24797811       0.13138444      -0.78601487       0.41832008       4.14267351
I       24.72176952       1.31662752      21.27853586       0.02827428      -0.08254269       0.21909029      -0.66935068      -1.11375743       1.74267950
I        8.44643326       4.88433830      16.06334392       0.15295651      -0.02516736      -0.17441403       0.22685686       0.53386733      -1.41422104
I        2.27309731       9.89010196      10.40992647       0.12299807       0.02658859       0.02098786       0.95093739      -0.18084614       0.69368258
I        2.27947261       4.79507143      21.84775439       0.21041231       0.01750811       0.05739083       2.35949971      -2.99477470      -0.44826598
I        8.74970858       3.67238244      10.33549918      -0.26413604       0.16131471       0.03396681      -2.02333183      -1.80861357      -0.66159235
H        2.22942646       8.49239341      17.93232349      -0.18365917      -0.31582686       0.08842908       0.16423076      -0.04554603       0.14480173
H        8.81455848       6.92295459      20.92470597       0.04142231      -0.32188304      -0.03162449       0.03602143       0.04449078      -0.25115666
H        7.38067815       2.09455801      19.77480861      -0.85265643       0.67327754       0.27342989      -0.00183169       0.07316559      -0.01637082
H        3.17026330       7.09269669      12.38366066       0.10732771      -0.51498782      -0.47762149      -0.17001822       0.02585538      -0.12228647
H        2.36926333       1.79771111      11.44632376       0.41384270      -0.07785134       0.11802018      -0.03855408      -0.04543138       0.04247615
H        9.84311124       8.17627318      20.20463784       1.12779688       1.01202566       0.60139172       0.01964626      -0.09994461       0.10580699
H        8.37876941       9.08536214      12.75952556       0.21423321      -0.04507371      -0.51086074       0.00531298       0.04108479       0.13805550
H        2.13958524       6.05083752      13.57514020       0.12389839       0.47493091       0.37280989      -0.04492443       0.03576416      -0.04950592
H        1.22514649       7.03200004      18.42766571       0.46664028       0.14701720      -0.09853146      -0.10208164       0.00084641       0.31138621
H        8.04894724       8.45330861      20.38292206       0.77577423      -0.47325464      -0.37467690       0.14675804      -0.08001422       0.04448561
H        8.65727352       2.78123231      18.51014205      -0.70489678       0.00475255       0.00956974      -0.17766836       0.00509815      -0.06222906
H        1.34007442       6.69204491      12.14147570       0.31222799       0.37596604      -0.10028285       0.03332219       0.04367733       0.01629440
H        2.33712367       7.04347276      20.52637498      -0.03913676      -0.03525675       0.26715976       0.06901541      -0.26886510      -0.21368773
H        8.70381006       1.63732875      11.83194370       0.06847496      -0.09146506       0.36637938      -0.14062322       0.04650931      -0.04698416
H        8.47441548      24.66577588      20.01068113      -0.12257863      -0.08535639      -0.31959627       0.10454345      -0.14733161      -0.10046430
H        2.98064082       2.14341736      19.81275348      -0.68004783      -0.25074248      -0.33037374       0.01494979      -0.04772324      -0.01053621
H        1.69582227       8.63643166      20.24318464       0.57354877      -0.29412013       0.07669503      -0.02492088       0.04049704      -0.07436876
H        8.14198655      24.92190538      12.89245291      -0.10966532      -0.52788532       0.03098322      -0.06095252       0.12217321       0.16595718
H        9.05857528       0.49958129      17.96008809      -0.06891189      -0.05565057       0.09712607       0.15182306      -0.02257916      -0.16729841
H        1.30302386       1.80914510      19.91726500      -1.05838933       0.43116905       0.54287406       0.04372743       0.07135137       0.22384807
H        3.42792656       8.30796524      20.12758251      -0.70083879      -0.21209644      -0.22016835      -0.08126152       0.05344165      -0.18393660
H        9.65256740       6.61858162      18.62395853       0.59958342      -0.40223728       0.06333113      -0.04185278       0.05917357      -0.22929058
H        7.35974444       0.54303011      18.13550093      -0.08978608      -0.10511044      -0.13213048      -0.15853230       0.03331450      -0.15948343
H        1.98904070       2.31050530      18.42864633      -0.29195448       0.05094849      -0.07413868      -0.06919777      -0.02571988      -0.00506283
C        2.27444659       1.01619374      12.24416384       0.28715375      -0.74856570      -1.57592911       0.05571465      -0.34498265       0.00916574
C        8.88313979       7.71651598      20.16790173      -1.69913707       0.24323166       0.75942657      -0.45062792      -0.04847009      -0.31487169
C        8.42704478       8.32167594      13.54342271       0.92368890       0.44574571       0.30102745       0.23475301      -0.50544087      -0.19868051
C        2.14626257       6.94328367      12.87237848      -0.22585017      -0.26735867      -0.32481105       0.20753072       0.02638497       0.00306136
Pb       5.46762321      10.65695671      22.27361718       0.15406386       0.25765668       0.25234926       1.35157838       3.25652931      -4.06779064
Pb       5.60181382       4.49686316      22.19894751      -0.06759940      -0.21612131      -0.00334266      -0.51803194      -2.60800064       0.62015194
Pb      24.51008331       4.21573033      16.12304733      -0.02332175       0.23938948       0.22637711       2.91248630       2.16837369      -1.24181069
Pb      24.75479250       4.45627073      22.38476322      -0.19668699      -0.33727005      -0.32487931       0.09392288      -0.63910402       1.78295355
N        2.43337888       7.91092626      19.95159129      -0.07409873       0.56308101       0.43153362       0.32764100       0.35266885       0.31975454
N        8.76958363       0.88026784      12.57408711       1.36511149       0.56469334      -1.09453585      -0.28294969       0.18380090       0.19949556