768
Lattice="25.489424268572538 -0.0956594233117733 0.005584256169073863 0.09977264370270744 24.739172851202614 0.6001478684267295 -0.002024446371267937 0.5682806783236378 24.75292066089703" Properties=species:S:1:pos:R:3:forces:R:3:momenta:R:3 energy=-3314.7865201304817 stress="0.0 0.0 0.0 0.0 0.0 0.0 0.0 0.0 0.0" pbc="T T T"
I        6.57073279      24.19375683       1.15015937      -0.11671499      -0.25952629       0.69720683       0.51580303      -1.13277585       5.50079913
I        6.07757543      10.42646031       7.59879420       0.04555439      -0.14730672       0.24635925       0.80873354      -1.35628419       1.14845161
I        6.12512040       7.91081734       3.67710139      -0.39528072       0.04404172      -0.23298946      -3.98991154      -0.92048348      -0.45478738
I        6.47615690       1.83391915       4.91913585       0.00225413      -0.28081569       0.21937630       0.72538255      -1.24560076      -1.58289927
I        0.36686460      10.32359263       7.71364557      -0.15247527       0.09015887       0.01838523       2.10692463      -2.21864246      -2.96316996
I       12.60369898      23.95537518       1.58462548      -0.20695255      -0.00717174       0.31522417       2.44079076      -2.75069761       2.04533458
I       12.07891558       1.59880884       5.34305890       0.21829313      -0.20595654      -0.23297947       2.10468878       0.96455486      -0.84566254
I        0.00661240       8.04842467       3.69185984      -0.05664630      -0.42758995       0.24047120      -1.03378223      -1.20833329       1.14712111
I        9.25105478      11.34278459      10.78068262       0.53720998       0.34493977      -0.28625469       1.00346986       2.17425511       2.21420831
I        3.15878307       4.45702255       4.75272144      -0.20314552       0.11043269      -0.04599567       1.34134292       0.07354212      -2.39390070
I        3.29248744      23.71787346       4.07805613      -0.29383023       0.05069821       0.17416017       2.43253417       1.34580643       0.78488128
I        9.70595187      10.67403345       4.95854779      -0.46371050       0.17993988      -0.00217091       0.23115598       1.61605224       2.55118810
H        2.09542271       0.98623759      -0.28143820      -0.46467135      -0.27392010       0.02458733      -0.15544501       0.16190410       0.14920305
H        9.64027030       0.59541386       3.00857830      -0.22293069      -1.09594772       1.13730767       0.10338194       0.08217899      -0.13276678
H       10.26850081       8.43868931       2.18903712       0.94315869       0.89189379       0.63991181      -0.28226292      -0.14599670       0.02998207
H        3.53582799       0.65645217       8.74178703      -0.27018259      -1.08084426       0.98375689       0.00748321      -0.18558198      -0.19415444
H        3.82678118       7.43663462       6.52206729       0.71423025      -0.17460567      -0.02649633       0.17156115      -0.16957370       0.13878890
H       10.52652086       2.14066104       2.52981808      -1.59750008      -1.27432360       0.28677920       0.39406794      -0.17229781       0.13874559
H       10.76579616       2.72735686       7.91904910      -0.58822436      -0.17347609       0.47953452       0.32812756      -0.01671490      -0.29584237
H        1.97204982       0.78749526       7.59366015      -0.91994216      -0.50107190      -0.92086628      -0.03740214       0.03952416      -0.19821626
H        3.90237616       1.34565304      -0.14472827      -0.55850778      -0.04484271       0.36547850      -0.04898058      -0.06870057      -0.20763707
H        8.70110089       2.19816290       2.74029515       0.28395135      -0.63927595       0.43525750       0.14901759       0.03029489      -0.21802746
H        8.47197799       8.18452338       2.28835374       0.49245968      -0.27569342      -0.18177471      -0.19994226       0.30361018      -0.08892484
H        3.79833840       0.75015827       6.81591958      -0.44170669       0.32604779       0.06065171      -0.02303540      -0.01001033      -0.23337661
H        3.40128326       2.74080649       1.78511548      -0.49004742      -1.18248251       0.20766328      -0.07699196      -0.11684705       0.18588749
H        9.58229544       8.58552743       6.29745862       0.18989611       0.10457658       0.36360709       0.52756658      -0.37458980       0.30483412
H        9.05319190       6.63684899       0.21558214      -1.58852478       0.15839299      -0.58916937       0.21965537       0.17961220       0.04331288
H        2.11102854       8.37099882       2.62037108      -1.74750964       0.47043809       0.37264030       0.24636565       0.06071330      -0.16281395
H        2.66502690       1.13287412       2.09432431       0.12859521       0.56470195       0.01853574      -0.13577444      -0.19693162      -0.23921502
H        8.67452571       7.23206908       6.84299618       1.37664518       0.95171016       0.30091515      -0.02008981       0.14626627       0.09535454
H        9.69816683       6.17150627       1.65677620      -0.03116770       0.37685242      -0.10434397      -0.17701662       0.09205277       0.15832564
H        2.64786176       8.95146814       1.07917115       0.35870330       0.77360364       0.05385935      -0.15152142      -0.11557000       0.04961643
H        1.78331063       2.54418460       1.59125879      -1.22550161       0.16767492       0.55628176       0.33269101       0.15016074      -0.18723534
H       10.06595250       0.52664492       0.65463200       0.64960233      -0.30540580      -0.02370096       0.18764157      -0.25166369      -0.30327590
H       10.67994831       6.91385904       0.45406318      -0.91381111       0.81147563       0.83299080      -0.07293496      -0.20833809       0.04603045
H        3.69168471       8.22833011       2.35103508       0.21445942       0.34584848      -0.76048407      -0.13282862      -0.18548171       0.14373311
C        3.08690405       8.22298490       6.76954552      -0.49647543      -1.58360980      -1.80951926       0.52824248       0.51320687       0.94189377
C        9.54524332       1.50986941       2.49685460       1.93292749       3.56059132      -1.71097913       0.16075880       0.78849008       1.19731774
C        9.72263610       2.80806873       7.44044117       0.20532811       0.41617252       2.37602514      -0.19467768      -0.68491969       0.13586283
C        3.11434769       1.05021954       7.72613111       1.66895030       2.01385919       0.18830704       0.06706950       1.25803661       0.24877864
Pb       6.48471155       4.88165614       4.41394504      -0.44860741      -0.10591722       0.51582972       1.39371327       1.90234932      -3.12353541
Pb       6.44540151      10.87813617       4.31326253       0.08083334       0.15685651       0.32049969       1.04763698       2.05286592       2.81325169
Pb      25.49559220      11.15583806      10.71712911       0.07248798      -0.24066558      -0.04375794      -0.30146070       3.86285471      -0.93547650
Pb      25.72166374      10.99598120       4.42532169      -0.40268050      -0.26225454       0.49730813       6.18256168       0.14821222      -2.38561442
N        2.64775520       2.00578691       1.50088041       1.83360769       0.82233337       0.87483753      -0.27285567       0.71790568       0.81996020
N        9.59030018       7.81799381       7.00714461      -2.98467508      -1.06930292      -0.38078658      -0.42567089      -1.11328853      -0.19909304
N        9.69924889       6.97392841       0.95399055       2.40222196      -2.86019270      -0.21011898       0.47626210      -0.67654653       0.80769078
N        2.76552301       8.24025347       1.81761815       1.19579707      -0.51276085       0.43547937      -1.59505987      -0.56803153      -0.47381317
I        6.77381742       5.98021075       7.62170602      -0.20172282      -0.17260077       0.03491056      -2.74130384       3.40787633       1.54551694
I        6.03365274       3.66396885       1.64429516      -0.04336328       0.05741643      -0.70869564      -2.12305162       1.60874086       0.22658987
I        6.18371005       2.00372017       9.33186360       0.22008230      -0.33117329       0.37939184      -1.98559710      -1.41098401       0.37044312
I        6.49141870       8.02354128      24.46133751      -0.11561545      -0.11255030      -0.43304642       2.44785604      -2.48107655      -0.83754767
I       -0.02063934       3.86234782       1.24122709      -0.13440067       0.21975428       0.14186658      -2.71157615      -2.49886952       0.94399559
I       11.90856404       5.40206034       7.34086446       0.50714428      -0.13111632       0.48564680       1.05516432      -0.95398727      -0.79250013
I       12.73099827       8.39257660      23.74948746      -0.30260658      -0.38671149       0.18878049      -0.66736708       0.31119197      -1.49321254
I        0.02211568       1.99233918       9.47700745       0.13558588      -0.18241839       0.11167969      -1.01353842      -2.21178847      -0.50098278
I        9.58288101       5.30823371       4.20693890      -0.31389268       0.01403378      -0.28856520       1.14027824      -1.40289157       2.57772043
I        3.03004576      10.93164417      23.59203636       0.23280737      -0.09686704       0.01509394       1.69769034      -2.55968859      -1.10192561
I        3.14984207       5.28512577       9.87555561       0.30907225      -0.06352084       0.15663794      -4.13581117       1.23570344      -3.05015741
I        9.38908510       4.58678525      23.29528873       0.43633840       0.18049650       0.15328295       2.23402490       2.86038942      -0.14767817
H        3.27474002       9.07287475       6.12476375      -0.06527620       0.90242114      -0.23281790      -0.22036566       0.08747081       0.34308166
H        9.72796187       7.31513816       9.07628200       0.61130206       0.47494696      -0.63097561       0.14487685      -0.08153516      -0.03031507
H        8.89134296       3.45760610       8.08587268       1.35206475      -0.39281699      -1.01952576       0.23423942       0.24870606      -0.06382206
H        3.45867055       6.73184163       0.63275301       0.93033982      -0.55381088      -0.80452964      -0.05144411       0.01814722       0.20801238
H        2.80217756       2.63602592      -0.44332585      -0.36542897       1.14595256      -0.74218740       0.04931316      -0.05679853       0.39683270
H       10.35194424       9.02928019       8.55530225      -0.66529237      -0.05245459       0.32778980       0.08497941      -0.20625144      -0.02588493
H        9.15192081       9.01318052       0.83961785       0.45799355       0.69700376      -0.32690005      -0.29459380      -0.26393536       0.05341714
H        2.43742947       6.15459612       2.02363609       0.05355535       0.51686392      -1.22956211      -0.52009710       0.00035308      -0.19485798
H        2.11111302       7.74204221       6.45537886       0.21992575       0.60964192       0.62732233       0.19918515      -0.06178543      -0.14728544
H        8.43192599       8.48941827       8.71202912       0.76019467       0.55470950      -0.33289884       0.15279061       0.14092619       0.02598061
H       10.12206729       3.34411099       6.56502386      -0.88630254       1.26737582      -1.94589343       0.17251552      -0.18960809      -0.07330565
H        1.67219367       6.90492274       0.51279423      -0.01989598       0.13009765       0.04014674       0.38489003       0.08061554      -0.11753042
H        3.26012870       7.55709043       8.61182147      -0.09312957       0.50616673       0.73415980       0.03384930       0.23444732       0.07375307
H        9.42166339       2.10170332       0.42953135       0.24911857      -0.04482619       0.23615397       0.23739031      -0.05739938      -0.05531732
H        9.27381483       0.90320354       8.14069731      -0.07593170      -0.27170134      -0.48117702      -0.08472370       0.24588416       0.10296630
H        4.06897646       2.93928000       8.50555469      -0.19267264      -0.99221329      -0.41946666      -0.10484729       0.03876447       0.13916790
H        2.40689960       9.06106083       8.48720576      -0.53236542       1.01044636       0.50842045       0.06734250       0.27480318       0.16535033
H        8.39440828       0.89875834       0.88684552      -0.96446478      -1.19377133      -0.52198426      -0.03606425      -0.11668118       0.03017753
H        9.97892951       0.88902932       6.50800287      -0.31017978       0.11859636       0.10677020       0.00061171      -0.30089563      -0.13842525
H        2.44645760       2.93951875       8.46037739      -1.10709834       0.09102068       0.43698169      -0.13169264       0.06445784      -0.10351176
H        4.21201285       9.00645230       8.32901062      -1.72472582      -0.50134908      -0.04258063       0.09969297       0.07088724      -0.01501982
H       10.34036638       7.14787507       6.81187803       0.93311871      -0.21256890      -0.01148136       0.08886005       0.42894723       0.22341690
H        8.30192954       1.20498616       6.78540168      -0.64877284       0.25999784      -0.50367365      -0.12315024      -0.09252313      -0.08172837
H        3.32491623       3.14727566       7.03055989      -0.47875031      -0.49954055       0.05871138       0.02672749      -0.09137504      -0.02754211
C        2.84199874       1.72133399       0.09413884       1.62095875      -1.37494491      -1.12707913       0.36961282      -0.04531811      -0.57017126
C        9.55771313       8.23563970       8.43318716      -0.37263000      -0.68183260       0.48651512      -0.22277496       0.45797014      -0.17414977
C        9.39755069       8.26171095       1.62067746      -1.37667008       0.37751756       0.02901213       1.13139666       0.24196426       0.09194578
C        2.56455898       6.90749637       1.16583152      -0.44127146      -1.13783804       2.06936203      -0.46152863       0.29897778       0.49298562
Pb       6.15455909      10.84916070      10.79740070      -0.04752390       0.27761427       0.03966579      -1.52839887      -2.44610848      -0.43083410
Pb       6.26400316       4.82574133      10.81936313       0.55395380       0.28198471      -0.39924384       3.05117706       1.55038744       5.61865026
Pb      25.31369390       4.52943924       4.38518634       0.45960930       0.35073745      -0.02207360       0.31995986      -0.84029206       0.81580090
Pb      25.45580892       4.81713505      10.54160728       0.06067639       0.33529222      -0.10635117       0.32682906       1.70201846       0.28345430
N        3.22095135       8.53838060       8.17381413       2.12789225      -1.00856040       0.18388436      -0.77489587       0.81294255       0.11187259
N        9.38194896       1.23581114       1.01539731      -0.19114856       0.97118688       0.02372102      -0.65456373       0.06278371       0.00092778
N        9.25160961       1.38046299       7.17200531       0.71717155      -1.20811469       0.89398028       0.14732924      -1.26862747       0.45267362
N        3.23478305       2.58283027       7.93038770       1.56435384       0.51155139      -1.04266204       0.83348829      -0.53657892       0.61120500
I        6.76746173      24.41756818      14.00748461       0.14733895      -0.01854110       0.08179356       0.87255340       1.21928636       3.16721340
I        6.12686224      10.54951041      20.16349228      -0.11910485      -0.27360496       0.24633011       2.88012865       1.22979381       1.64824317
I        6.42576394       8.15229197      15.81508458      -0.31587942      -0.27804866       0.09963799       3.54630932       1.32012352       3.22475262
I        6.69451012       1.89916293      17.27030618       0.09351520      -0.27085852       0.19972174      -0.91927185       3.06076061       1.35940012
I       -0.43154428      10.55168381      20.27641227       0.37538914      -0.05873679      -0.29219642      -1.76488461       0.13787339       0.67518151
I       12.83368645      24.39934592      14.17875672      -0.07105750       0.08469306      -0.08956560       0.58884900       2.84649293      -2.58002619
I       12.69944293       2.00792340      17.58425465      -0.01854709       0.10816705       0.07210022      -0.49932655       4.30952646      -0.37796236
I        0.26632436       8.58499135      16.40000392      -0.10581802      -0.63825286      -0.14240598       0.04678714      -0.16279568      -3.15493355
I        9.49792207      11.69259795      22.77609363      -0.18694027       0.03793803       0.23193250       0.00191658      -1.59466870      -0.04132366
I        3.14506891       4.78255430      17.55136450       0.05023967       0.11728398      -0.49481579      -0.24105971       4.64696427       0.78236166
I        3.62818935      23.69065110      16.78546692      -0.28775920       0.28498597       0.04190284       2.09362465       0.14006634      -0.64215679
I        9.66800645      10.96845418      17.75057757      -0.07779459       0.04836006      -0.24167563       1.93538011      -2.74924450       1.68858409
H        1.95307889       1.41335475      12.17352507      -0.32616619       0.20708955       0.10958399      -0.14116135      -0.09182152       0.05595949
H        9.27198331       1.57288660      15.48403543      -0.54534246       0.08262541       0.53875626       0.04698364      -0.21825277       0.12301645
H       11.42427020       8.99597367      13.97139633       0.55437526      -0.38174560       0.11704387      -0.13902792      -0.13687210      -0.30782606
H        3.76740286       0.70332639      21.04534801      -0.54192241       0.92368614      -1.24804452      -0.06649353      -0.06949600      -0.22587966
H        4.23558395       7.38343765      19.84898461      -0.45856703       0.19360502       0.28001707       0.04174171       0.17016122       0.44958512
H       10.58041527       2.77441231      15.11391316      -0.95346026      -0.00933178      -0.03088150       0.14820405       0.47791149       0.02594905
H       10.07393905       3.60770076      20.26899563      -0.08045373       0.28205566       0.28802150       0.01068506      -0.14517112      -0.01889691
H        3.15889673       0.77815568      19.08582923       0.94175320      -0.28967965       0.94411284      -0.03619167       0.09869613       0.02855719
H        3.69882846       1.05971923      12.99438455      -0.23595840       0.73717082       0.10068103       0.13532917       0.00266372       0.14287573
H        8.72466114       3.26577437      14.69875419       0.18027127      -0.34916698       0.18734874      -0.29902252      -0.16158869       0.18043963
H        9.67616362       9.25041479      15.07625876       0.69053773      -0.70738324      -1.09437729      -0.17705398      -0.22248478      -0.13340401
H        5.00199028       1.12361101      19.73883698      -0.78135285       0.11275806       0.26627449       0.01686138       0.10975614      -0.06390978
H        3.05737441       2.79212466      14.78191336      -0.08916793      -0.51493552       0.33634012      -0.08982695       0.22641290      -0.15773378
H        9.85528241       8.70488291      18.82035492      -0.26670050      -0.33914116       0.37203638       0.08751599      -0.01353424      -0.20397651
H        8.69295569       7.48477614      13.10829418      -0.14527402      -0.40507463       0.28764625       0.29918338       0.22688601      -0.21832649
H        1.99301936       7.97408602      14.76347651      -0.01935968       0.10102529      -0.27240631      -0.10097481       0.21411131       0.07554505
H        2.07739962       1.27765393      14.87996309       0.56933822       1.03740185      -0.54449018      -0.13339879       0.10939320       0.24383955
H        8.91263625       7.26678440      19.18152832       0.08772695       0.38539486      -0.04743613      -0.22688315       0.02301568       0.12264875
H        9.97050200       6.78337305      14.25218455      -0.51074315       0.28796006      -0.79730783      -0.00879365      -0.09460166       0.22006344
H        2.90472928       8.50145461      13.38690918      -0.26697552       0.39915522      -0.03149833       0.01557896       0.39777114       0.07868680
H        1.41194562       2.74826742      14.27768606      -0.65784914       0.27936650      -0.19930339      -0.07054049      -0.17157323       0.00860257
H       10.80566987       1.37818383      13.40723198      -1.43611517      -0.24467572       0.40706852       0.04449339      -0.02322823      -0.23044140
H       10.36129246       7.15354162      12.56164960       0.48983764      -0.03120122      -0.31003905       0.01542298      -0.08534082       0.17965159
H        3.68432240       8.10888605      14.77220489       0.30811487      -0.03973582       0.20745566       0.14519248      -0.15461828       0.12599799
C        3.36720694       8.19937097      19.55449694      -0.28485362      -1.56638440      -0.54094389       0.90599658      -0.46931505       1.20963888
C        9.51538520       2.41875864      14.79792497       1.82697574       0.47479442       0.52627083      -0.10898873       1.22744821       1.35167900
C        9.20492612       3.13368585      19.72122545       0.89591584      -1.10372212      -0.33514866       0.63371459       0.25471332      -0.30091638
C        3.83548785       1.22423381      20.01196092      -0.27573461      -1.89017853      -0.75790292       0.49133250       0.25423905       0.20207786
Pb       6.42094638       5.02676637      16.94110366      -0.23205488       0.00738389      -0.27014979       1.00599223       0.57513450       4.03779732
Pb       6.26186108      10.97444241      16.92349641       0.70331346       0.05123035      -0.13870181       0.14890692       2.71086342       2.49897368
Pb      25.48003023      11.06938595      23.21129280      -0.72442979       0.25920605       0.26679023      -1.58775904      -2.67439022       7.40981651
Pb      25.56896869      11.47341234      17.15223987      -0.16296249       0.13231820      -0.40689491       0.94953587      -0.55154226       1.73744030
N        2.29970099       2.18981998      14.29618626       0.91311332      -1.06394432       0.41020001      -0.08527265      -0.21430423      -0.30321014
N        9.71497807       7.87428130      19.48501408       0.18301864      -0.02538019      -0.01537297       1.13261040      -0.29913378      -0.38256861
N        9.76092844       7.45925092      13.43757651      -0.20780593      -1.02758035       1.52709440       0.91103534       1.22734650      -1.00028316
N        2.87268518       7.85435411      14.18676903       0.22330484       0.36870880      -0.43477506       0.43382215      -0.04677350       0.09545973
I        6.96242301       5.68506506      20.01928011      -0.17422965       0.13500909      -0.04453751      -0.48822778       1.93125485      -0.43756578
I        5.77013191       4.08733106      13.72845209      -0.21946051      -0.24560629       0.41739636       2.99380782       0.98934822       2.00889321
I        6.03880402       1.85762439      22.19173537       0.07699991       0.46544200      -0.12880730       0.32846828      -0.55603943       0.59216138
I        6.46636631       7.97303356      12.15923615      -0.01639354      -0.21435459      -0.37119721      -0.71555961       0.26365619      -0.77933064
I       -0.36452246       4.39631602      13.65072835       0.16613802      -0.10318974       0.55403327      -1.73455449      -3.35882519      -0.17423540
I       12.76633374       5.93861983      19.89287684      -0.05946686       0.07018571      -0.10434882      -0.11693135       0.90749637       4.14111609
I       12.30762598       7.86285196      11.38914679       0.35731560       0.13859994      -0.08970740       1.72218957       1.57726677       0.97497119
I        0.32108878       2.28892360      21.89625940       0.12971272      -0.36367921       0.04553458       3.68481218      -1.51938286      -0.48554551
I        9.56656676       5.52688665      16.73885802       0.36580534       0.12089800      -0.25284485       0.84733667      -0.48700679      -0.89876308
I        3.01386031      10.62537950      11.35218977       0.00651544      -0.14790382       0.09641415       1.19927672      -2.31176117       2.94902068
I        3.20398152       5.89779545      22.72990791       0.21233678      -0.11148820      -0.21593770       2.07880292       1.10606913       0.49587055
I        9.90148913       4.46290088      10.98897576      -0.95318721       0.06255871       0.14454260      -2.10259669       0.22091464       1.31577919
H        3.83029856       8.90147517      18.69028453      -0.37727082       0.42077318      -0.30207437       0.10498908      -0.00452570       0.32841305
H        9.50114682       7.39789783      21.55802582      -0.30819228      -0.57237298      -0.15165712      -0.00468017      -0.52674029       0.09728124
H        8.24649799       2.97546708      20.26414140      -0.63344943       0.70696369       0.95344872      -0.10668883       0.18776328       0.32631856
H        4.09271235       6.29565462      13.46271565       1.28530283      -0.26593356      -1.59707062       0.04545272      -0.05305010      -0.02017237
H        3.29832053       2.82127025      12.30242478       0.06567238       0.27406339      -0.55680908      -0.07967881       0.02262627       0.36910424
H       10.44900240       8.79183711      21.30425260      -0.12936054       0.41620688      -0.51622533       0.15956218       0.05154213       0.02349057
H        9.79694487       9.36744029      12.99174662      -0.19989372       1.40218069      -0.98275078      -0.35900740       0.09858490       0.38057898
H        2.80558280       5.86112715      14.55578398      -0.14780055      -0.99709113       1.05292500      -0.02419785      -0.11744952      -0.07218967
H        2.41311814       7.70288443      19.24055334       0.42591826       0.20479679      -0.59294922      -0.07474859      -0.05063617      -0.00729902
H        8.58483989       8.89020537      21.12712886       1.67185245      -0.99643218      -0.84886095       0.06039340       0.02420726      -0.07558514
H        8.95985256       3.74481928      18.81774766       0.05225448      -0.27486240      -0.34070258       0.03999563       0.30541918      -0.14889416
H        2.25378627       6.23721568      12.87738667       0.48924738       0.19743309      -0.08324626      -0.25762206      -0.24181692      -0.06468035
H        2.76205951       8.28661003      21.69083981      -0.41543579       0.82243248      -0.72569954       0.13707383      -0.00824334      -0.07172878
H        9.73108965       2.48362870      12.66965520       0.15364574       0.50665057       0.24702160      -0.02491849      -0.09020281      -0.13198114
H        9.91708990       1.08977239      20.38071999      -0.13697565       0.52309628      -1.08484049       0.26941916      -0.19697533      -0.08164594
H        4.12740705       3.11084550      20.83422525      -0.22206038       0.13025343       0.23261527       0.16879492      -0.07366983      -0.05236032
H        1.91810955       9.53109450      20.59754497      -0.26452292       0.62128105       0.56536740       0.11139582      -0.12901855       0.24151453
H        8.94441871       1.15499121      13.23481994       1.73627088       0.00563478       0.15690547      -0.09135108       0.03461668      -0.05128027
H       10.43190806       1.59893361      18.74185787      -0.17676210       0.12101783       0.43367583       0.27255791      -0.13179002       0.21913693
H        2.45831243       2.86474016      20.52163311      -1.01488976       0.36199272       0.37223284       0.28193995      -0.34514502      -0.14068272
H        3.68482433       9.54004397      21.08962361      -0.44234988       0.72621510       0.49820178      -0.06186855       0.00204866       0.25195218
H       10.56978131       7.26331986      19.40636270      -0.04802620       0.21450704       0.03940467       0.09332153       0.03568118      -0.12112822
H        8.72119448       1.17526134      18.98020109       1.09235834      -0.07586403       0.71350718      -0.50150540       0.11995513      -0.03945377
H        3.56551793       3.15718050      19.19538535      -0.66863526       0.84252634      -0.54023045       0.07916133       0.03809525      -0.18204425
C        2.84768667       1.87004290      12.82196172       0.38338098      -0.92920969       0.35488572       0.38555550      -1.14937153       0.38352328
C        9.53907928       8.27351980      20.91378368      -1.05552164       1.00935503       1.13284540       0.12389963       0.56973938      -0.24726332
C       10.18923098       8.83135610      13.89775670      -1.06462677       0.89767200       1.59924700       0.28433766       0.12396949       0.78345269
C        3.01644241       6.45391765      13.68362553      -1.57461019       0.75677281       1.03576378       0.06122076      -0.43561707      -0.68283051
Pb       6.48258369      11.05265533      23.20480839      -0.17092609      -0.22841983       0.28791228      -2.43579448      -0.69752737      -0.34819865
Pb       6.46831361       4.97226547      23.06643807      -0.34383662       0.15002370       0.38580942      -0.70241757      -0.59951214      -2.12002837
Pb      25.32027756       5.28201969      16.72340298       0.55961848      -0.21282618       0.38709802      -0.73326125       2.47389433       2.56213223
Pb      25.63760251       5.22292450      22.75660761      -0.41994046      -0.09643531       0.22228000       0.70233613       0.44759250      -1.92244867
N        2.85134052       8.97798630      20.83755781       1.86517189      -1.48417230       0.64916035       0.02171543       0.88897461      -0.19467080
N        9.78311841       1.79672796      13.47809470      -0.96224759      -0.68978134      -2.17002419       0.25044071       0.14985022       1.18913607