768
Lattice="31.343885341238796 -0.47746557187201905 -1.6062135899949226 -0.40744855527168355 29.62807268781774 -0.02279442302894619 -1.4504438450383712 0.04122985736401602 17.113936445534993" Properties=species:S:1:pos:R:3:forces:R:3:momenta:R:3 pbc="T T T"
I        6.31055358       0.74159859       2.10816922       0.04907265      -0.05485848      -0.15772311       0.05024707       1.44815063       0.24786191
I        0.81300672       6.31090776       2.19142301       0.10377550      -0.02433655       0.02477659       0.34602704       0.88470944      -0.84308877
I        5.62263153       1.46810172       6.11367712       0.06932175      -0.11916102       0.14334085      -0.22332578      -2.20993522       1.40518021
I        1.45913600       6.10740918       6.51039822      -0.11041533      -0.03724900       0.02640634      -1.02451536      -0.12655608       0.54384582
I        4.99775765       4.72019081       3.70265498      -0.13685934      -0.04224390       0.07781721       1.17760339       0.95645063       0.34905635
I        1.78936766       2.60106215       8.73937872      -0.08089633       0.02026604       0.07880008       1.36973263      -0.91535199       0.28279381
H        1.90679662       3.91786163       3.71098319       0.67673736       1.50323506      -0.73781091      -0.01030187       0.02750290       0.13407481
H        4.22825119       4.97473131      15.74298545       0.15135236      -0.22922030       0.00858019      -0.17474054       0.01891122       0.05851579
H        0.82207060       2.40355519       4.40364502       0.18051893       0.03086896      -0.11456433       0.10476608       0.04991614      -0.28210231
H        6.77045813       4.94528374       0.08341857      -0.08189811       0.04380854      -0.09467634      -0.04614461       0.00763756       0.20490282
H        2.34611937       3.20618621       5.47910393       0.11910047      -0.40162149       0.10862604       0.08719389       0.05638101      -0.07499732
H        5.46732855       3.67198314      -0.05841593       0.31900992       0.60262128      -0.23338326      -0.15574714      -0.00725658       0.17806416
H        2.81593490       1.89927471       2.72667641      -0.14614169       0.52388561      -1.00313209      -0.10344573       0.01943557       0.10589385
H        5.01213488       6.66347972       0.01543536      -0.52109601      -1.20453174       0.88522287       0.18602171      -0.07208320      -0.09199329
H        2.69503402       0.98321231       4.07774834      -0.42054592      -0.76079545       0.54878592      -0.18610629       0.03792167       0.10321402
H        4.77665018       5.52762292       1.38332611       0.15079378       0.25823943       0.36552528      -0.25495321      -0.07861346       0.02728739
H        3.86903962       2.16277709       3.98829257       0.63125767       0.04214719       0.38402119      -0.07495642       0.07222020       0.04153652
H        3.81349843       5.46492509      -0.01642268      -0.00714006      -0.04850149       0.08708835       0.04370074      -0.10865186       0.07195477
C        1.93570485       2.94716968       4.36554471      -0.86518278      -1.69708246       0.31029620      -0.50424700       0.72836320       0.07633577
C        5.75163857       4.73592472      -0.29329756      -0.07316443      -1.11121515      -0.08953680       0.29857776      -0.25493641       0.08013770
Pb       3.42058197      14.81882559       8.16939262       0.14836984       0.05759820      -0.03074905      -1.48704634       1.96200553      -0.34753285
Pb      -0.50935947      14.92055492       8.39200701      -0.13440773       0.14396036       0.25041282      -0.53937929       0.14942802       0.43721345
N        2.88373479       1.94305258       3.75391054      -0.35778379       0.60455621       0.50006250       0.19359295      -0.22620339      -0.13334273
N        4.78082308       5.64086459       0.35508704       0.21721462       1.70279664      -1.22328182      -0.32849152       0.51352412       0.05406501
I        5.23900699       8.38350285       6.40544507       0.02073937      -0.13491070       0.13463053      -2.44203248      -1.17584181      -0.05125358
I        1.13903988      14.08014954       5.80014816       0.12009019      -0.02369759       0.15644690      -0.32667043      -0.94666215      -2.02656192
I        5.17266110       8.75655548       1.78318386       0.00923325      -0.11382784       0.45658369       2.34227874       0.46911388      -0.01384941
I        2.33341320      13.23760091       1.76606045      -0.12752132      -0.00307463       0.10557189       0.62022304       0.07884088       0.39765176
I        4.46524839      12.12382670      16.69833621       0.00909157      -0.09161084      -0.10090584       0.38712669      -0.46414100      -0.66135550
I        1.33103709      10.15663863       4.73104310      -0.02112069      -0.26839160      -0.08362257       0.57221738      -0.27870682       1.22514268
H        0.96513342       8.42668744       8.31018281      -0.25602826      -0.48047944      -0.29637430       0.09468988      -0.12842206       0.09198106
H        5.70887528      10.83486870       4.88571444       0.02968839       0.90545710      -0.33227022       0.19396438      -0.08951550      -0.09246194
H        0.87961194       9.19187041       9.90247369       0.10370694       0.17048662       0.53752991      -0.05698486      -0.24490810       0.07432728
H        5.89652902      12.66200433       5.16558140      -0.17548366      -0.33178564      -0.08133729      -0.13779139       0.00550963      -0.04268418
H       -0.20580111       9.80001894       8.63224831      -0.64551309      -0.09967228      -0.04745828       0.03180278      -0.13757798       0.25562329
H        4.44595169      12.04817356       4.28866339      -0.19433942      -0.03651917      -0.15364647       0.00178783       0.07388598      -0.03774669
H        1.57899099      11.35028080       8.78319620       0.12712496      -0.11809729       0.17873058       0.03680118       0.16732244       0.03057398
H        7.31872180      11.92421010       3.45050638       0.38212628      -0.45482570      -0.20013825       0.00128859       0.01407834      -0.04244976
H        1.85247191      10.47441016       7.34187220      -0.34012894      -0.24550291      -0.53113694       0.05499936       0.08269412       0.03448695
H        6.28010332      12.97661622       2.73582855      -0.43114991       1.02590874      -0.03146819      -0.11056430      -0.03559581       0.12916517
H        2.71262830      10.07855776       8.73784625       0.30203659       0.23931584      -0.04824887       0.06647475       0.03776643      -0.03354782
H        6.04369669      11.34322639       2.51680952      -0.41662343      -0.74831595      -0.83167136      -0.03292117      -0.04420058       0.10054834
C        0.77174777       9.37356770       8.83692809      -0.25073668       0.30423837      -0.33936405       0.00542585      -0.17493000      -0.51940105
C        5.52042771      11.88253358       4.47566158       0.30584794      -0.03635790       0.22402129      -0.24491674      -0.16005844      -0.19909535
Pb       3.23269813       7.48332549       4.25573218      -0.01555887       0.06111278      -0.24114101      -1.75102149       2.16670367       1.00116672
Pb       7.16624123       6.94557082       4.17747644       0.02867752       0.25472910      -0.23687512       0.66291652      -2.34471222      -1.09219658
N        1.77242063      10.38072727       8.37008662       0.96136976       0.36888775       0.50841646       0.64037856       0.07365105       0.27031775
N        6.30893133      12.05674025       3.19614206       0.46721163      -0.27278342       1.27220082       0.44801983      -0.34289837       0.11951423
I       14.13783015       0.82502903       1.68184450       0.17642740      -0.14549242      -0.21237381      -0.25656877       0.94840929      -1.45834153
I        9.02103858       6.14604053       1.64940758      -0.07965655      -0.10204161       0.07882100      -0.04386789      -0.53531740      -1.31095027
I       13.25578416       1.44293503       5.81546857      -0.09678845      -0.26266842       0.01866019       0.09422278       0.53328483       0.08942422
I        9.16745332       5.71591316       6.27545758       0.04899596       0.07782285      -0.36330062       0.93173264       1.19462901       0.99684429
I       13.01846710       4.63934019       3.52686957       0.05533088       0.26214042      -0.21021610      -1.64651118       0.73727514      -0.69707278
I        9.51691040       2.14254691       8.50547122       0.00165986       0.31473711       0.07197884       0.62844447      -2.03651551      -1.70204722
H        8.58516252       2.37456581       3.99605398      -0.40412967      -0.05982689      -0.15530062       0.10491376      -0.05458386       0.14951226
H       11.79058586       4.07736965      15.15368983       0.35455516       0.06543963      -0.51291306       0.11392088       0.05732138       0.07980558
H       10.02312313       2.68590847       5.20440730      -0.42519760       0.14690935      -0.54408878       0.21248037       0.06800770      -0.19660380
H       14.74867147       4.42974877      -0.75381489       0.18162982      -0.14906975      -0.07725404       0.38923648       0.05017066      -0.05471236
H        9.92120777       3.63380381       3.61221450       0.07504722      -0.30893604      -0.28753220       0.10739821       0.13073563       0.10396457
H       13.26696838       3.23667134      -0.20801531       0.29265751       0.72271008       0.09228471      -0.01603585       0.03162391       0.15553931
H       10.52145810       1.56803847       2.42233816      -0.24122467      -0.35523656      -0.02878736      -0.09953047      -0.24172670      -0.06467746
H       11.93197085       5.43912930      -0.50679743       0.11249806      -0.21811199      -0.09104534      -0.03248934       0.06793263       0.00692952
H       10.08540111       0.61243032       3.83830172      -0.35711893      -0.55410194      -0.46515229      -0.16423692       0.18194062       0.06114304
H       11.86955115       6.39330205      16.33718338       0.39520359       0.25950980       0.01389786       0.32031304       0.17346800      -0.11153211
H       11.45545355       1.46512831       3.81759028       0.25167229       0.44143882       0.10436700      -0.05151574       0.05118845      -0.12606099
H       12.96679474       5.59682875       0.77185629       0.39019704      -0.42246710       1.21004945       0.03691135      -0.19933902       0.14582912
C        9.66565945       2.65287291       4.09215804       1.50226247      -0.82178329       0.75374708       0.35219406      -0.49600202       0.41013926
C       12.18168679       4.22480114      16.27432515      -1.05141690       0.06445712       0.85135661       0.41453580       0.01629756       0.11785228
Pb      11.19369223      14.53784891       7.89908270       0.32019645       0.07103305       0.32816974       0.13440636       0.66436477      -1.39539997
Pb       7.30333236      14.49969135       8.08197526      -0.32078597       0.15876944       0.42474766       1.69650297      -1.54476190       1.97698489
N       10.48421617       1.49327798       3.46294464      -0.50005706       1.34871392       0.60596210      -0.16231573      -0.34463569       0.02408042
N       12.95494821       5.45673849      -0.26320730      -0.70385228      -0.20546039      -1.23240725       0.44857472      -0.21794984       0.31129169
I       12.70959522       8.42085847       6.34161324       0.36318204      -0.19805584      -0.29128404       0.48335321       1.21814821       0.11437934
I        9.03613834      13.64798270       5.77124146       0.08760331      -0.25259316      -0.63520923       0.92802461      -0.28528418       1.35894762
I       12.92978247       8.89382297       1.67396571       0.01062557      -0.28406232       0.44437747      -1.78383485       0.56153163       0.39368805
I       10.02168036      12.71476877       1.48081561       0.15552305       0.15960929      -0.19497902       0.47471489       1.42936947       1.26582230
I       12.57014876      12.10404023      16.21429908       0.07359815      -0.04524878       0.05844290      -0.00113955      -2.60741531      -2.60440143
I        8.94593219       9.60167701       4.15021215      -0.02587531       0.31764418      -0.12126688       0.77003468      -2.51372490      -2.75440605
H        9.50731124       9.04551713       9.01987278       0.00805957       0.39314496       0.40055708       0.00012627       0.03219502       0.09714422
H       12.38442549      12.18051854       3.76182671       0.36862101      -0.26308041      -0.03141404      -0.13750723      -0.13519438      -0.03671878
H        8.12678625       9.91902046       8.02311465       1.11203601      -0.60725235       0.16551584       0.14024645       0.01680429      -0.21165490
H       13.71108106      11.09419777       4.51645695      -0.16405656       0.39592500      -0.07752239       0.17096737      -0.05702999      -0.00605643
H        9.08891140       8.38672951       7.43957281      -0.10881632      -0.05658379      -0.52711603       0.12928085      -0.02032926      -0.12724343
H       13.77274855      12.94521027       4.63364666       0.10814790       0.05579585       0.49325823      -0.16892831       0.12359782       0.07909425
H       10.26246932      11.10263235       7.85616645      -0.16526373       0.08441611      -0.14474572       0.14535080      -0.13247276      -0.10020834
H       13.80546093      11.60940678       2.09860221      -0.07363396      -0.02899726      -0.94538257      -0.16042395       0.20484432       0.06643911
H        9.92121485      10.39161150       6.33642556      -0.08248597       0.17621799      -1.60035848       0.04378094      -0.16431003      -0.25068246
H       15.18186098      11.71007694       2.92005682       1.05016179      -0.28675435       0.47613696      -0.28143813      -0.04219613       0.00576287
H       11.15747727       9.79047836       7.29848308       0.32622237      -0.50575848       0.03239849       0.03442329       0.06515259      -0.17182245
H       14.47483017      13.14058300       2.49254439      -0.39536962       0.53459026      -0.44817420      -0.03537415      -0.13190397       0.01939510
C        9.15113409       9.33894971       7.98027989      -0.60760908       0.44895841      -0.09606229       0.05376094       0.20384504      -0.71369042
C       13.48332668      12.08280422       4.00805798      -0.83346193       0.16759481       0.89243196       0.04931342      -0.32594349      -0.19231305
Pb      11.04693874       7.18745758       3.86035623       0.06236856      -0.01458129       0.04578080       1.34293782      -2.10537297       1.65732053
Pb      14.98452692       7.22771700       3.74347308      -0.33872587       0.23824992       0.12183454      -3.08795857       1.87253494      -1.23941854
N       10.19450301      10.20991367       7.30600648      -0.66090446       0.13960410       2.00953928      -0.67401947      -0.13158200      -0.20965892
N       14.28273769      12.17691220       2.80357521      -0.12178560      -0.57071790      -0.53380747      -0.05294417      -0.76982960      -0.57152040
I        5.58533166       0.76221352      10.66513744       0.04907265      -0.05485848      -0.15772311       0.05024707       1.44815063       0.24786191
I        0.08778480       6.33152269      10.74839123       0.10377550      -0.02433655       0.02477659       0.34602704       0.88470944      -0.84308877
I        4.89740961       1.48871665      14.67064534       0.06932175      -0.11916102       0.14334085      -0.22332578      -2.20993522       1.40518021
I        0.73391408       6.12802411      15.06736644      -0.11041533      -0.03724900       0.02640634      -1.02451536      -0.12655608       0.54384582
I        4.27253573       4.74080574      12.25962320      -0.13685934      -0.04224390       0.07781721       1.17760339       0.95645063       0.34905635
I        2.51458958       2.58044722       0.18241050      -0.08089633       0.02026604       0.07880008       1.36973263      -0.91535199       0.28279381
H        1.18157470       3.93847656      12.26795141       0.67673736       1.50323506      -0.73781091      -0.01030187       0.02750290       0.13407481
H        4.95347312       4.95411638       7.18601722       0.15135236      -0.22922030       0.00858019      -0.17474054       0.01891122       0.05851579
H        0.09684868       2.42417012      12.96061324       0.18051893       0.03086896      -0.11456433       0.10476608       0.04991614      -0.28210231
H        6.04523621       4.96589867       8.64038679      -0.08189811       0.04380854      -0.09467634      -0.04614461       0.00763756       0.20490282
H        1.62089745       3.22680114      14.03607215       0.11910047      -0.40162149       0.10862604       0.08719389       0.05638101      -0.07499732
H        4.74210663       3.69259807       8.49855229       0.31900992       0.60262128      -0.23338326      -0.15574714      -0.00725658       0.17806416
H        2.09071298       1.91988964      11.28364463      -0.14614169       0.52388561      -1.00313209      -0.10344573       0.01943557       0.10589385
H        4.28691296       6.68409465       8.57240358      -0.52109601      -1.20453174       0.88522287       0.18602171      -0.07208320      -0.09199329
H        1.96981210       1.00382724      12.63471656      -0.42054592      -0.76079545       0.54878592      -0.18610629       0.03792167       0.10321402
H        4.05142826       5.54823785       9.94029433       0.15079378       0.25823943       0.36552528      -0.25495321      -0.07861346       0.02728739
H        3.14381770       2.18339202      12.54526079       0.63125767       0.04214719       0.38402119      -0.07495642       0.07222020       0.04153652
H        3.08827651       5.48554002       8.54054554      -0.00714006      -0.04850149       0.08708835       0.04370074      -0.10865186       0.07195477
C        1.21048293       2.96778461      12.92251293      -0.86518278      -1.69708246       0.31029620      -0.50424700       0.72836320       0.07633577
C        5.02641665       4.75653965       8.26367066      -0.07316443      -1.11121515      -0.08953680       0.29857776      -0.25493641       0.08013770
Pb       2.69536005      14.83944052      16.72636084       0.14836984       0.05759820      -0.03074905      -1.48704634       1.96200553      -0.34753285
Pb      -1.23458139      14.94116985      16.94897523      -0.13440773       0.14396036       0.25041282      -0.53937929       0.14942802       0.43721345
N        2.15851287       1.96366751      12.31087876      -0.35778379       0.60455621       0.50006250       0.19359295      -0.22620339      -0.13334273
N        4.05560116       5.66147952       8.91205526       0.21721462       1.70279664      -1.22328182      -0.32849152       0.51352412       0.05406501
I        4.51378507       8.40411778      14.96241329       0.02073937      -0.13491070       0.13463053      -2.44203248      -1.17584181      -0.05125358
I        0.41381796      14.10076447      14.35711638       0.12009019      -0.02369759       0.15644690      -0.32667043      -0.94666215      -2.02656192
I        4.44743918       8.77717041      10.34015208       0.00923325      -0.11382784       0.45658369       2.34227874       0.46911388      -0.01384941
I        1.60819128      13.25821584      10.32302867      -0.12752132      -0.00307463       0.10557189       0.62022304       0.07884088       0.39765176
I        5.19047032      12.10321177       8.14136798       0.00909157      -0.09161084      -0.10090584       0.38712669      -0.46414100      -0.66135550
I        0.60581517      10.17725356      13.28801132      -0.02112069      -0.26839160      -0.08362257       0.57221738      -0.27870682       1.22514268
H        0.23991150       8.44730237      16.86715103      -0.25602826      -0.48047944      -0.29637430       0.09468988      -0.12842206       0.09198106
H        4.98365336      10.85548363      13.44268266       0.02968839       0.90545710      -0.33227022       0.19396438      -0.08951550      -0.09246194
H        1.60483386       9.17125548       1.34550547       0.10370694       0.17048662       0.53752991      -0.05698486      -0.24490810       0.07432728
H        5.17130710      12.68261926      13.72254962      -0.17548366      -0.33178564      -0.08133729      -0.13779139       0.00550963      -0.04268418
H        0.51942081       9.77940401       0.07528009      -0.64551309      -0.09967228      -0.04745828       0.03180278      -0.13757798       0.25562329
H        3.72072977      12.06878849      12.84563161      -0.19433942      -0.03651917      -0.15364647       0.00178783       0.07388598      -0.03774669
H        2.30421291      11.32966587       0.22622798       0.12712496      -0.11809729       0.17873058       0.03680118       0.16732244       0.03057398
H        6.59349988      11.94482503      12.00747460       0.38212628      -0.45482570      -0.20013825       0.00128859       0.01407834      -0.04244976
H        1.12724999      10.49502509      15.89884042      -0.34012894      -0.24550291      -0.53113694       0.05499936       0.08269412       0.03448695
H        5.55488140      12.99723115      11.29279677      -0.43114991       1.02590874      -0.03146819      -0.11056430      -0.03559581       0.12916517
H        3.43785022      10.05794283       0.18087803       0.30203659       0.23931584      -0.04824887       0.06647475       0.03776643      -0.03354782
H        5.31847477      11.36384132      11.07377774      -0.41662343      -0.74831595      -0.83167136      -0.03292117      -0.04420058       0.10054834
C        1.49696969       9.35295277       0.27995987      -0.25073668       0.30423837      -0.33936405       0.00542585      -0.17493000      -0.51940105
C        4.79520579      11.90314851      13.03262980       0.30584794      -0.03635790       0.22402129      -0.24491674      -0.16005844      -0.19909535
Pb       2.50747621       7.50394042      12.81270040      -0.01555887       0.06111278      -0.24114101      -1.75102149       2.16670367       1.00116672
Pb       6.44101931       6.96618575      12.73444466       0.02867752       0.25472910      -0.23687512       0.66291652      -2.34471222      -1.09219658
N        1.04719871      10.40134220      16.92705484       0.96136976       0.36888775       0.50841646       0.64037856       0.07365105       0.27031775
N        5.58370941      12.07735518      11.75311028       0.46721163      -0.27278342       1.27220082       0.44801983      -0.34289837       0.11951423
I       13.41260823       0.84564396      10.23881272       0.17642740      -0.14549242      -0.21237381      -0.25656877       0.94840929      -1.45834153
I        8.29581666       6.16665546      10.20637580      -0.07965655      -0.10204161       0.07882100      -0.04386789      -0.53531740      -1.31095027
I       12.53056224       1.46354996      14.37243679      -0.09678845      -0.26266842       0.01866019       0.09422278       0.53328483       0.08942422
I        8.44223140       5.73652809      14.83242580       0.04899596       0.07782285      -0.36330062       0.93173264       1.19462901       0.99684429
I       12.29324518       4.65995512      12.08383779       0.05533088       0.26214042      -0.21021610      -1.64651118       0.73727514      -0.69707278
I       10.24213232       2.12193198      -0.05149700       0.00165986       0.31473711       0.07197884       0.62844447      -2.03651551      -1.70204722
H        7.85994060       2.39518074      12.55302220      -0.40412967      -0.05982689      -0.15530062       0.10491376      -0.05458386       0.14951226
H       12.51580779       4.05675472       6.59672160       0.35455516       0.06543963      -0.51291306       0.11392088       0.05732138       0.07980558
H        9.29790121       2.70652340      13.76137552      -0.42519760       0.14690935      -0.54408878       0.21248037       0.06800770      -0.19660380
H       14.02344955       4.45036370       7.80315333       0.18162982      -0.14906975      -0.07725404       0.38923648       0.05017066      -0.05471236
H        9.19598585       3.65441874      12.16918272       0.07504722      -0.30893604      -0.28753220       0.10739821       0.13073563       0.10396457
H       12.54174646       3.25728627       8.34895291       0.29265751       0.72271008       0.09228471      -0.01603585       0.03162391       0.15553931
H        9.79623618       1.58865340      10.97930638      -0.24122467      -0.35523656      -0.02878736      -0.09953047      -0.24172670      -0.06467746
H       11.20674893       5.45974423       8.05017079       0.11249806      -0.21811199      -0.09104534      -0.03248934       0.06793263       0.00692952
H        9.36017919       0.63304525      12.39526994      -0.35711893      -0.55410194      -0.46515229      -0.16423692       0.18194062       0.06114304
H       12.59477308       6.37268712       7.78021515       0.39520359       0.25950980       0.01389786       0.32031304       0.17346800      -0.11153211
H       10.73023163       1.48574324      12.37455850       0.25167229       0.44143882       0.10436700      -0.05151574       0.05118845      -0.12606099
H       12.24157282       5.61744368       9.32882451       0.39019704      -0.42246710       1.21004945       0.03691135      -0.19933902       0.14582912
C        8.94043753       2.67348784      12.64912626       1.50226247      -0.82178329       0.75374708       0.35219406      -0.49600202       0.41013926
C       12.90690872       4.20418621       7.71735692      -1.05141690       0.06445712       0.85135661       0.41453580       0.01629756       0.11785228
Pb      10.46847031      14.55846384      16.45605092       0.32019645       0.07103305       0.32816974       0.13440636       0.66436477      -1.39539997
Pb       6.57811044      14.52030628      16.63894348      -0.32078597       0.15876944       0.42474766       1.69650297      -1.54476190       1.97698489
N        9.75899425       1.51389291      12.01991286      -0.50005706       1.34871392       0.60596210      -0.16231573      -0.34463569       0.02408042
N       12.22972629       5.47735342       8.29376092      -0.70385228      -0.20546039      -1.23240725       0.44857472      -0.21794984       0.31129169
I       11.98437330       8.44147340      14.89858146       0.36318204      -0.19805584      -0.29128404       0.48335321       1.21814821       0.11437934
I        8.31091642      13.66859763      14.32820968       0.08760331      -0.25259316      -0.63520923       0.92802461      -0.28528418       1.35894762
I       12.20456055       8.91443790      10.23093393       0.01062557      -0.28406232       0.44437747      -1.78383485       0.56153163       0.39368805
I        9.29645844      12.73538370      10.03778383       0.15552305       0.15960929      -0.19497902       0.47471489       1.42936947       1.26582230
I       13.29537069      12.08342530       7.65733085       0.07359815      -0.04524878       0.05844290      -0.00113955      -2.60741531      -2.60440143
I        8.22071027       9.62229194      12.70718037      -0.02587531       0.31764418      -0.12126688       0.77003468      -2.51372490      -2.75440605
H       10.23253316       9.02490220       0.46290456       0.00805957       0.39314496       0.40055708       0.00012627       0.03219502       0.09714422
H       11.65920357      12.20113347      12.31879493       0.36862101      -0.26308041      -0.03141404      -0.13750723      -0.13519438      -0.03671878
H        7.40156433       9.93963539      16.58008287       1.11203601      -0.60725235       0.16551584       0.14024645       0.01680429      -0.21165490
H       12.98585914      11.11481270      13.07342517      -0.16405656       0.39592500      -0.07752239       0.17096737      -0.05702999      -0.00605643
H        8.36368948       8.40734444      15.99654103      -0.10881632      -0.05658379      -0.52711603       0.12928085      -0.02032926      -0.12724343
H       13.04752663      12.96582520      13.19061488       0.10814790       0.05579585       0.49325823      -0.16892831       0.12359782       0.07909425
H        9.53724740      11.12324728      16.41313467      -0.16526373       0.08441611      -0.14474572       0.14535080      -0.13247276      -0.10020834
H       13.08023901      11.63002171      10.65557043      -0.07363396      -0.02899726      -0.94538257      -0.16042395       0.20484432       0.06643911
H        9.19599293      10.41222643      14.89339378      -0.08248597       0.17621799      -1.60035848       0.04378094      -0.16431003      -0.25068246
H       14.45663906      11.73069187      11.47702504       1.05016179      -0.28675435       0.47613696      -0.28143813      -0.04219613       0.00576287
H       10.43225535       9.81109329      15.85545130       0.32622237      -0.50575848       0.03239849       0.03442329       0.06515259      -0.17182245
H       13.74960825      13.16119793      11.04951261      -0.39536962       0.53459026      -0.44817420      -0.03537415      -0.13190397       0.01939510
C        8.42591217       9.35956464      16.53724811      -0.60760908       0.44895841      -0.09606229       0.05376094       0.20384504      -0.71369042
C       12.75810476      12.10341915      12.56502620      -0.83346193       0.16759481       0.89243196       0.04931342      -0.32594349      -0.19231305
Pb      10.32171682       7.20807251      12.41732445       0.06236856      -0.01458129       0.04578080       1.34293782      -2.10537297       1.65732053
Pb      14.25930500       7.24833193      12.30044130      -0.33872587       0.23824992       0.12183454      -3.08795857       1.87253494      -1.23941854