768
Lattice="25.489424268572538 -0.0956594233117733 0.005584256169073863 0.09977264370270744 24.739172851202614 0.6001478684267295 -0.002024446371267937 0.5682806783236378 24.75292066089703" Properties=species:S:1:pos:R:3:forces:R:3:momenta:R:3 pbc="T T T"
I        5.86412669      23.47424458       0.97475371      -0.04263750      -0.10758870       0.15098078       0.96727155      -0.03592392      -1.70177526
I        5.44863572       9.45465221       6.98713301      -0.04968296      -0.01695502      -0.21942478      -1.44309853      -1.01720739      -0.53639839
I        5.06484993       7.14727757       2.97907176      -0.10494965       0.00313547      -0.14460264       1.21144280       0.81356128       0.83186157
I        5.36594788       0.86864725       4.37234492       0.02476409       0.08304879      -0.05373834      -2.00872945       0.08514351      -0.38749259
I       25.06282246       9.55094694       7.19653993      -0.06130714      -0.09552317      -0.15885450       0.66928432      -0.27819192      -2.26286380
I       12.00378704      23.28390157       1.23587052      -0.31927651       0.12004522      -0.01579349       2.01873643       0.63534133       1.32327549
I       11.59687540       0.97675517       4.56147824      -0.17108134      -0.27290612       0.12952883      -0.53511086       0.48067006       2.29604045
I       24.61780360       7.06403634       2.98626213      -0.12223516       0.15326006       0.14804912       0.61987156      -1.24723331       0.65256127
I        8.71014577      11.02612536       9.93522954      -0.16386423      -0.06061169      -0.13375615      -1.33943354       0.84836162       0.56975925
I        2.03676967       3.77324546       4.09239263       0.24415078      -0.01540175      -0.08218699      -1.93265006      -0.69795919       0.14977946
I        2.34216064      22.75755005       3.64338017       0.18256521       0.30319711       0.03134480       0.08749355       1.91466875       2.21684439
I        8.75290658       9.81292964       4.42391248      -0.20820262       0.15615120      -0.02380189      -2.29686772       0.27457806       1.17236575
H        1.25401421       0.84142597      24.42177877       0.90664287      -0.09356689       0.37470732      -0.01270477       0.07479427      -0.09713549
H        8.67320928       0.22638094       2.20233499       0.04990075       0.35278882       0.26819099      -0.19863380      -0.02777747       0.02753966
H        9.34357271       8.13231737       1.76734569      -0.09452762       0.15059589      -0.17180773      -0.14469763      -0.00372919       0.02926816
H        2.83870081      24.17850127       8.25247417      -0.24296490       0.19582415      -0.40661295       0.09231287       0.25853753      -0.04102308
H        3.11897151       6.68702160       5.84048290      -0.58284286      -0.09484703      -0.15766752       0.24639796       0.16213683       0.22873153
H        9.15979402       2.04735031       1.89938099      -0.35019117      -0.38602402      -0.32966833       0.03265449       0.20986750       0.00007003
H        9.17698674       1.78788837       7.64820892       0.15880804      -0.46609166       0.20973500       0.05139095       0.14416264      -0.08493100
H        1.36729085      24.28580378       6.93395591       0.84757945      -0.19768503       0.41378842       0.17004647      -0.10711373       0.24257376
H        3.16742231       0.56014735      24.62138978      -1.33730994       0.53467841      -0.11926922      -0.20225496       0.02251681      -0.11181367
H        7.34657402       1.40911461       1.61580987      -0.07917356       0.15879777       0.08746749      -0.11169587       0.01861144      -0.16093822
H        7.58969088       8.22738374       1.79156422      -0.90765926      -0.20325876       0.60640290       0.10300827      -0.18863334      -0.04895189
H        3.22867431      24.60266031       6.44148241      -0.49196897       0.32793548       0.20406393       0.12812713      -0.05246366      -0.10558331
H        3.12139683       2.00310725       1.31514169      -0.70692657      -0.81939614      -0.23118296      -0.22521625      -0.05655242      -0.02506095
H        8.73317802       7.63957248       5.73251309      -0.18822988       0.29839049      -0.15268429       0.01845256       0.05073406       0.02976513
H        7.57687250       7.01054848      24.79063908       0.18023110       0.25054622       0.28221878       0.04610839       0.10330260      -0.05802211
H        0.96400371       8.05557663       1.69472380       0.13902805      -0.32145591      -0.10115105      -0.01393577      -0.01786284      -0.16620320
H        2.12774871       0.73102817       1.99911218       0.02146348       0.31427411      -0.42067145       0.11854641       0.06372167      -0.10599684
H        8.04112795       6.18948676       6.29413794      -0.02909421       0.38091552       0.12459893       0.02791308       0.28180539       0.20158862
H        8.56107445       5.91605040       1.35106103      -0.39966236       0.52468243      -0.03975004       0.14246501       0.26532021       0.07253097
H        1.98734209       8.80799706       0.51087741      -0.09201510      -0.33372867      -0.24160116      -0.03489895      -0.04969312       0.08144310
H        1.47827706       2.12069875       1.18727495      -0.93035612       0.22718467       0.37201038       0.06858637      -0.06302394       0.08231846
H        9.78342858       0.15547752       0.12563767      -0.92652880       0.23884197       0.29421349       0.14473868      -0.02028391       0.01725272
H        9.25149499       7.11640349      24.73166143      -0.24117625       0.21056516      -0.01099112      -0.10737291      -0.04186941       0.05150901
H        2.62296730       8.17478764       1.90494541       0.40765787      -0.01736517       0.33387469      -0.03633596      -0.20260692       0.07710856
C        2.21528160       7.26597062       6.14192590       0.61898223       0.15278281      -0.46299905      -0.04875541       0.29152531       0.12003171
C        8.48191827       1.13222986       1.57586046       0.17135753      -0.42601713       0.40594210      -0.34743780      -0.33491147      -0.35511396
C        8.34667846       1.72418177       6.91905665       1.14626036      -0.44833300      -0.72276239       0.50376428      -0.54331636       0.56149885
C        2.43780932      24.69310304       7.25529843      -0.53871727       0.24296302      -0.11328778       0.39817202      -0.21363193      -0.68309048
Pb       5.41881663       4.08464429       3.68378386      -0.16618909      -0.05485477       0.20397052      -0.78495573      -0.23718695       0.13339621
Pb       5.47184566      10.15279613       3.75097337      -0.02560641       0.15103251      -0.06948850      -1.44973654      -1.42637924      -1.12141377
Pb      24.61908738      10.24648769      10.23262862      -0.10652080       0.35048637      -0.04688772       4.51407444       1.88096362      -1.45374014
Pb      24.58302067      10.18867059       4.10111649       0.08627475      -0.12790450      -0.13067807       0.66998449      -0.71316056      -0.36816731
N        2.23712410       1.40640357       1.16669421       1.40060279       0.53191530       1.51736931      -0.08515235      -0.60908056       0.07132747
N        8.81353415       6.89120207       6.44821475      -0.95357412      -0.77474050      -0.89186943       0.00110943       0.15294111       0.04719231
N        8.42254934       6.68095357       0.61684685       0.29419813      -1.46064545      -0.63755893       0.46879905       0.19510178      -0.09199600
N        1.89984677       7.98745695       1.18788422      -0.56876451       0.35409704       0.42341433      -0.79290493       0.00713028      -0.09731047
I        5.60216270       4.90880813       6.77130085       0.17811256       0.20061781       0.18462723      -0.88650067      -1.72278673      -0.74104693
I        5.11070256       3.51321710       0.75481679      -0.04037336      -0.17655841      -0.37107691      -2.54889732       0.14153397       1.14362753
I        4.97660014       1.14708115       8.88659190       0.05008567      -0.21255459       0.10917184      -0.27270915      -0.05102365       0.44048369
I        5.71446148       7.48036248      22.84125554       0.14896509       0.25136800       0.24808496       0.61907827       1.64585172      -0.79017875
I       24.59605906       2.99224901       0.72276917       0.10386487       0.02700630      -0.00527161      -0.85327079      -0.71578082      -0.10886403
I       11.61239819       5.06401615       6.88382625       0.08688418      -0.20486689      -0.07799715      -2.57725060      -0.13247861       0.34965384
I       11.24892890       7.44302204      23.18080217       0.04607140       0.24925121       0.13024990      -0.78802484       0.42826063       4.12695062
I       24.72516776       1.03195064       8.90583767       0.02992828      -0.08430096       0.21971161      -0.67720164      -1.12266300       1.75054821
I        8.44515898       4.60058507       3.68573127       0.15344277      -0.02489793      -0.17381079       0.23229117       0.53993731      -1.41550279
I        2.27272693      10.17531085      22.78509768       0.12568744       0.02664603       0.01972590       0.96394856      -0.19263640       0.69703305
I        2.27983474       4.51242284       9.47091825       0.21343604       0.01588138       0.05724282       2.36927408      -3.00224067      -0.44340889
I        8.74728808       3.95578558      22.71203848      -0.25924040       0.16134344       0.03311950      -2.02617174      -1.79606841      -0.66692584
H        2.19999736       8.20714748       5.55359236      -0.18352235      -0.35762706       0.11799579       0.16276086      -0.04236708       0.14231815
H        8.95915117       6.62317337       8.54497886       0.03147618      -0.24012790      -0.09066024       0.01917923       0.03665910      -0.24927313
H        7.41677932       1.80964247       7.43781994      -0.86491887       0.67401477       0.28224152       0.00603356       0.06894720      -0.01347504
H        3.17041398       7.36822098      24.77460989       0.10549054      -0.51643312      -0.47232413      -0.18335262       0.03119321      -0.13135213
H        2.38428962       2.07130546      23.82474491       0.41122354      -0.06796851       0.10480878      -0.05460244      -0.04465341       0.04280163
H        9.77841937       7.99978501       7.80097605       1.13368139       0.99749970       0.59784589       0.00534308      -0.12039062       0.11129874
H        8.38849822       8.80009277       0.37741782       0.21549288      -0.05141464      -0.50620470       0.00308313       0.03730834       0.14149619
H        2.11313252       5.76724618       1.19890765       0.13046048       0.47241256       0.37514874      -0.02300075       0.03984734      -0.05305593
H        1.25311889       6.71445303       6.06245755       0.44169751       0.13295801      -0.10912910      -0.09814264      -0.00416177       0.31428614
H        7.98238492       8.04584074       8.05214501       0.82091632      -0.49172339      -0.39391583       0.14035969      -0.06549635       0.03878273
H        8.61897422       2.49428454       6.12929810      -0.70208620       0.01888305      -0.01025394      -0.18780223       0.00640894      -0.06220309
H        1.33993076       6.97645587      24.50000870       0.35403624       0.38405571      -0.06761994       0.02997755       0.03816130       0.02984743
H        2.35533784       6.76342750       8.14997242      -0.04056462      -0.05829615       0.29453386       0.07651840      -0.27153725      -0.21202396
H        8.74263491       1.91975134      24.20856003       0.06693155      -0.06198377       0.34407222      -0.13760442       0.04636315      -0.04798826
H        8.47545955      24.38237495       7.63652881      -0.12413075      -0.07384011      -0.33100725       0.10136121      -0.14770029      -0.10295625
H        2.99555971       1.86255304       7.42189170      -0.65555856      -0.24236336      -0.30959431       0.01995214      -0.04850554      -0.00441085
H        1.69192811       8.34198295       7.86826875       0.56233388      -0.28607314       0.07781539      -0.02751630       0.03614050      -0.07242575
H        8.14541183      25.22243474      25.25540545      -0.07550468      -0.51584732       0.03519191      -0.05674921       0.12972792       0.16862215
H        9.03624773       0.20985825       5.57268072       0.02256194      -0.07810057       0.03651939       0.15912531      -0.02343197      -0.16639974
H        1.31907348       1.51630306       7.56571412      -1.06962365       0.43280060       0.54386747       0.05031381       0.07080359       0.21719643
H        3.42407379       8.03970065       7.74730132      -0.70746420      -0.21542138      -0.21977122      -0.08122044       0.06153397      -0.18507015
H        9.68013595       6.37688269       6.22980719       0.59669974      -0.40593469       0.07041807      -0.05015255       0.05072961      -0.21966852
H        7.34090378       0.26274823       5.77412663      -0.10740646      -0.11162181      -0.14005620      -0.15996051       0.03269215      -0.16817470
H        1.96978186       2.02842352       6.05857094      -0.28972928       0.03536093      -0.05460245      -0.06490124      -0.02609263      -0.00374274
C        2.27434750       1.29171367      24.62400122       0.30849285      -0.79455662      -1.57386749       0.02640193      -0.30768096       0.01678154
C        8.88826836       7.42544040       7.79406589      -1.74535868       0.19668174       0.83626356      -0.45607839      -0.03895004      -0.32048524
C        8.42605596       8.03817175       1.16275233       0.92883843       0.45451748       0.31161948       0.23649463      -0.50628541      -0.20425931
C        2.13955665       6.65664189       0.49449276      -0.27463094      -0.26505902      -0.35978469       0.23650102       0.01566359       0.00331237
Pb       5.46946544      10.37380157       9.89654135       0.15681937       0.25852561       0.25289913       1.35368078       3.25873966      -4.08053720
Pb       5.60206769       4.21307524       9.82187155      -0.06708854      -0.21644662      -0.00608130      -0.51966562      -2.62341437       0.61549643
Pb      24.50946828       3.92842983       3.74848732      -0.02471178       0.23724985       0.22351741       2.91279189       2.17146295      -1.22798078
Pb      24.75445593       4.17198096      10.00920078      -0.19419650      -0.33770535      -0.32243502       0.10082434      -0.63914781       1.77381223
N        2.43751783       7.62953596       7.57528103      -0.05689039       0.57718382       0.39389566       0.34341092       0.34321990       0.31166146
N        8.78441895       0.59565848       0.19729608       1.32382538       0.51730146      -1.06285305      -0.31361160       0.16885177       0.20098845
N        8.26511655       0.34846223       6.26217433       0.74956180       0.52845443       0.80924904      -1.06646380       0.59029330       0.34567590
N        2.11215603       1.45632732       6.93051276       2.30875123      -0.73152549      -0.34264341      -0.31087278       0.16531209      -0.12542695
I        5.86311447      23.75838492      13.35121404      -0.04263750      -0.10758870       0.15098078       0.96727155      -0.03592392      -1.70177526
I        5.44762350       9.73879255      19.36359334      -0.04968296      -0.01695502      -0.21942478      -1.44309853      -1.01720739      -0.53639839
I        5.06383771       7.43141791      15.35553209      -0.10494965       0.00313547      -0.14460264       1.21144280       0.81356128       0.83186157
I        5.36493566       1.15278759      16.74880525       0.02476409       0.08304879      -0.05373834      -2.00872945       0.08514351      -0.38749259
I       25.06181024       9.83508728      19.57300026      -0.06130714      -0.09552317      -0.15885450       0.66928432      -0.27819192      -2.26286380
I       12.00277482      23.56804191      13.61233085      -0.31927651       0.12004522      -0.01579349       2.01873643       0.63534133       1.32327549
I       11.59586318       1.26089551      16.93793857      -0.17108134      -0.27290612       0.12952883      -0.53511086       0.48067006       2.29604045
I       24.61679138       7.34817668      15.36272246      -0.12223516       0.15326006       0.14804912       0.61987156      -1.24723331       0.65256127
I        8.70913355      11.31026570      22.31168987      -0.16386423      -0.06061169      -0.13375615      -1.33943354       0.84836162       0.56975925
I        2.03575745       4.05738580      16.46885296       0.24415078      -0.01540175      -0.08218699      -1.93265006      -0.69795919       0.14977946
I        2.34114842      23.04169039      16.01984050       0.18256521       0.30319711       0.03134480       0.08749355       1.91466875       2.21684439
I        8.75189436      10.09706998      16.80037281      -0.20820262       0.15615120      -0.02380189      -2.29686772       0.27457806       1.17236575
H        1.25502644       0.55728563      12.04531844       0.90664287      -0.09356689       0.37470732      -0.01270477       0.07479427      -0.09713549
H        8.67219706       0.51052128      14.57879532       0.04990075       0.35278882       0.26819099      -0.19863380      -0.02777747       0.02753966
H        9.34256049       8.41645771      14.14380602      -0.09452762       0.15059589      -0.17180773      -0.14469763      -0.00372919       0.02926816
H        2.83768859      24.46264161      20.62893450      -0.24296490       0.19582415      -0.40661295       0.09231287       0.25853753      -0.04102308
H        3.11795929       6.97116194      18.21694323      -0.58284286      -0.09484703      -0.15766752       0.24639796       0.16213683       0.22873153
H        9.15878180       2.33149065      14.27584132      -0.35019117      -0.38602402      -0.32966833       0.03265449       0.20986750       0.00007003
H        9.17597452       2.07202871      20.02466925       0.15880804      -0.46609166       0.20973500       0.05139095       0.14416264      -0.08493100
H        1.36627863      24.56994412      19.31041624       0.84757945      -0.19768503       0.41378842       0.17004647      -0.10711373       0.24257376
H        3.16843454       0.27600701      12.24492945      -1.33730994       0.53467841      -0.11926922      -0.20225496       0.02251681      -0.11181367
H        7.34556180       1.69325495      13.99227020      -0.07917356       0.15879777       0.08746749      -0.11169587       0.01861144      -0.16093822
H        7.58867866       8.51152408      14.16802455      -0.90765926      -0.20325876       0.60640290       0.10300827      -0.18863334      -0.04895189
H        3.22766209      24.88680065      18.81794274      -0.49196897       0.32793548       0.20406393       0.12812713      -0.05246366      -0.10558331
H        3.12038461       2.28724759      13.69160202      -0.70692657      -0.81939614      -0.23118296      -0.22521625      -0.05655242      -0.02506095
H        8.73216580       7.92371282      18.10897342      -0.18822988       0.29839049      -0.15268429       0.01845256       0.05073406       0.02976513
H        7.57788473       6.72640814      12.41417875       0.18023110       0.25054622       0.28221878       0.04610839       0.10330260      -0.05802211
H        0.96299149       8.33971697      14.07118413       0.13902805      -0.32145591      -0.10115105      -0.01393577      -0.01786284      -0.16620320
H        2.12673649       1.01516851      14.37557251       0.02146348       0.31427411      -0.42067145       0.11854641       0.06372167      -0.10599684
H        8.04011573       6.47362710      18.67059827      -0.02909421       0.38091552       0.12459893       0.02791308       0.28180539       0.20158862
H        8.56006223       6.20019074      13.72752136      -0.39966236       0.52468243      -0.03975004       0.14246501       0.26532021       0.07253097
H        1.98632987       9.09213740      12.88733774      -0.09201510      -0.33372867      -0.24160116      -0.03489895      -0.04969312       0.08144310
H        1.47726484       2.40483909      13.56373528      -0.93035612       0.22718467       0.37201038       0.06858637      -0.06302394       0.08231846
H        9.78241636       0.43961786      12.50209800      -0.92652880       0.23884197       0.29421349       0.14473868      -0.02028391       0.01725272
H        9.25250722       6.83226315      12.35520110      -0.24117625       0.21056516      -0.01099112      -0.10737291      -0.04186941       0.05150901
H        2.62195508       8.45892798      14.28140574       0.40765787      -0.01736517       0.33387469      -0.03633596      -0.20260692       0.07710856
C        2.21426938       7.55011096      18.51838623       0.61898223       0.15278281      -0.46299905      -0.04875541       0.29152531       0.12003171
C        8.48090605       1.41637020      13.95232079       0.17135753      -0.42601713       0.40594210      -0.34743780      -0.33491147      -0.35511396
C        8.34566624       2.00832211      19.29551698       1.14626036      -0.44833300      -0.72276239       0.50376428      -0.54331636       0.56149885
C        2.43679710      24.97724338      19.63175876      -0.53871727       0.24296302      -0.11328778       0.39817202      -0.21363193      -0.68309048
Pb       5.41780441       4.36878463      16.06024419      -0.16618909      -0.05485477       0.20397052      -0.78495573      -0.23718695       0.13339621
Pb       5.47083344      10.43693647      16.12743370      -0.02560641       0.15103251      -0.06948850      -1.44973654      -1.42637924      -1.12141377
Pb      24.61807516      10.53062803      22.60908895      -0.10652080       0.35048637      -0.04688772       4.51407444       1.88096362      -1.45374014
Pb      24.58200845      10.47281093      16.47757682       0.08627475      -0.12790450      -0.13067807       0.66998449      -0.71316056      -0.36816731
N        2.23611188       1.69054391      13.54315454       1.40060279       0.53191530       1.51736931      -0.08515235      -0.60908056       0.07132747
N        8.81252193       7.17534241      18.82467508      -0.95357412      -0.77474050      -0.89186943       0.00110943       0.15294111       0.04719231
N        8.42153712       6.96509391      12.99330718       0.29419813      -1.46064545      -0.63755893       0.46879905       0.19510178      -0.09199600
N        1.89883455       8.27159729      13.56434455      -0.56876451       0.35409704       0.42341433      -0.79290493       0.00713028      -0.09731047
I        5.60115048       5.19294847      19.14776118       0.17811256       0.20061781       0.18462723      -0.88650067      -1.72278673      -0.74104693
I        5.10969034       3.79735744      13.13127712      -0.04037336      -0.17655841      -0.37107691      -2.54889732       0.14153397       1.14362753
I        4.97558792       1.43122149      21.26305223       0.05008567      -0.21255459       0.10917184      -0.27270915      -0.05102365       0.44048369
I        5.71547371       7.19622214      10.46479521       0.14896509       0.25136800       0.24808496       0.61907827       1.64585172      -0.79017875
I       24.59504684       3.27638935      13.09922950       0.10386487       0.02700630      -0.00527161      -0.85327079      -0.71578082      -0.10886403
I       11.61138597       5.34815649      19.26028658       0.08688418      -0.20486689      -0.07799715      -2.57725060      -0.13247861       0.34965384
I       11.24994113       7.15888170      10.80434184       0.04607140       0.24925121       0.13024990      -0.78802484       0.42826063       4.12695062
I       24.72415554       1.31609098      21.28229800       0.02992828      -0.08430096       0.21971161      -0.67720164      -1.12266300       1.75054821
I        8.44414676       4.88472541      16.06219160       0.15344277      -0.02489793      -0.17381079       0.23229117       0.53993731      -1.41550279
I        2.27373916       9.89117051      10.40863735       0.12568744       0.02664603       0.01972590       0.96394856      -0.19263640       0.69703305
I        2.27882252       4.79656318      21.84737858       0.21343604       0.01588138       0.05724282       2.36927408      -3.00224067      -0.44340889
I        8.74830031       3.67164524      10.33557815      -0.25924040       0.16134344       0.03311950      -2.02617174      -1.79606841      -0.66692584
H        2.19898514       8.49128782      17.93005269      -0.18352235      -0.35762706       0.11799579       0.16276086      -0.04236708       0.14231815
H        8.95813895       6.90731371      20.92143919       0.03147618      -0.24012790      -0.09066024       0.01917923       0.03665910      -0.24927313
H        7.41576710       2.09378281      19.81428027      -0.86491887       0.67401477       0.28224152       0.00603356       0.06894720      -0.01347504
H        3.17142621       7.08408064      12.39814956       0.10549054      -0.51643312      -0.47232413      -0.18335262       0.03119321      -0.13135213
H        2.38530185       1.78716512      11.44828458       0.41122354      -0.06796851       0.10480878      -0.05460244      -0.04465341       0.04280163
H        9.77740715       8.28392535      20.17743638       1.13368139       0.99749970       0.59784589       0.00534308      -0.12039062       0.11129874
H        8.38748600       9.08423311      12.75387815       0.21549288      -0.05141464      -0.50620470       0.00308313       0.03730834       0.14149619
H        2.11212030       6.05138652      13.57536798       0.13046048       0.47241256       0.37514874      -0.02300075       0.03984734      -0.05305593
H        1.25210667       6.99859337      18.43891788       0.44169751       0.13295801      -0.10912910      -0.09814264      -0.00416177       0.31428614
H        7.98137270       8.32998108      20.42860534       0.82091632      -0.49172339      -0.39391583       0.14035969      -0.06549635       0.03878273
H        8.61796200       2.77842488      18.50575843      -0.70208620       0.01888305      -0.01025394      -0.18780223       0.00640894      -0.06220309
H        1.34094299       6.69231553      12.12354837       0.35403624       0.38405571      -0.06761994       0.02997755       0.03816130       0.02984743
H        2.35432562       7.04756784      20.52643275      -0.04056462      -0.05829615       0.29453386       0.07651840      -0.27153725      -0.21202396
H        8.74364714       1.63561100      11.83209970       0.06693155      -0.06198377       0.34407222      -0.13760442       0.04636315      -0.04798826
H        8.47444733      24.66651529      20.01298914      -0.12413075      -0.07384011      -0.33100725       0.10136121      -0.14770029      -0.10295625
H        2.99454749       2.14669338      19.79835203      -0.65555856      -0.24236336      -0.30959431       0.01995214      -0.04850554      -0.00441085
H        1.69091589       8.62612329      20.24472908       0.56233388      -0.28607314       0.07781539      -0.02751630       0.03614050      -0.07242575
H        8.14642405      24.93829440      12.87894512      -0.07550468      -0.51584732       0.03519191      -0.05674921       0.12972792       0.16862215
H        9.03523551       0.49399859      17.94914105       0.02256194      -0.07810057       0.03651939       0.15912531      -0.02343197      -0.16639974
H        1.31806126       1.80044340      19.94217445      -1.06962365       0.43280060       0.54386747       0.05031381       0.07080359       0.21719643
H        3.42306157       8.32384099      20.12376165      -0.70746420      -0.21542138      -0.21977122      -0.08122044       0.06153397      -0.18507015
H        9.67912373       6.66102303      18.60626752       0.59669974      -0.40593469       0.07041807      -0.05015255       0.05072961      -0.21966852
H        7.33989156       0.54688857      18.15058696      -0.10740646      -0.11162181      -0.14005620      -0.15996051       0.03269215      -0.16817470
H        1.96876964       2.31256386      18.43503127      -0.28972928       0.03536093      -0.05460245      -0.06490124      -0.02609263      -0.00374274
C        2.27535973       1.00757333      12.24754089       0.30849285      -0.79455662      -1.57386749       0.02640193      -0.30768096       0.01678154
C        8.88725614       7.70958074      20.17052622      -1.74535868       0.19668174       0.83626356      -0.45607839      -0.03895004      -0.32048524
C        8.42504374       8.32231209      13.53921266       0.92883843       0.45451748       0.31161948       0.23649463      -0.50628541      -0.20425931
C        2.13854443       6.94078223      12.87095309      -0.27463094      -0.26505902      -0.35978469       0.23650102       0.01566359       0.00331237
Pb       5.46845322      10.65794191      22.27300168       0.15681937       0.25852561       0.25289913       1.35368078       3.25873966      -4.08053720
Pb       5.60105547       4.49721558      22.19833188      -0.06708854      -0.21644662      -0.00608130      -0.51966562      -2.62341437       0.61549643
Pb      24.50845606       4.21257017      16.12494765      -0.02471178       0.23724985       0.22351741       2.91279189       2.17146295      -1.22798078
Pb      24.75344371       4.45612130      22.38566111      -0.19419650      -0.33770535      -0.32243502       0.10082434      -0.63914781       1.77381223
N        2.43650561       7.91367630      19.95174136      -0.05689039       0.57718382       0.39389566       0.34341092       0.34321990       0.31166146
N        8.78340673       0.87979882      12.57375641       1.32382538       0.51730146      -1.06285305      -0.31361160       0.16885177       0.20098845