768
Lattice="31.343885341238796 -0.47746557187201905 -1.6062135899949226 -0.40744855527168355 29.62807268781774 -0.02279442302894619 -1.4504438450383712 0.04122985736401602 17.113936445534993" Properties=species:S:1:pos:R:3:forces:R:3:momenta:R:3 pbc="T T T"
I        6.31906690       0.85251099       2.31159450       0.08302253       0.10524558      -0.07708762      -0.04733726      -0.25538762      -0.75930105
I        1.06037902       6.26059296       2.26907878      -0.19401185       0.20505566       0.42298236       0.99314263      -0.85491532      -2.41608619
I        5.57826818       1.46117383       6.24577224       0.09967165       0.00154772       0.17604023       2.45621063      -0.95325150      -0.31578862
I        1.07779533       6.13435948       6.69396512      -0.02310552       0.17189969      -0.34194183       0.35281061       0.79324524      -0.65785289
I        4.98544964       4.97211681       3.86479294      -0.16958123       0.01746918       0.04526420       0.28314837      -0.38399965       0.59448086
I        1.65769530       2.70779052       9.22875576      -0.03605835       0.06454756      -0.07939229       2.01780129       1.66798662       1.98691282
H        2.23796855       3.83259843       4.82782982      -0.12378098      -0.76052093       0.01344464       0.02484212       0.03532062       0.04721292
H        4.09090005       5.38426626      15.74241799       0.28576821       0.03760310      -0.04190093      -0.04432463       0.14253463      -0.06583110
H        0.86715098       2.70077295       4.70617269      -0.74534656      -0.23904084      -0.60555360      -0.09262996      -0.12102042      -0.12100213
H        6.42560486       5.22507309       0.24240143       0.22094059       0.01807801      -0.20402696       0.12327550      -0.17195552      -0.00245811
H        1.95639855       2.55003944       6.03950029       0.34306664      -0.29757515       0.30464574      -0.05524421      -0.02973165      -0.05664363
H        5.16883581       3.95786175      -0.24581834       0.40600753       1.10741970      -0.23023561      -0.13079820       0.13491660       0.11169824
H        2.67471173       2.19073048       3.17460304       0.10942800      -0.36457450      -1.47160820       0.06752189      -0.14242820       0.09078348
H        4.82398731       6.88142005       0.51473371      -0.34929906       0.07703274      -0.13950378      -0.04712730      -0.12097236      -0.05219759
H        2.30230165       0.83182616       4.21947518       0.81968795       1.22515866      -0.44079006      -0.29931476      -0.07747914      -0.04394877
H        4.12826347       5.53396240       1.32452382      -0.00373633      -0.11016588       0.27872568       0.12759246      -0.08836428       0.11940808
H        3.76691084       1.78253745       4.44158087      -1.23130165      -0.10313103      -0.10503944      -0.01644264      -0.16770025      -0.01035142
H        2.09416569       5.92399517      16.79077714       0.19061368       0.36308184       0.29184311      -0.19911974       0.13607244      -0.20103983
C        1.90425392       2.76659740       4.97460068       0.71921996       1.31557611       0.35563513       0.02172806      -0.26113454      -0.29825933
C        4.02984704       5.10482022      16.80195707      -0.52086487      -1.61138519       0.28962171      -0.11935996      -0.43068304      -0.23998470
Pb       3.33768012      15.04155423       8.40413393       0.08810737      -0.02258008       0.08093260      -0.02169480       4.68185952      -2.16277170
Pb      -0.69248953      15.11986432       8.70869841       0.22918367      -0.06948904       0.14280407       0.07588013       2.10200568       0.03344481
N        2.72946331       1.82783469       4.14042094       0.00920370      -0.93508055       1.93860351      -0.04544475       0.17409027       0.10244653
N        4.41186030       5.89201796       0.34862608      -0.12101769      -0.12219834      -0.15521879       0.33602859       0.57583242       0.19424896
I        5.08131804       8.47716162       6.80419938      -0.16049666       0.14330124      -0.05054371      -0.95410915       1.56458421      -2.58620948
I        1.14613477      13.93429182       6.31425414      -0.01069803       0.05964676      -0.28367738      -0.33869141       1.75332287       1.81600713
I        4.90156251       8.92629302       2.05016097      -0.03033622       0.13320286       0.20550225      -2.70945708       2.33592087      -0.93381423
I        2.13091652      13.40823093       1.83123788       0.03498467      -0.26405444       0.37780055       2.62657267       0.73186280      -0.61857664
I        5.80007262      12.25462720      -0.28426481       0.04385472      -0.05642661      -0.04727331      -0.22894924       1.49633210       0.12053375
I        0.99948353      10.07172981       4.85580256       0.00476692       0.26354896      -0.23357804       0.81357274       1.27181267       0.86416905
H        0.75116240       8.41198604       8.79395597       0.28080050       0.09764687       0.14970404       0.10741989       0.12476320       0.03627349
H        5.10757782      10.71264849       4.30541871      -0.03603623      -0.83835816       0.56810065       0.01217000      -0.09202309      -0.11299626
H        0.75194761       9.77315205      10.10894974      -0.23426618      -0.03632341      -0.71336863      -0.10100529      -0.01491106       0.00310501
H        5.58109970      12.25837047       5.37687037       0.09090479       0.28429949       0.42688361      -0.07782100      -0.05310070       0.07717020
H       -0.45938215       9.78548006       8.56545891       0.82061472      -0.26642811       0.51292758       0.04379018       0.01868225       0.06092608
H        4.33555640      12.34942668       3.92871497      -0.33773705       0.09081157       0.06069145       0.06392258      -0.01378315      -0.05186678
H        1.61140457      11.43647764       8.36161767      -0.54219451      -0.60964053      -0.00766305       0.03013802      -0.01652691      -0.14036371
H        7.30351335      11.87849826       3.50408253      -0.91528807       0.26900963       0.21324789       0.12583074      -0.02046385       0.11377683
H        1.32378710      10.18904465       7.13672290       0.40204777       0.18840984       0.26953973       0.10655559       0.07568063      -0.02800619
H        6.50456646      13.30658891       3.12218886      -0.27244733       1.03575581      -0.07229384       0.04412408       0.03322126      -0.06316170
H        2.60533298      10.07880731       8.38447047      -0.97271841       0.26724868      -0.24738263       0.14610134      -0.05923932       0.05353851
H        6.13754608      11.87206129       2.27635969      -0.10192754       0.26443067       0.15510807       0.05190319      -0.11220680       0.08782527
C        0.60116608       9.52183000       8.99199419      -0.73091589       0.68070207       0.48572204       0.45036848      -0.05740764       0.10822116
C        5.25245386      11.86865185       4.32692626       0.60875121       0.76956593      -1.29692384       0.79920291      -0.20320010       0.09258297
Pb       3.11178682       7.57421993       4.43011483      -0.31228962      -0.37276489       0.00914399      -0.31468521       0.14284100      -2.17978631
Pb       6.89751696       7.51575272       4.36503063      -0.10885684      -0.09548848       0.00508372       2.46055117       0.53858609       3.36685893
N        1.58096910      10.36883155       8.19313545       1.11110649      -0.15711514      -0.28946828      -0.45340884      -0.41448638       0.45685390
N        6.34829099      12.28523126       3.27119616       0.95082228      -1.88016145       0.01906718      -0.01889336      -0.42762395      -0.47001509
I       14.08066840       0.95239362       1.85769383       0.05024715       0.11051170       0.11380072       1.18149713      -0.19173524       1.02620712
I        8.52427058       6.43978785       1.99013549       0.17944567      -0.30136380      -0.30182766       0.40509340       2.07103161      -0.05846017
I       13.03762849       1.25758007       6.02679829      -0.24119422       0.20122036      -0.31942516       0.95856164       0.40849957      -0.65189938
I        8.83207743       5.97809976       6.42952074       0.01412591      -0.05264083       0.09732459      -0.52186878      -1.64380453       0.48342253
I       12.64102357       4.77429461       3.71172528       0.06940671      -0.17771510      -0.02536132       1.41307874      -0.81864729      -0.30687774
I        9.53736398       2.36958868       8.73547542      -0.12063218       0.02645020       0.10038403      -1.74010202       1.23722879       0.88532854
H        8.11538183       2.54970413       4.27066173      -0.26154587       0.05022290      -0.27659170      -0.11328446      -0.20212040      -0.19571274
H       11.96190420       4.92019451      15.66021116       0.00657178       0.23913285      -0.21256498       0.07323868      -0.00653531       0.01335099
H        9.36845504       2.73121390       5.55766562       0.10266224       0.04730555      -0.70995081      -0.08325629       0.00796930       0.19364560
H       14.50072568       5.08567840      -0.01497204       0.05071907      -0.36013588      -0.06824644      -0.13788826       0.15083271      -0.07654806
H        9.55990826       3.70225131       3.99198666      -0.35481766      -1.17037544       0.15405655      -0.06640676      -0.08967438       0.06944336
H       13.30589817       3.60343746      -0.18486206       0.30928319       0.94949970       0.17296348      -0.11732510      -0.16798224       0.02150591
H        9.97447012       1.68924173       2.77803490      -0.06550177      -0.25125713      -0.27968997       0.16157430      -0.02502861       0.08895030
H       11.50393758       5.48746898      -0.02719861       0.27092058       0.03930502      -0.27038920       0.01055157       0.09233460      -0.03328306
H        9.68459903       0.59424477       4.09466391      -0.28283085       0.70888312      -0.09446429      -0.17073535      -0.05318259       0.04571726
H       12.73451356       6.59498106       0.35014077       0.05498184       0.11394694      -0.14217183       0.00407809       0.06329947       0.16574019
H       10.92365011       1.68292672       4.13020094       0.53140194      -0.13052959       0.01348084      -0.11617641       0.04463077      -0.12719813
H       12.41896472       5.22557516       1.34257745       0.04700871       0.38921949      -0.19122121      -0.03196536       0.02807771       0.07565656
C        9.19221777       2.71636782       4.43609815       0.26284122       0.45551996       0.80574209      -0.73978533       0.41352983       0.19497434
C       13.48997864       4.72535432      -0.37663253      -0.03044928      -0.75067134      -0.28884392       0.37938431      -0.65175829       0.48560040
Pb      11.12325822      14.56613078       8.19722846       0.05468151       0.22510571       0.07439374       0.10803361      -1.62405337       1.74608670
Pb       7.30264307      14.61564112       8.37853481      -0.42364009       0.34534900       0.03122445      -0.27740385      -2.19379916       1.11236856
N        9.95642442       1.57557143       3.80795199       0.16648636       0.33064992       0.34674446      -1.12967090      -0.17399992      -0.48914799
N       12.47856533       5.57613911       0.32921580      -0.78274974      -0.59572131       0.70356969      -0.08360793       0.07870825      -0.19605146
I       12.83690883       8.27172725       6.34604331       0.03195680      -0.05103921      -0.08114102      -0.40899038       4.48721157       2.18819504
I        8.95197819      13.55645831       5.94241397       0.07399128      -0.03691625      -0.06187649      -1.94328770       0.15921437       0.47786353
I       12.45577416       8.88514394       1.93953498       0.12047239       0.09839714      -0.05770576      -1.88666871      -0.17884845       0.32118212
I        9.92182483      13.10175320       1.94241003       0.00011115      -0.09154958      -0.05615179      -0.62602148      -0.34352276      -0.45309819
I       13.91258035      12.12433279      -0.46287795      -0.06566764      -0.23516271      -0.14957297      -3.18059056       1.92465755      -0.45358404
I        8.95460316       9.94553021       4.46814026      -0.01732435       0.19822356       0.04835684       0.12614862      -0.99363563      -0.99055722
H        8.12636592       9.68319322       9.57199125       0.17327115      -0.46535799       0.90349134       0.04937839       0.10820779      -0.03195954
H       12.18172684      12.46938424       3.91560888      -0.65207057       0.17590376      -0.58705600       0.26081302      -0.16992790      -0.00615233
H        7.32527286       9.93645820       7.98778537      -0.06862953       0.15280718      -0.20745062      -0.09004809      -0.03532199       0.12156204
H       13.30020413      11.20221907       4.46670304      -0.13381498      -0.17453409       0.48624883       0.07040187       0.11042633       0.06920353
H        8.47855917       8.54280207       8.10640342      -0.02573251      -0.36314755       0.17887604      -0.06626032      -0.08483788      -0.22104072
H       13.49480386      12.96901269       4.96833762       0.11939917      -0.26192290       0.03356048      -0.04649196      -0.18963021       0.09169719
H        9.36549232      11.32532647       8.52104308       0.00670084       1.40763974       0.71982664       0.09876920      -0.07991977      -0.01556810
H       13.78870154      11.97122806       2.14729583      -0.07510340      -0.36011202      -0.35206375      -0.08197357      -0.05538955       0.14395515
H        9.58271991      10.52670829       7.07164239      -0.14933918      -0.28842356       0.14602070       0.05059339      -0.13220129       0.04162748
H       15.05743807      12.01583906       3.22837043       0.54717944      -0.30155667       0.18927883      -0.10532509       0.21066143      -0.03994413
H       10.32128469       9.99029268       8.53451090      -0.08576977       0.13038822      -0.09071632      -0.04218933       0.17218410       0.09453383
H       14.30166759      13.40542025       2.74105605      -0.06969762       0.77170357      -0.14633782       0.01377570      -0.23850312       0.05093786
C        8.26385878       9.56227088       8.48043364      -0.38308845       0.53312571      -0.76023159      -0.04911102       0.13211542       0.85170403
C       13.19860202      12.25722420       4.18076467       1.16714634       0.00632827      -0.07763445       0.90680589      -0.49362387      -0.53248472
Pb      10.65469172       7.21665576       4.17194404       0.27680135       0.14864819       0.11353019      -2.48835320       0.09160075       1.46900974
Pb      14.67869127       7.37913353       3.77205312       0.15833634      -0.34349679       0.10315985       1.08171347       0.70816290      -0.88846910
N        9.44327884      10.41142006       8.12219149       0.65906344      -1.11601434      -0.95195124       1.33281772      -0.10428408      -0.08544262
N       14.15116081      12.42089292       3.00683402      -0.88387681      -0.02063685       0.56001005      -0.15186537      -0.15486321      -0.17512585
I        5.59384498       0.87312592      10.86856272       0.08302253       0.10524558      -0.07708762      -0.04733726      -0.25538762      -0.75930105
I        0.33515710       6.28120789      10.82604700      -0.19401185       0.20505566       0.42298236       0.99314263      -0.85491532      -2.41608619
I        4.85304626       1.48178876      14.80274046       0.09967165       0.00154772       0.17604023       2.45621063      -0.95325150      -0.31578862
I        0.35257341       6.15497441      15.25093334      -0.02310552       0.17189969      -0.34194183       0.35281061       0.79324524      -0.65785289
I        4.26022772       4.99273174      12.42176116      -0.16958123       0.01746918       0.04526420       0.28314837      -0.38399965       0.59448086
I        2.38291722       2.68717559       0.67178754      -0.03605835       0.06454756      -0.07939229       2.01780129       1.66798662       1.98691282
H        1.51274663       3.85321336      13.38479804      -0.12378098      -0.76052093       0.01344464       0.02484212       0.03532062       0.04721292
H        4.81612198       5.36365133       7.18544976       0.28576821       0.03760310      -0.04190093      -0.04432463       0.14253463      -0.06583110
H        0.14192906       2.72138788      13.26314091      -0.74534656      -0.23904084      -0.60555360      -0.09262996      -0.12102042      -0.12100213
H        5.70038294       5.24568802       8.79936965       0.22094059       0.01807801      -0.20402696       0.12327550      -0.17195552      -0.00245811
H        1.23117663       2.57065437      14.59646851       0.34306664      -0.29757515       0.30464574      -0.05524421      -0.02973165      -0.05664363
H        4.44361389       3.97847668       8.31114988       0.40600753       1.10741970      -0.23023561      -0.13079820       0.13491660       0.11169824
H        1.94948981       2.21134541      11.73157126       0.10942800      -0.36457450      -1.47160820       0.06752189      -0.14242820       0.09078348
H        4.09876539       6.90203498       9.07170193      -0.34929906       0.07703274      -0.13950378      -0.04712730      -0.12097236      -0.05219759
H        1.57707973       0.85244109      12.77644340       0.81968795       1.22515866      -0.44079006      -0.29931476      -0.07747914      -0.04394877
H        3.40304155       5.55457733       9.88149204      -0.00373633      -0.11016588       0.27872568       0.12759246      -0.08836428       0.11940808
H        3.04168892       1.80315238      12.99854909      -1.23130165      -0.10313103      -0.10503944      -0.01644264      -0.16770025      -0.01035142
H        2.81938762       5.90338024       8.23380891       0.19061368       0.36308184       0.29184311      -0.19911974       0.13607244      -0.20103983
C        1.17903200       2.78721233      13.53156890       0.71921996       1.31557611       0.35563513       0.02172806      -0.26113454      -0.29825933
C        4.75506897       5.08420529       8.24498884      -0.52086487      -1.61138519       0.28962171      -0.11935996      -0.43068304      -0.23998470
Pb       4.06290204      15.02093930      -0.15283429       0.08810737      -0.02258008       0.08093260      -0.02169480       4.68185952      -2.16277170
Pb       0.03273239      15.09924939       0.15173019       0.22918367      -0.06948904       0.14280407       0.07588013       2.10200568       0.03344481
N        2.00424139       1.84844962      12.69738916       0.00920370      -0.93508055       1.93860351      -0.04544475       0.17409027       0.10244653
N        3.68663838       5.91263289       8.90559430      -0.12101769      -0.12219834      -0.15521879       0.33602859       0.57583242       0.19424896
I        4.35609612       8.49777655      15.36116760      -0.16049666       0.14330124      -0.05054371      -0.95410915       1.56458421      -2.58620948
I        0.42091285      13.95490675      14.87122236      -0.01069803       0.05964676      -0.28367738      -0.33869141       1.75332287       1.81600713
I        4.17634059       8.94690795      10.60712919      -0.03033622       0.13320286       0.20550225      -2.70945708       2.33592087      -0.93381423
I        1.40569460      13.42884586      10.38820610       0.03498467      -0.26405444       0.37780055       2.62657267       0.73186280      -0.61857664
I        5.07485070      12.27524213       8.27270341       0.04385472      -0.05642661      -0.04727331      -0.22894924       1.49633210       0.12053375
I        0.27426161      10.09234474      13.41277078       0.00476692       0.26354896      -0.23357804       0.81357274       1.27181267       0.86416905
H        1.47638432       8.39137111       0.23698775       0.28080050       0.09764687       0.14970404       0.10741989       0.12476320       0.03627349
H        4.38235590      10.73326342      12.86238693      -0.03603623      -0.83835816       0.56810065       0.01217000      -0.09202309      -0.11299626
H        1.47716953       9.75253712       1.55198152      -0.23426618      -0.03632341      -0.71336863      -0.10100529      -0.01491106       0.00310501
H        4.85587778      12.27898540      13.93383859       0.09090479       0.28429949       0.42688361      -0.07782100      -0.05310070       0.07717020
H        0.26583977       9.76486513       0.00849069       0.82061472      -0.26642811       0.51292758       0.04379018       0.01868225       0.06092608
H        3.61033448      12.37004161      12.48568319      -0.33773705       0.09081157       0.06069145       0.06392258      -0.01378315      -0.05186678
H        0.88618265      11.45709257      16.91858589      -0.54219451      -0.60964053      -0.00766305       0.03013802      -0.01652691      -0.14036371
H        6.57829143      11.89911319      12.06105075      -0.91528807       0.26900963       0.21324789       0.12583074      -0.02046385       0.11377683
H        0.59856518      10.20965958      15.69369112       0.40204777       0.18840984       0.26953973       0.10655559       0.07568063      -0.02800619
H        5.77934454      13.32720384      11.67915708      -0.27244733       1.03575581      -0.07229384       0.04412408       0.03322126      -0.06316170
H        3.33055490      10.05819238      -0.17249775      -0.97271841       0.26724868      -0.24738263       0.14610134      -0.05923932       0.05353851
H        5.41232416      11.89267622      10.83332791      -0.10192754       0.26443067       0.15510807       0.05190319      -0.11220680       0.08782527
C        1.32638800       9.50121507       0.43502597      -0.73091589       0.68070207       0.48572204       0.45036848      -0.05740764       0.10822116
C        4.52723194      11.88926678      12.88389448       0.60875121       0.76956593      -1.29692384       0.79920291      -0.20320010       0.09258297
Pb       2.38656490       7.59483486      12.98708305      -0.31228962      -0.37276489       0.00914399      -0.31468521       0.14284100      -2.17978631
Pb       6.17229504       7.53636765      12.92199885      -0.10885684      -0.09548848       0.00508372       2.46055117       0.53858609       3.36685893
N        0.85574718      10.38944648      16.75010367       1.11110649      -0.15711514      -0.28946828      -0.45340884      -0.41448638       0.45685390
N        5.62306907      12.30584619      11.82816438       0.95082228      -1.88016145       0.01906718      -0.01889336      -0.42762395      -0.47001509
I       13.35544648       0.97300855      10.41466205       0.05024715       0.11051170       0.11380072       1.18149713      -0.19173524       1.02620712
I        7.79904866       6.46040278      10.54710371       0.17944567      -0.30136380      -0.30182766       0.40509340       2.07103161      -0.05846017
I       12.31240657       1.27819500      14.58376651      -0.24119422       0.20122036      -0.31942516       0.95856164       0.40849957      -0.65189938
I        8.10685551       5.99871469      14.98648896       0.01412591      -0.05264083       0.09732459      -0.52186878      -1.64380453       0.48342253
I       11.91580165       4.79490954      12.26869350       0.06940671      -0.17771510      -0.02536132       1.41307874      -0.81864729      -0.30687774
I       10.26258590       2.34897375       0.17850720      -0.12063218       0.02645020       0.10038403      -1.74010202       1.23722879       0.88532854
H        7.39015991       2.57031906      12.82762995      -0.26154587       0.05022290      -0.27659170      -0.11328446      -0.20212040      -0.19571274
H       12.68712613       4.89957958       7.10324293       0.00657178       0.23913285      -0.21256498       0.07323868      -0.00653531       0.01335099
H        8.64323312       2.75182883      14.11463384       0.10266224       0.04730555      -0.70995081      -0.08325629       0.00796930       0.19364560
H       13.77550376       5.10629333       8.54199618       0.05071907      -0.36013588      -0.06824644      -0.13788826       0.15083271      -0.07654806
H        8.83468634       3.72286624      12.54895488      -0.35481766      -1.17037544       0.15405655      -0.06640676      -0.08967438       0.06944336
H       12.58067625       3.62405239       8.37210616       0.30928319       0.94949970       0.17296348      -0.11732510      -0.16798224       0.02150591
H        9.24924820       1.70985666      11.33500312      -0.06550177      -0.25125713      -0.27968997       0.16157430      -0.02502861       0.08895030
H       10.77871566       5.50808391       8.52976961       0.27092058       0.03930502      -0.27038920       0.01055157       0.09233460      -0.03328306
H        8.95937711       0.61485970      12.65163213      -0.28283085       0.70888312      -0.09446429      -0.17073535      -0.05318259       0.04571726
H       12.00929164       6.61559599       8.90710899       0.05498184       0.11394694      -0.14217183       0.00407809       0.06329947       0.16574019
H       10.19842819       1.70354165      12.68716916       0.53140194      -0.13052959       0.01348084      -0.11617641       0.04463077      -0.12719813
H       11.69374280       5.24619009       9.89954567       0.04700871       0.38921949      -0.19122121      -0.03196536       0.02807771       0.07565656
C        8.46699585       2.73698275      12.99306637       0.26284122       0.45551996       0.80574209      -0.73978533       0.41352983       0.19497434
C       12.76475672       4.74596925       8.18033569      -0.03044928      -0.75067134      -0.28884392       0.37938431      -0.65175829       0.48560040
Pb      11.84848014      14.54551585      -0.35973976       0.05468151       0.22510571       0.07439374       0.10803361      -1.62405337       1.74608670
Pb       8.02786499      14.59502619      -0.17843341      -0.42364009       0.34534900       0.03122445      -0.27740385      -2.19379916       1.11236856
N        9.23120250       1.59618636      12.36492021       0.16648636       0.33064992       0.34674446      -1.12967090      -0.17399992      -0.48914799
N       11.75334341       5.59675404       8.88618402      -0.78274974      -0.59572131       0.70356969      -0.08360793       0.07870825      -0.19605146
I       12.11168691       8.29234218      14.90301153       0.03195680      -0.05103921      -0.08114102      -0.40899038       4.48721157       2.18819504
I        8.22675627      13.57707324      14.49938219       0.07399128      -0.03691625      -0.06187649      -1.94328770       0.15921437       0.47786353
I       11.73055224       8.90575887      10.49650320       0.12047239       0.09839714      -0.05770576      -1.88666871      -0.17884845       0.32118212
I        9.19660291      13.12236813      10.49937825       0.00011115      -0.09154958      -0.05615179      -0.62602148      -0.34352276      -0.45309819
I       13.18735843      12.14494772       8.09409027      -0.06566764      -0.23516271      -0.14957297      -3.18059056       1.92465755      -0.45358404
I        8.22938124       9.96614514      13.02510848      -0.01732435       0.19822356       0.04835684       0.12614862      -0.99363563      -0.99055722
H        8.85158784       9.66257829       1.01502303       0.17327115      -0.46535799       0.90349134       0.04937839       0.10820779      -0.03195954
H       11.45650492      12.48999917      12.47257710      -0.65207057       0.17590376      -0.58705600       0.26081302      -0.16992790      -0.00615233
H        6.60005094       9.95707313      16.54475359      -0.06862953       0.15280718      -0.20745062      -0.09004809      -0.03532199       0.12156204
H       12.57498221      11.22283400      13.02367126      -0.13381498      -0.17453409       0.48624883       0.07040187       0.11042633       0.06920353
H        9.20378109       8.52218714      -0.45056480      -0.02573251      -0.36314755       0.17887604      -0.06626032      -0.08483788      -0.22104072
H       12.76958194      12.98962762      13.52530584       0.11939917      -0.26192290       0.03356048      -0.04649196      -0.18963021       0.09169719
H       10.09071424      11.30471154      -0.03592514       0.00670084       1.40763974       0.71982664       0.09876920      -0.07991977      -0.01556810
H       13.06347962      11.99184299      10.70426405      -0.07510340      -0.36011202      -0.35206375      -0.08197357      -0.05538955       0.14395515
H        8.85749799      10.54732322      15.62861061      -0.14933918      -0.28842356       0.14602070       0.05059339      -0.13220129       0.04162748
H       14.33221615      12.03645399      11.78533865       0.54717944      -0.30155667       0.18927883      -0.10532509       0.21066143      -0.03994413
H       11.04650661       9.96967775      -0.02245732      -0.08576977       0.13038822      -0.09071632      -0.04218933       0.17218410       0.09453383
H       13.57644567      13.42603518      11.29802427      -0.06969762       0.77170357      -0.14633782       0.01377570      -0.23850312       0.05093786
C        8.98908070       9.54165595      -0.07653458      -0.38308845       0.53312571      -0.76023159      -0.04911102       0.13211542       0.85170403
C       12.47338010      12.27783913      12.73773289       1.16714634       0.00632827      -0.07763445       0.90680589      -0.49362387      -0.53248472
Pb       9.92946980       7.23727069      12.72891226       0.27680135       0.14864819       0.11353019      -2.48835320       0.09160075       1.46900974
Pb      13.95346935       7.39974846      12.32902134       0.15833634      -0.34349679       0.10315985       1.08171347       0.70816290      -0.88846910