768
Lattice="31.343885341238796 -0.47746557187201905 -1.6062135899949226 -0.40744855527168355 29.62807268781774 -0.02279442302894619 -1.4504438450383712 0.04122985736401602 17.113936445534993" Properties=species:S:1:pos:R:3:forces:R:3:momenta:R:3 energy=-3315.2657354404555 stress="0.0 0.0 0.0 0.0 0.0 0.0 0.0 0.0 0.0" pbc="T T T"
I        6.50833121       1.52000634       1.95019578      -0.21548490      -0.13643252       0.08503856       1.41157043      -0.35917382       3.68248874
I        0.90597500       6.33554088       2.11513456       0.06787452      -0.01205517       0.10989623       1.65429881      -1.01387594      -0.15908942
I        5.50415778       1.52141539       5.86536067      -0.13105952      -0.16551774       0.32654209      -3.02303586      -0.47035681       1.47200123
I        1.29595511       6.50109402       6.56076370       0.24460212      -0.48539333       0.45170206       3.14832347      -2.45950835      -0.11007694
I        4.93107209       5.04683625       3.99904188      -0.16719784      -0.09696217      -0.03309012       0.95638040      -6.78758322      -3.07259246
I        1.52729660       2.71643316       8.97702128      -0.07046743       0.00381401       0.06154768       2.31518858      -0.85570042       0.54466181
H        1.52575599       3.89585798       3.91958443      -0.11028218      -0.17131748      -0.15386718      -0.09184907      -0.01097149       0.07475795
H        4.26195070       4.30444672      16.07210189      -0.14124317       0.67671541      -2.14896184      -0.04258001      -0.15957927       0.04424363
H        0.42853515       2.29184615       5.25572327      -0.64195375       0.28811618      -0.00895158      -0.14154418      -0.22547084      -0.11082187
H        5.61708555       5.17212734      17.28338745       1.13754493      -0.15816980       0.46199553      -0.10635252      -0.08567476      -0.06156377
H        2.57860451       3.17965006       5.91135966      -0.24726028      -0.16015364      -0.63316031       0.20236132      -0.00964355      -0.30482282
H        4.37031381       3.73115757      17.97079903       0.07300042      -0.14439103       0.14149479      -0.05915426      -0.13955524       0.21902869
H        2.14503649       1.94180144       2.83491230      -0.25530550      -0.10787266       0.24679101       0.06707763       0.02278140      -0.09158225
H        4.05024370       6.83198925      17.01489836      -0.70642955      -1.18936135       0.37722692       0.06019431      -0.13986560      -0.10585859
H        2.04192052       0.97598180       4.40554264      -0.16648651      -0.53582118      -0.67489509      -0.00736004      -0.08662728      -0.24454038
H        3.59633450       6.07143635      18.65361455       0.73107390      -0.10112553      -0.23866249       0.28913758      -0.59449091       0.00923034
H        3.27838399       2.00758252       4.11865448       1.48210453      -0.09577168      -0.36656906      -0.06628199       0.01553752      -0.09618214
H        2.74147116       5.68281397      17.24806363      -0.58428551       0.24926579      -0.55082679       0.03985449      -0.13492482       0.03400449
C        1.66456360       2.87172599       4.78623207      -0.72727255       1.52022757       0.78704374       0.72627499       0.68954028       0.26731792
C        4.55515551       4.69604958      17.18495182      -0.60757014      -0.96859365       1.60970994       0.07346042      -0.01293814       0.21284478
Pb       3.41708859      14.77063660       8.82320527       0.08852189      -0.42539665      -1.10686582      -1.56713757      -1.93819044       0.70270739
Pb      -0.44374804      14.65687011       8.54212059      -0.03197926      -0.12865619      -0.31714555      -0.42990446      -0.39116291       0.97469642
N        2.29497733       1.89450783       3.89011370       0.77414405      -0.54117801       0.79457807      -0.22199058       0.38039028      -0.22324482
N        3.70441022       5.88288646      17.56312890       0.12223952       1.54974722       0.14231324      -0.03770408       0.39332384      -0.00645211
I        4.84147413       8.83620891       6.51539383      -0.15677420      -0.29551801       0.24731691       0.05193083       2.43915684       2.00593848
I        1.55262105      13.90692286       5.95501713      -0.11645187       0.01228522       0.48381049       1.41493427       2.85746641      -0.31862911
I        5.14270627       9.19283769       2.02926275       0.06762900      -0.31080617       0.38050573      -0.79936022      -0.93113522      -1.53128300
I        2.06091064      13.25263060       2.18170908       0.14796822       0.25240423      -0.30073091      -1.61432436       0.89521607      -3.75142316
I        4.57619539      12.45670999      16.86719689      -0.06746383      -0.04891307       0.10811898      -0.77963774       0.66044458      -1.02101646
I        1.02379101      10.15017974       4.74195576       0.07719113       0.46446485      -0.24409106      -0.07109852      -2.03283712      -1.89741293
H        0.27576440       8.95424146       7.69178666       0.63894619      -0.14913849       0.58225168      -0.07543254       0.12743739      -0.10643759
H        5.13517470      10.98208402       3.94171890      -0.34035627       1.38602736      -0.78717502      -0.09349947      -0.34449983      -0.15352155
H        1.19571479       9.02269684       9.80473282       0.22302048      -0.10856886      -0.61732136      -0.28952066       0.06428349      -0.44836698
H        5.42388407      12.48352704       5.23279007      -0.51573485       0.77696071      -0.04801690       0.33160097       0.20050404      -0.50185363
H       -0.23454736      10.47479224       9.09089433       0.57398347       0.28285696       0.50648027       0.01513281      -0.13697245       0.18938011
H        4.31831788      12.57888877       3.33899121       0.87573532       0.18219734       0.68183220      -0.10192321      -0.03232211       0.05310924
H        2.20943076      11.22882411       9.17957919       0.10729880       0.32636642       0.03126452       0.12893760      -0.14652142       0.01891512
H        7.46179678      12.39433844       3.49874738       0.70695307      -1.31998269       0.13920775       0.06867619      -0.08428228       0.08069911
H        1.06356654      11.31841771       7.13610826       0.49931101      -0.04112808       0.92964736       0.29922647      -0.11184992      -0.03102918
H        6.89338696      13.94920569       3.32511769      -0.28803035       0.39466718      -0.49678349      -0.05702464      -0.17961195      -0.34641309
H        2.67618551       9.69140283       7.43309878       0.24226758       0.16100666       0.08793696      -0.14426598      -0.06808906      -0.25605282
H        6.35727104      12.72148276       1.97970560       0.30424030      -1.40483402      -1.89748900      -0.02466783      -0.08553437       0.14191527
C        0.73350912       9.69196311       8.76883699      -1.52100941      -0.16462058      -0.42319961       0.14090956       0.50503998      -0.04220936
C        5.24288654      12.22980261       3.96112085       0.13910265      -2.35779258       1.16045245       0.52882123       0.14248326       1.02814647
Pb       3.02762562       7.57382010       4.19875690       0.30015555       0.17094269      -0.15172295      -2.47210093      -3.47638826       0.27407132
Pb       6.86905126       7.57916510       4.30058757       0.35887514      -0.17942158       0.27637395       0.47101695      -0.90262757       0.80173639
N        1.75924999      10.55475276       8.11642569      -0.44003538      -0.44978529      -1.13286564       0.46598054      -0.39491183       0.43966356
N        6.60596783      12.78427843       3.13063915      -0.65319134       2.32437077       1.59136645      -0.07958234      -0.12623649      -0.63226924
I       14.57230328       0.46559786       1.84012948      -0.10903266      -0.37758258      -0.00696724      -1.43201881       1.95660765       0.84319060
I        8.66950425       6.04105383       2.30874891       0.22145010       0.06687583      -0.20838906      -0.81144813       1.24047949       2.99766137
I       13.39124654       1.26295203       6.06075426      -0.26814491      -0.10268049      -0.00201869      -3.98258251      -2.48182276       2.75280368
I        9.22203749       6.11616589       6.70773877      -0.43482370       0.11834865      -0.44158440       0.51729590      -0.66053767      -0.46678375
I       12.66843258       4.65641918       3.37357848       0.13800096       0.01794526       0.14722354      -2.76381664      -4.05011348       0.26275682
I        9.23480480       2.21115628       8.73144427       0.41351140       0.22887923      -0.06398286       0.72816813      -0.46968310      -2.50897574
H        8.49145786       1.68685119       4.68656146       1.83256530       0.21492843       1.05452369      -0.22418771      -0.00910953       0.02554541
H       11.56636578       4.50903023      15.15969062       0.09271385      -0.36212676       0.78646448      -0.08967030      -0.10434669      -0.00512508
H       10.31041797       2.27192109       5.63794201       0.15551092       0.50064947      -0.11261840      -0.09506965      -0.33764693      -0.13537857
H       13.28217689       4.81842667      16.14627708      -0.67994032       0.16901770       0.58641476       0.03136770      -0.16880928      -0.06094203
H        9.39584725       3.39780881       3.83300337       0.83119499       0.43841719       0.49360549       0.09518115      -0.01629960       0.16547133
H       11.79490670       3.57711373      16.90451994       0.31258974       0.63194727      -0.05023978       0.02414207      -0.21099920       0.08399374
H       10.45275543       1.59284944       2.54812646      -0.31768685       0.52951129      -0.00559494      -0.03241219       0.04343850       0.25209102
H       10.47308994       6.03056170      16.46299439      -0.77644122       0.12869476      -0.36667060      -0.04549715      -0.20417047      -0.31158179
H       10.50941896       0.44430901       3.87509695      -0.04580392       0.32450826       0.02297184      -0.26072767       0.11217238       0.11839093
H       12.14585764       6.54363920      17.10056542      -1.04590850      -0.08636132      -0.09160216      -0.10848847       0.14160974       0.05039404
H       11.61014061       1.76221420       3.84229242      -0.56882183      -0.35686154      -0.69578658      -0.02806053      -0.10449717       0.06862629
H       11.16684578       5.35123772      17.96476664      -0.29246720       0.17399136       0.73818504       0.16899171      -0.27990341      -0.04300051
C        9.69552439       2.30409325       4.56360547      -3.44194808      -1.34134381      -2.15568662       0.01049095      -0.22693549       0.09257525
C       12.04858252       4.57962843      16.31368168       0.08789145      -1.03486609      -2.33895581       0.06087855      -0.52181368      -0.19822422
Pb      11.24793422      14.62821355       8.29048171      -0.04182957      -0.27132950       0.12242013      -2.46474288       3.66655681       1.41866040
Pb       7.14731927      14.38344142       8.49797794       0.32575594       0.21898063      -0.51112008      -0.67237121      -7.55925382       1.32872290
N       10.58717975       1.48741358       3.59235412       1.60137069      -0.21240857       1.75567028       0.37675676      -1.55114830       0.50150519
N       11.36258182       5.69716390      16.99275889       2.34670124       0.42204614       0.77950014       0.47291309       0.33301688      -0.08371715
I       13.07698859       8.54933183       6.44180482       0.12165185      -0.37288375      -0.37641622       1.50020649       0.31617019      -1.23540208
I        9.32832084      13.62601111       6.09057767      -0.59809321      -0.14159723      -0.05050525       0.88054081       1.07739037      -1.26832996
I       12.40720853       8.68787741       1.68902055       0.31693780       0.02199127       0.30136531       1.94849488       2.17067061       0.61154089
I        9.90511267      13.43417992       2.14157563       0.04595446      -0.17901843      -0.31807639       0.10473120      -2.51912667       2.09441127
I       12.22054050      11.94417838      16.57286434       0.06373194       0.22878230       0.21541656      -0.92549937      -0.15339373       1.66218491
I        8.98589595       9.90889543       4.27924633       0.05435974       0.18586836       0.23098319      -1.84344678       0.27144696      -0.43501862
H        8.31358935       9.33650335       9.89956362      -0.36620909       0.29222528      -0.96014056      -0.02012950       0.23963351      -0.16109434
H       12.65949187      12.81107406       4.26082441      -1.13919902       0.55303550      -0.40326016       0.23629006       0.06586753      -0.36852760
H        7.26653589       9.69681980       8.32963896       0.05645351       0.04725753       0.70586247      -0.06346045      -0.18850285       0.31514761
H       12.90273964      10.51913080       4.09644000       0.29540125       0.81560143       0.45853095      -0.20512917       0.00257873      -0.31136662
H        8.18770160       8.20446010       8.45480572       0.66201168       0.41885878       0.22890356       0.01247347      -0.08240631      -0.27200907
H       14.32423460      11.91702236       5.43884942      -0.06347189      -0.26675372       0.40188027       0.46724536       0.08008035       0.14964154
H        9.02711060      11.16428058       8.11711009      -0.10810324       0.99406512       0.21579826       0.30391667      -0.12440460       0.14181457
H       13.86255984      11.73146095       2.16250786       0.04078159       0.70735577       0.04987697      -0.03034012      -0.09568536      -0.03076078
H        9.27676367       9.65950998       7.01836276       0.77302925       0.29869302       0.57453148       0.14962488      -0.13459609       0.08175533
H       15.29086507      11.41915138       3.15006586      -1.07709136       0.47654467       0.05597888      -0.03566810       0.24990593       0.01880374
H       10.29485467       9.98224662       8.75600197      -0.62261440      -0.24198837      -0.56399180      -0.05507479       0.36190200       0.11547478
H       14.59821855      13.21352327       3.03430157      -0.17261030      -2.74807550       0.48001421       0.10965811       0.31955281      -0.24945576
C        8.20239864       9.27257520       8.77918458      -0.10927903      -0.25005183       0.26038249      -0.48237032      -0.30963640      -0.36330338
C       13.48118947      11.82763593       4.37059945       2.11034943      -1.33820146      -1.78622926      -0.52399502      -0.35500029       0.87781150
Pb      10.86602950       7.22564303       4.35318645      -0.04753590       0.00712157      -0.23274578      -0.44962220       0.69806135       0.97564347
Pb      14.69315088       7.18229111       3.89905413       0.31332848      -0.14447489      -0.45352428       1.43744151      -0.43226561      -0.13064375
N        9.29810041      10.06836227       8.10661379      -0.08276544      -1.42640998      -0.60479844       1.34068215      -1.42387158       0.11205899
N       14.37214409      12.04950640       3.08397305      -0.20527914       1.90053163       0.44120368       0.36370637      -0.98304720       0.65882165
I        5.62442633       0.97479476      10.59795105      -0.27848969       0.22266831      -0.22727352       0.01809742       3.31342489       3.86583843
I        0.70066050       6.74370058      10.85530002      -0.14334166      -0.27561645      -0.28265885       1.81513810       1.14005843      -2.00623636
I        4.96652038       1.57304500      14.69648591      -0.27276351       0.12490302      -0.11187630       1.60380094       2.67475286       1.99722412
I        0.97913950       6.04192407      15.03992815      -0.11038902      -0.15511040       0.36365154      -0.39270221       1.85832991       1.96199602
I        3.70751959       4.90955859      12.67434598       0.77686836      -0.21742509      -0.19258649       0.25039263      -2.06575925       1.51233023
I        2.54897971       2.79023731       0.43111727      -0.23360211      -0.00648352      -0.04534399       0.04138220       5.17333718      -0.03640248
H        0.51695737       3.81149301      12.06706678       0.12403908      -0.76556109       0.17075252       0.45573148      -0.06954467      -0.03893004
H        4.88894314       5.14192152       7.23601022       0.44508088      -0.14488028      -0.04320915      -0.54966643      -0.05695126       0.07285761
H       -0.31473050       1.88331882      12.62637337       1.05707515       0.40931700       0.29730788       0.23778309      -0.19609506       0.16685396
H        6.34871599       5.31849847       8.52027096      -0.34528032       0.20555620      -0.41524586      -0.04995216      -0.06795050      -0.08211612
H        0.87297274       3.02238927      13.94753097       0.33088407       0.27000024      -0.16411600       0.13246174      -0.24992868      -0.00749072
H        5.17872476       3.85527993       8.67147830       0.07642642       0.38668269      -0.25169292       0.21548213      -0.04461218      -0.04732457
H        1.83539216       1.68625283      11.43982481       0.46610430      -0.39465851      -0.26675489       0.19199104       0.04234276       0.00482790
H        4.49776005       6.82482636       9.09299898      -0.40096484      -0.78894673       0.42226977      -0.00484569      -0.06296100      -0.14997367
H        1.78139597       0.81082592      13.03636992       0.25610499       0.24030796      -0.43686531      -0.02335443      -0.18389660       0.14159932
H        4.21142900       5.46921157      10.17149150       0.20514063       0.24171806      -0.30867326      -0.20814867      -0.00666707       0.07699129
H        2.83876245       2.15621559      12.82980269       1.53840452       0.33150160       0.34049148       0.02132513       0.11410517       0.17616980
H        3.25472090       5.70556685       8.81078716       1.09003597      -0.13105854       0.17623023      -0.03858557       0.07538799      -0.03640811
C        0.72145228       2.71620144      12.80698951      -1.91398854       0.23989337       0.26490655      -0.44352559      -0.20216734      -0.86770078
C        5.26642058       4.96896054       8.31148436      -0.78988095      -0.48100327       0.64011682       0.24047327      -0.09066293      -0.26012379
Pb       4.27345208      15.07573689       0.07392806      -0.11180328      -0.04713536       0.18444294       4.90625610       0.77848297       2.98028496
Pb       0.22479180      14.76580221       0.09012899      -0.31075807      -0.01059597      -0.02495575      -2.61169309      -0.38628523       3.75767645
N        1.92654924       1.78076318      12.49618699      -1.90567770      -0.41368748      -0.06838887      -0.29644612      -0.58474752       0.31452180
N        4.25860046       5.77927746       9.15329193      -0.54260271       0.68565694      -0.58516743       0.73948346      -0.49753023      -0.88847798
I        4.80749885       8.41894497      15.33307785       0.08451058      -0.03251287      -0.13248121       0.90114715       0.11776770       1.22013035
I        0.91924882      14.41304111      14.73294342       0.04127694      -0.33524463       0.13146511       0.91516026      -2.36641501      -0.58023821
I        4.77134295       8.95420439      10.59183353      -0.21780033       0.00244251       0.08908084       3.00062243      -3.09904254       1.22193882
I        1.53398471      12.76451353      10.57538799       0.03280891       0.52972896      -0.05550710       3.03533631      -2.82141965       0.13700895
I        5.49068773      12.03718689       8.13862656      -0.41442042       0.18711981       0.22051637      -2.88393266      -1.72052596       2.56123625
I        0.88582296      10.38438329      13.30906298      -0.55776262      -0.17529189       0.31789291       2.53993368       3.06501271      -0.73282931
H        2.56020976       8.08922491      -0.09216510       0.17141132       0.65970332       0.18910552      -0.03986738      -0.17315578      -0.32151345
H        4.68523834      10.39639601      13.34617720       0.15503703       0.66160914      -0.06352790      -0.17835207       0.29869285      -0.00947909
H        1.63921079       9.16334925       1.43986758       0.36189506       0.22198700      -0.11696044      -0.18831804       0.23728535      -0.35503988
H        5.77993890      11.81164741      14.35652632       0.52388128       0.91546212       1.34900183      -0.13368863      -0.03692231       0.16661151
H        0.51698378       8.98141552      -0.18015931       0.93185131      -0.31295652       0.21103194       0.14143386      -0.00703194       0.03727275
H        4.02179139      12.44479477      13.47338151       1.24410127      -0.39703471      -0.31986597       0.10852430       0.01723603       0.32828265
H        1.99187585      11.60522441       0.35356941       0.06505761       2.11333654       0.86555876       0.14352542       0.12781917       0.32101192
H        6.76608538      11.59818395      12.40449181       0.05030268       0.22395006      -0.58453868       0.22012059       0.10591154      -0.15565535
H        2.85790110      10.59134988      -1.12235247      -1.08978156       0.46281355       0.91512522       0.16976027       0.01252826       0.00986894
H        5.68784310      12.86175174      11.81050936       0.14276859      -0.28516342      -0.36698478      -0.25265039       0.24105962      -0.12378317
H        3.70232648      10.63943792       0.40856261      -1.96772837       1.62413064       0.10386157       0.09964682       0.14232360       0.04072353
H        5.40827299      11.10575143      11.51545050       0.29133785       0.42772566      -0.60514033       0.02821618       0.19958238       0.05047900
C        1.79011691       9.12651595       0.32102135      -0.92512557       0.81084448      -1.22984354       0.43061222       1.05948363       1.93857231
C        5.02880658      11.62107328      13.39944535      -2.11486133      -0.69028168      -0.01517005      -0.27475717       0.00174574      -0.38552385
Pb       2.57031878       7.78068063      13.10827086       0.09819898       0.16017109      -0.16683096      -4.98910805       0.46850047      -1.78224345
Pb       6.37209637       7.05428031      12.51149142       0.21629915       0.35429625       0.54351276      -0.62790485       1.46848135      -2.01440563
N        2.56997150      10.69161328      -0.02568067       2.41045998      -5.37422815      -1.16840926      -0.18103319       1.03997247       0.24710415
N        5.78134861      11.86752155      12.14758028      -0.31146619      -0.74085060       0.17481802       0.24308286      -1.08551022       0.81521371
I       14.03981586       0.41267446      10.53635675      -0.38625327       0.03734469      -0.00196460      -0.74205352       0.50980352       1.27925453
I        8.25917788       5.89767966      10.34027216      -0.25679136      -0.06042262       0.21471489       2.88543734      -0.45499025       2.82658368
I       12.70306187       1.18231071      14.67675204      -0.09418682       0.14533032      -0.34053674       0.42389933       0.11035995      -1.45085029
I        8.41916709       6.02821743      15.09091289      -0.11137086      -0.05062059      -0.18016775      -1.68920123       1.41803089      -1.67360317
I       11.83480396       4.88564524      12.11978444       0.77461768      -0.20464200      -0.03506213       2.27577940      -4.99149794      -2.82952043
I       10.37315879       2.36817123       0.34913062       0.36010582       0.12720163      -0.23014276       2.38161518       0.91742406       2.78863016
H        7.56389766       1.75886989      13.23055799      -0.41007008      -0.07289615      -0.85711990       0.33155804       0.31972353      -0.05277263
H       13.42716331       5.01372331       6.76939491      -0.19616990      -0.38043398      -0.66487138      -0.11009948      -0.12113805       0.24039895
H        9.10295448       2.27414773      14.19660104       0.38469589      -0.48532421       0.98106362      -0.08315647      -0.01796524      -0.20912059
H       14.12053722       4.01161568       8.37953754      -1.94154013       0.24770142      -0.13966812       0.08054728      -0.11491815      -0.01639748
H        8.70893738       3.31067909      12.69334740      -0.29646316       0.33466445      -0.35367422      -0.05368505       0.41948925       0.20506285
H       12.23871572       3.62673366       7.63068467      -0.17883106      -1.81330911      -0.27924996      -0.18221804       0.04952499       0.22588688
H        9.50922305       1.67499678      11.28655526      -0.22798041      -0.23239382      -1.74489642       0.11475912       0.39718240      -0.03520183
H       11.44157609       5.78839331       8.04643649      -0.63111231      -0.60895699      -0.04591081      -0.11766488      -0.02721816       0.12839803
H        9.78073264       0.32683656      12.52626991      -0.33697988       0.61640505      -0.12871433      -0.09388869      -0.08872596      -0.16348148
H       12.87669420       6.43675361       8.43374639       0.08445907      -0.24649054       0.67949293       0.04017855       0.02818976       0.03309162
H       10.74391210       1.84067352      12.39253524      -0.18775058      -0.08853592       0.14460999       0.04939047       0.11977020       0.52376741
H       12.26846957       5.19220051       9.50948785      -0.36937784       0.46852005       0.40121035      -0.10093062       0.28923747       0.20795542
C        8.67242285       2.25072696      13.13876059       1.30116316      -0.66178518      -0.35363835      -0.47458435       0.20475172      -0.14775238
C       13.09003437       4.44640871       7.76215227       1.41509103       1.23544090       0.62822592      -0.13140169       0.32616465      -0.54412756
Pb      11.95851261      14.57089666      -0.24299188       0.27267575      -0.03248150      -0.26378193       3.56767476      -0.44255064       1.69982211
Pb       8.04570828      15.03443342      -0.13954717       0.10456549      -0.09339113      -0.14559618      -4.01235392      -0.60688453       0.12943901
N        9.70904595       1.43684287      12.26119296      -0.06089516       0.90997038       2.32172538      -1.10655599      -0.74105311      -0.60102678
N       12.36266564       5.51488600       8.51901976       1.60357757       1.22753365      -0.49206978       0.37579189       0.02707968       0.39451612
I       12.19580478       8.42333057      14.67487056       0.27584590      -0.04435858       0.14043048      -0.95681709       0.93388382      -1.44982078
I        8.53416633      13.62725447      14.55831534      -0.10719679       0.11221995       0.23199535      -0.17285094       0.53037552       2.07859804
I       11.93510168       8.90749357      10.35779359       0.08155432      -0.14168043       0.06213599      -4.72260680       1.86228274       0.61082448
I        9.39243459      12.92456257      10.31174612      -0.19813143       0.05850313       0.19645176       1.86291063      -1.76185808       0.06046244
I       13.36577610      12.07937506       8.13245434      -0.02834477      -0.00269960      -0.29415910       2.88582629      -2.39125965      -0.37056608
I        8.55310401       9.83713375      13.12476545      -0.65577204      -0.01859658       0.00937519       0.77998294       1.21935897       0.18955990
H        8.21205969      10.01837757       1.01787088       0.20607033       0.08093458       1.09040222       0.20358296       0.03297445       0.03531428
H       11.92141378      12.50027596      12.58207117      -0.57104414       0.11208355      -0.38931774       0.10253262      -0.65884945      -0.25037302
H        7.86221248      10.59441616      -0.90367880       0.45752631       0.77836898       0.45836599      -0.10579881      -0.06823339      -0.27666501
H       12.36106696      10.40763935      12.53111742       0.23942786      -0.74037743       0.48077810      -0.37665387       0.16234656       0.13486742
H        8.60551359       9.05336551      -0.55428745       0.18666291       0.07149565       0.81948552       0.33260460       0.16808102      -0.31814964
H       13.55440954      11.80846063      13.68435031      -0.34281024      -0.14831656       0.79127756      -0.03574907       0.15953125       0.06746406
H       10.27878806      11.44680885       0.23696610      -0.18983187      -0.52491198      -0.72297430       0.01663639      -0.20756543       0.20229966
H       13.25535186      11.66914897      10.53946391      -0.22045782       0.17144504      -0.27695577      -0.39290602      -0.17242795       0.27225621
H       10.37681556      10.67904932      -1.29411450       0.86150764      -0.50752512      -0.03710114       0.03559090      -0.14032327       0.10804621
H       14.71948301      11.63793605      11.31526464      -1.33780035       0.28335848       1.18234920       0.01993620       0.21041591      -0.25903839
H       10.88747600       9.94031428       0.45403467       0.25748679      -0.80286088      -0.76085733      -0.04416603      -0.47881928       0.04655665
H       13.59943409      13.06867809      11.46400628       0.43115962       2.02305335      -1.22705620       0.07470857      -0.24891818      -0.00805417
C        8.62734234      10.06408522      -0.08556675      -0.57562519      -2.14361535      -2.57564551       0.46222179      -0.15062347       0.16504956
C       12.79792591      11.61059510      12.67107206       1.54032229       0.85607399       0.19796030       0.47997420       0.45718295      -1.16894118
Pb      10.13420363       7.25768855      12.64435636       0.15619345       0.04979244       0.00059210       1.36479484       4.14228729       4.31541294
Pb      14.23866504       7.60692185      12.45686158      -0.12112411      -0.49146004      -0.21916136      -2.08652310       3.16744916       3.37915612