768
Lattice="38.36233378009021 -0.17091669423460434 -0.23415642229604455 0.13860846621712591 21.550492846406996 -0.023849043928523623 -0.012701609790407587 0.03213069133637567 18.81004073834508" Properties=species:S:1:pos:R:3:forces:R:3:momenta:R:3 pbc="T T T"
I       17.49598943       4.37747130       2.70674541       0.05464905       0.03844291       0.13832348       0.47742640      -0.01940550      -1.61887576
I       17.35297258       7.78988413       0.43145881      -0.22691252       0.27221732      -0.08748453      -2.17220467       1.02361603       0.29140883
I        7.43279401       9.71199079       2.87593842       0.04030698       0.04180127      -0.21645862       1.42323681       1.14218341       0.38698794
I        7.58646532       2.62955866       0.33580027       0.24525855       0.03329504       0.26783556      -0.51234438       2.25232650       1.26499525
I       15.36497984       1.26501645       0.79287258       0.02300753      -0.12737566      -0.19524685       0.71377864      -0.24948373      -1.78330294
I        0.36625513      11.09767536       2.88852878      -0.50575143      -0.18547887      -0.03585920      -0.03277852      -0.86868698       0.26575552
I        9.65918015       6.53753295       0.37944110       0.06699886       0.17497102      -0.00374303       0.26648835       1.33216012       1.38261946
I        5.66503028       5.74274302       2.95429833      -0.03308488      -0.05479716      -0.01423821       0.01350875      -1.59402874      -0.53808836
I        2.27509612       3.80261807       0.59721421      -0.13521851      -0.05121206      -0.13204294      -0.67375919       0.67614432       1.16877096
I       13.15406105       8.68489074       3.05073992       0.34058230      -0.13898352      -0.18718856      -1.13942233      -1.30370964      -0.37649248
I        3.56533051       9.05537212       0.37352058       0.19635416       0.03933476      -0.02347359      -0.54350542      -0.29242062       1.39034074
I       11.72161543       3.08566606       2.92265334      -0.09273004      -0.03134656       0.01365435      -2.18902244       1.54617456       0.66515909
H        4.78470327       2.89249273       2.22816830      -0.00507010      -0.25165034       0.25805333       0.10557160      -0.00852175       0.04289178
H       10.53549232       9.81239031       1.64001382      -0.11047980      -0.26014592       0.31586403      -0.02207630       0.00566337      -0.27266407
H        1.17460444       8.19978982       4.04154607       0.28316695      -0.05524786      -0.00339970      -0.28206147       0.05678142      -0.12594876
H       14.41568825       4.22216563       0.14006681      -0.09055612      -0.31698580      -0.46603441       0.06776404      -0.23737936       0.06851289
H        5.46898923       1.69462979       3.53473618      -0.13741912       0.08540528      -0.36993465       0.15933339       0.10461629       0.03930316
H       10.00062197      11.52812733       1.35839140      -0.25815123       0.35345766       0.06931653      -0.04417438       0.12132693      -0.00317432
H        0.04805418       7.66042789       2.76231981      -0.57816262      -0.11187151      -0.44255201       0.09006814      -0.08300801       0.25683458
H       14.78377510       5.98765339      18.66843038       0.98657391       0.79937338      -0.59247823       0.01062151       0.24215635       0.04138957
H        5.09534825       1.09011725       1.82576797      -0.18138392       0.36748025       0.21024852      -0.09235375       0.04486546       0.10252749
H        9.95359138      10.25495559      -0.02477624      -0.13716434       0.37964714       0.46721665       0.03393144      -0.03417632      -0.12156644
H        0.52650000       6.57305574       4.11606227      -0.58542460      -0.91847863       0.50858875       0.07899075      -0.03058428      -0.05558751
H       15.05770441       5.15022348       1.47668556       0.84615853       0.13177438       0.66569205       0.19453554      -0.10087826      -0.00549998
H        3.30404773       0.32830628       3.25669065       0.22003292       0.01102508      -0.02970243       0.13759833       0.05142261       0.03875146
H       11.91918013      11.83674346      18.72028329       0.21202894      -0.04700394      -0.09268299       0.07027193       0.06519850       0.07382749
H        2.23538989       7.57142409       1.84950999       0.64450559       0.14843263       0.14257118       0.00919305       0.18812869      -0.22650787
H       12.49376937       5.84964366       0.09512731       0.41391385       0.07791463       0.23800483       0.00154866      -0.02446054       0.03111323
H        2.64828104       1.70590389       2.20264086       0.02167389       0.01001724       0.25867372       0.09320754      -0.07025814       0.00169373
H       12.18080313      10.13287819      18.69258666       0.38013411      -0.18168591      -0.52153791       0.08467472      -0.00430489      -0.08281394
H        1.81873220       5.99540622       1.97456790      -0.46586359      -0.47280027       0.03006865      -0.15668062       0.11000973       0.00446268
H       13.05591171       6.54999306       1.53274702       0.08315331      -0.33187855      -0.26938030      -0.09032322       0.00712815      -0.10966353
H        3.14596846       2.01345125       3.94663009      -0.05901115       0.04079115      -0.40799952       0.17817430      -0.11347940      -0.03612506
H       12.59959862      10.95410305       1.24396833      -0.53856239       0.05662623      -0.40461180       0.06521146       0.08484588      -0.09970396
H        2.87433093       6.57754537       3.12617674       0.39612892       0.14107093       0.36846019       0.08076698      -0.16700803       0.04863028
H       12.52949026       4.90699737       1.46500522       0.51519603       0.38715192      -0.10416355       0.02515230      -0.17291690       0.23457980
C        4.76961179       1.81858381       2.62246123       1.10182448      -0.22826861      -0.19717865       0.02846372      -0.00219882       0.02237512
C       10.46478766      10.63774926       0.91581010       0.49151904      -0.69092513      -0.80777758      -0.18261129       0.41247963      -0.07007224
C        0.85364524       7.32540248       3.44061585       0.18275509       0.70541780       0.06452810       0.01481499       0.29056907       0.38834726
C       14.48787594       5.22798736       0.57120749      -2.16932309      -0.34202611       0.38718451      -0.07542340       0.12290875      -0.58741613
Pb      37.69498786       2.29023924       0.26311523      -0.11954363       0.19089868       0.13105362       0.72988191       0.58860128      -0.30041770
Pb      16.29652688       9.67410901       2.71924719       0.05776572       0.05735127       0.23996365      -0.07347286      -1.07899160      -0.33460834
Pb       6.61259918       7.74348820       0.53343242      -0.28998244       0.27269137      -0.04634530       2.60681078       1.33776541      -1.93282292
Pb       8.72583551       4.40253185       2.83107802      -0.02656675      -0.21198405      -0.01768006       0.74455735      -0.80771059      -1.55913705
N        3.40839069       1.43266774       3.01888598      -0.78847791      -0.23356616       0.29421005      -0.02234809      -0.39040076       0.28528522
N       11.88525105      10.90747243       0.46040682       0.06437392       0.42867025       0.79478208       0.03655327       0.47674465      -0.35237373
N        1.99619780       6.82024411       2.57735047       0.27503950       0.45344858      -0.53744526       0.40704298      -0.03814733       0.23546496
N       13.07955024       5.66888670       0.94661775      -0.63558366      -0.36143273      -0.13240090      -0.13218647       0.21888668      -0.45064628
I       17.28063698       4.10369908       7.47698399       0.05421392       0.11921223      -0.06230007      -0.69579778      -2.13727529      -1.45049238
I       17.17511131       7.96477911       5.36251211       0.06252771       0.01389786      -0.12308190      -1.45508858      -0.77204599       3.11344509
I        7.41727017       9.90468982       7.61819907       0.12988856      -0.20881172       0.03810640       0.20689414      -0.27735610       0.83199292
I        7.87011221       2.41692961       5.01167827       0.10014803       0.25597036       0.38822638       0.45561626       1.77951898       0.21289945
I       15.18658068       1.17375540       5.10897337       0.36065996      -0.03555175      -0.07243857       1.45627873      -0.03934250      -0.81093148
I        0.12017132      11.22315282       7.59644135       0.09979517      -0.23316094      -0.10361492      -1.70303736       0.09884707      -0.13891173
I        9.63600340       6.54500310       5.12743501      -0.03270736       0.15901711      -0.02611839      -0.17566334      -0.24844111       2.36874992
I        5.84086705       5.61070763       7.40748710       0.07838957      -0.09026894       0.18913308       0.77283844      -0.71468577       1.51047878
I        2.07306407       3.90208189       5.18195849       0.13371280      -0.11375727       0.14272808       0.73546431       0.30969469       0.28513414
I       13.28909693       8.44257327       7.60255285       0.11744263       0.18125675       0.10745086       1.01118708       0.09664953       1.33975835
I        3.52332509       9.12806584       5.25079247       0.13756724       0.07626619      -0.06498829       0.98407169      -3.07756282      -1.15735425
I       11.99346691       2.99514372       7.51957347      -0.29075824       0.13117763       0.13189761      -1.65935936      -1.51271161      -0.47860021
H        5.25806294       0.94573774       8.65193721      -0.70013347      -0.13007925      -0.18001206       0.05015930      -0.07638991       0.09800740
H        9.90524416      10.31482148       5.76213192       0.20047348       0.21714051       0.14950663      -0.25575020      -0.11386480       0.12787895
H        0.88614769       8.01701464       7.01322280      -0.15062613      -0.30806472       0.33344587      -0.13499304       0.10846225       0.04810408
H       14.57420989       4.54358807       6.26463199      -0.40522383      -0.32723480       0.02420813      -0.25708086      -0.05773786      -0.00699150
H        5.48863574       1.63960530       7.03615125       0.36908206       0.36300501      -0.31501779       0.06782109      -0.19221973      -0.02492086
H       10.15155147      11.13427152       4.18924684      -0.09377569      -0.03675151      -0.07731125       0.12331732      -0.02062195      -0.01632715
H        0.16563122       6.36058476       7.11836010      -0.07411889      -0.04396333       0.03017854       0.30595982       0.02376379      -0.05697886
H       15.13766363       5.21472198       4.72189952       0.45661953       0.25692327      -0.27250262      -0.01229029       0.04082582      -0.22239182
H        4.72444621       2.68246832       8.36694538       0.32175434      -0.61095455      -0.41758814      -0.27696261      -0.07193558       0.04720620
H       10.64753298       9.42613465       4.45517074       0.27624830      -0.89890418      -0.75639169      -0.00608890      -0.13669906      -0.19307182
H        0.58348941       7.25088629       8.77627456       0.18616838       0.06369241      -0.21849465      -0.19146387      -0.08092026      -0.00447647
H       14.77985482       6.30912350       6.17947041       0.42576932       0.11704210      -0.39828295       0.21691877      -0.21533908       0.09622335
H        3.01891029       2.05183519       6.77088684       0.71174312      -0.68167964       1.00352662      -0.15199291       0.09799539      -0.06409571
H       11.92183247      11.84693478       5.74866713      -0.16966699      -0.25374612      -0.16115516      -0.05245431      -0.01822883      -0.00434801
H        3.21307722       7.21542174       7.89049948       0.07291064       0.00562038       0.57066511      -0.08316212       0.05917152      -0.11917001
H       13.04373872       6.38794212       4.25679476      -0.05618754      -1.21686968       0.61089099      -0.02429225      -0.07689375       0.12957425
H        2.78052258       1.14752520       8.17918733      -0.43507072       0.32314923       0.74151274      -0.13861809      -0.06932326      -0.15767416
H       12.56994891      10.97669484       4.45855293      -0.08414041      -0.31772166       0.30161689       0.18282028      -0.06862289       0.02634852
H        2.72191694       6.09977921       6.51711607      -0.32405506       0.17887120       0.13007165       0.04292098      -0.15545088       0.05728032
H       12.44564960       6.03292459       5.82677411       0.50408358      -0.39721808      -0.17425410       0.10859742       0.10409441       0.14773699
H        3.32372863       0.38288456       6.90173166       0.79944940       0.06297401      -0.12711582       0.10643890       0.19173020      -0.10843403
H       12.31771991      10.24060750       5.97749710       0.72108189      -0.62253572       0.27165378       0.04161938       0.05393432      -0.00081227
H        2.44409008       5.63579379       8.23424636       0.24613823       0.61908253      -0.04180959       0.28394366       0.21070287       0.08148036
H       12.70028706       4.61632866       4.75872851      -0.24051953       0.89603484      -0.07585398       0.18183836      -0.07349326       0.09150917
C        4.82590177       1.65076156       7.91289822      -0.55286613       0.70767168       0.29177485      -0.14267288       0.07417628       0.10188717
C       10.57141305      10.40136656       4.88752367      -0.30701701       1.10287723       0.58367801      -0.59613946      -0.35497840       0.05023475
C        0.89275367       7.07645956       7.62634458       0.75775452       0.07238070      -0.31666371      -0.81965488       0.43299517       0.48902597
C       14.50938501       5.42094485       5.57606746      -0.38081712       0.27777712       1.03657943      -0.46703525       0.30648134       0.23912088
Pb      37.57304306       2.32151739       4.80633799      -0.23912227       0.08820130       0.16202926      -2.06516299       0.05841223      -3.41875623
Pb      16.34103906       9.97690173       7.51550125      -0.44219825      -0.22006989       0.16677795      -2.73039050      -1.28660504       1.95157516
Pb       6.53160618       7.91370462       5.33476348      -0.08899287       0.11837217      -0.08644793       1.80090414       1.40934217      -2.05813771
Pb       8.97066363       4.43300733       7.53537352      -0.04699805      -0.48970595      -0.33525075       0.78828051      -1.78956460       1.20670752
N        3.44644444       1.30257715       7.43129584      -0.57801225       0.07283639      -1.14026605      -0.71613819       0.03913435      -0.23882488
N       11.93154448      10.88929224       5.28325853      -0.64347746       0.87087240      -0.12584932      -0.48732179       0.28625925       0.59791469
N        2.42907642       6.47784376       7.57233912      -0.58115205      -0.57349892      -0.50958341      -0.34739617       0.80958712       0.20383577
N       13.08913908       5.62413420       5.08710939      -0.37866337       0.36566320      -0.74851880       0.32484641      -0.20415330      -0.02243926
I       17.48963863       4.39353665      12.11176578       0.05464905       0.03844291       0.13832348       0.47742640      -0.01940550      -1.61887576
I       17.34662178       7.80594948       9.83647918      -0.22691252       0.27221732      -0.08748453      -2.17220467       1.02361603       0.29140883
I        7.42644321       9.72805614      12.28095879       0.04030698       0.04180127      -0.21645862       1.42323681       1.14218341       0.38698794
I        7.58011452       2.64562401       9.74082064       0.24525855       0.03329504       0.26783556      -0.51234438       2.25232650       1.26499525
I       15.35862904       1.28108180      10.19789295       0.02300753      -0.12737566      -0.19524685       0.71377864      -0.24948373      -1.78330294
I        0.35990433      11.11374071      12.29354915      -0.50575143      -0.18547887      -0.03585920      -0.03277852      -0.86868698       0.26575552
I        9.65282935       6.55359830       9.78446147       0.06699886       0.17497102      -0.00374303       0.26648835       1.33216012       1.38261946
I        5.65867948       5.75880837      12.35931870      -0.03308488      -0.05479716      -0.01423821       0.01350875      -1.59402874      -0.53808836
I        2.26874532       3.81868342      10.00223458      -0.13521851      -0.05121206      -0.13204294      -0.67375919       0.67614432       1.16877096
I       13.14771025       8.70095609      12.45576029       0.34058230      -0.13898352      -0.18718856      -1.13942233      -1.30370964      -0.37649248
I        3.55897971       9.07143747       9.77854095       0.19635416       0.03933476      -0.02347359      -0.54350542      -0.29242062       1.39034074
I       11.71526463       3.10173141      12.32767371      -0.09273004      -0.03134656       0.01365435      -2.18902244       1.54617456       0.66515909
H        4.77835247       2.90855808      11.63318867      -0.00507010      -0.25165034       0.25805333       0.10557160      -0.00852175       0.04289178
H       10.52914152       9.82845566      11.04503419      -0.11047980      -0.26014592       0.31586403      -0.02207630       0.00566337      -0.27266407
H        1.16825364       8.21585517      13.44656644       0.28316695      -0.05524786      -0.00339970      -0.28206147       0.05678142      -0.12594876
H       14.40933745       4.23823098       9.54508718      -0.09055612      -0.31698580      -0.46603441       0.06776404      -0.23737936       0.06851289
H        5.46263843       1.71069514      12.93975655      -0.13741912       0.08540528      -0.36993465       0.15933339       0.10461629       0.03930316
H        9.99427117      11.54419268      10.76341177      -0.25815123       0.35345766       0.06931653      -0.04417438       0.12132693      -0.00317432
H        0.04170338       7.67649324      12.16734018      -0.57816262      -0.11187151      -0.44255201       0.09006814      -0.08300801       0.25683458
H       14.79012591       5.97158805       9.26341001       0.98657391       0.79937338      -0.59247823       0.01062151       0.24215635       0.04138957
H        5.08899745       1.10618260      11.23078834      -0.18138392       0.36748025       0.21024852      -0.09235375       0.04486546       0.10252749
H        9.94724058      10.27102094       9.38024413      -0.13716434       0.37964714       0.46721665       0.03393144      -0.03417632      -0.12156644
H        0.52014920       6.58912109      13.52108264      -0.58542460      -0.91847863       0.50858875       0.07899075      -0.03058428      -0.05558751
H       15.05135361       5.16628883      10.88170593       0.84615853       0.13177438       0.66569205       0.19453554      -0.10087826      -0.00549998
H        3.29769693       0.34437163      12.66171102       0.22003292       0.01102508      -0.02970243       0.13759833       0.05142261       0.03875146
H       11.92553094      11.82067812       9.31526292       0.21202894      -0.04700394      -0.09268299       0.07027193       0.06519850       0.07382749
H        2.22903909       7.58748944      11.25453036       0.64450559       0.14843263       0.14257118       0.00919305       0.18812869      -0.22650787
H       12.48741857       5.86570901       9.50014768       0.41391385       0.07791463       0.23800483       0.00154866      -0.02446054       0.03111323
H        2.64193024       1.72196924      11.60766123       0.02167389       0.01001724       0.25867372       0.09320754      -0.07025814       0.00169373
H       12.18715394      10.11681285       9.28756629       0.38013411      -0.18168591      -0.52153791       0.08467472      -0.00430489      -0.08281394
H        1.81238140       6.01147157      11.37958827      -0.46586359      -0.47280027       0.03006865      -0.15668062       0.11000973       0.00446268
H       13.04956091       6.56605841      10.93776739       0.08315331      -0.33187855      -0.26938030      -0.09032322       0.00712815      -0.10966353
H        3.13961766       2.02951660      13.35165046      -0.05901115       0.04079115      -0.40799952       0.17817430      -0.11347940      -0.03612506
H       12.59324782      10.97016840      10.64898870      -0.53856239       0.05662623      -0.40461180       0.06521146       0.08484588      -0.09970396
H        2.86798013       6.59361072      12.53119711       0.39612892       0.14107093       0.36846019       0.08076698      -0.16700803       0.04863028
H       12.52313946       4.92306272      10.87002559       0.51519603       0.38715192      -0.10416355       0.02515230      -0.17291690       0.23457980
C        4.76326099       1.83464916      12.02748160       1.10182448      -0.22826861      -0.19717865       0.02846372      -0.00219882       0.02237512
C       10.45843686      10.65381461      10.32083047       0.49151904      -0.69092513      -0.80777758      -0.18261129       0.41247963      -0.07007224
C        0.84729444       7.34146783      12.84563622       0.18275509       0.70541780       0.06452810       0.01481499       0.29056907       0.38834726
C       14.48152514       5.24405271       9.97622786      -2.16932309      -0.34202611       0.38718451      -0.07542340       0.12290875      -0.58741613
Pb      37.68863706       2.30630458       9.66813560      -0.11954363       0.19089868       0.13105362       0.72988191       0.58860128      -0.30041770
Pb      16.29017608       9.69017436      12.12426756       0.05776572       0.05735127       0.23996365      -0.07347286      -1.07899160      -0.33460834
Pb       6.60624838       7.75955355       9.93845279      -0.28998244       0.27269137      -0.04634530       2.60681078       1.33776541      -1.93282292
Pb       8.71948471       4.41859720      12.23609839      -0.02656675      -0.21198405      -0.01768006       0.74455735      -0.80771059      -1.55913705
N        3.40203989       1.44873309      12.42390635      -0.78847791      -0.23356616       0.29421005      -0.02234809      -0.39040076       0.28528522
N       11.87890025      10.92353778       9.86542719       0.06437392       0.42867025       0.79478208       0.03655327       0.47674465      -0.35237373
N        1.98984700       6.83630946      11.98237084       0.27503950       0.45344858      -0.53744526       0.40704298      -0.03814733       0.23546496
N       13.07319944       5.68495205      10.35163812      -0.63558366      -0.36143273      -0.13240090      -0.13218647       0.21888668      -0.45064628
I       17.27428618       4.11976443      16.88200436       0.05421392       0.11921223      -0.06230007      -0.69579778      -2.13727529      -1.45049238
I       17.16876051       7.98084446      14.76753248       0.06252771       0.01389786      -0.12308190      -1.45508858      -0.77204599       3.11344509
I        7.41091937       9.92075517      17.02321944       0.12988856      -0.20881172       0.03810640       0.20689414      -0.27735610       0.83199292
I        7.86376141       2.43299496      14.41669864       0.10014803       0.25597036       0.38822638       0.45561626       1.77951898       0.21289945
I       15.18022988       1.18982075      14.51399374       0.36065996      -0.03555175      -0.07243857       1.45627873      -0.03934250      -0.81093148
I        0.11382052      11.23921817      17.00146172       0.09979517      -0.23316094      -0.10361492      -1.70303736       0.09884707      -0.13891173
I        9.62965260       6.56106845      14.53245538      -0.03270736       0.15901711      -0.02611839      -0.17566334      -0.24844111       2.36874992
I        5.83451625       5.62677298      16.81250747       0.07838957      -0.09026894       0.18913308       0.77283844      -0.71468577       1.51047878
I        2.06671327       3.91814724      14.58697886       0.13371280      -0.11375727       0.14272808       0.73546431       0.30969469       0.28513414
I       13.28274613       8.45863862      17.00757322       0.11744263       0.18125675       0.10745086       1.01118708       0.09664953       1.33975835
I        3.51697429       9.14413119      14.65581284       0.13756724       0.07626619      -0.06498829       0.98407169      -3.07756282      -1.15735425
I       11.98711611       3.01120907      16.92459384      -0.29075824       0.13117763       0.13189761      -1.65935936      -1.51271161      -0.47860021
H        5.25171214       0.96180309      18.05695758      -0.70013347      -0.13007925      -0.18001206       0.05015930      -0.07638991       0.09800740
H        9.89889336      10.33088683      15.16715229       0.20047348       0.21714051       0.14950663      -0.25575020      -0.11386480       0.12787895
H        0.87979689       8.03307999      16.41824317      -0.15062613      -0.30806472       0.33344587      -0.13499304       0.10846225       0.04810408
H       14.56785909       4.55965342      15.66965236      -0.40522383      -0.32723480       0.02420813      -0.25708086      -0.05773786      -0.00699150
H        5.48228494       1.65567065      16.44117162       0.36908206       0.36300501      -0.31501779       0.06782109      -0.19221973      -0.02492086
H       10.14520067      11.15033687      13.59426721      -0.09377569      -0.03675151      -0.07731125       0.12331732      -0.02062195      -0.01632715
H        0.15928042       6.37665011      16.52338047      -0.07411889      -0.04396333       0.03017854       0.30595982       0.02376379      -0.05697886
H       15.13131283       5.23078733      14.12691989       0.45661953       0.25692327      -0.27250262      -0.01229029       0.04082582      -0.22239182
H        4.71809541       2.69853367      17.77196575       0.32175434      -0.61095455      -0.41758814      -0.27696261      -0.07193558       0.04720620
H       10.64118218       9.44220000      13.86019111       0.27624830      -0.89890418      -0.75639169      -0.00608890      -0.13669906      -0.19307182
H        0.57713861       7.26695164      18.18129493       0.18616838       0.06369241      -0.21849465      -0.19146387      -0.08092026      -0.00447647
H       14.77350402       6.32518885      15.58449078       0.42576932       0.11704210      -0.39828295       0.21691877      -0.21533908       0.09622335
H        3.01255949       2.06790054      16.17590721       0.71174312      -0.68167964       1.00352662      -0.15199291       0.09799539      -0.06409571
H       11.91548167      11.86300013      15.15368750      -0.16966699      -0.25374612      -0.16115516      -0.05245431      -0.01822883      -0.00434801
H        3.20672642       7.23148709      17.29551985       0.07291064       0.00562038       0.57066511      -0.08316212       0.05917152      -0.11917001
H       13.03738792       6.40400747      13.66181513      -0.05618754      -1.21686968       0.61089099      -0.02429225      -0.07689375       0.12957425
H        2.77417178       1.16359055      17.58420770      -0.43507072       0.32314923       0.74151274      -0.13861809      -0.06932326      -0.15767416
H       12.56359811      10.99276019      13.86357330      -0.08414041      -0.31772166       0.30161689       0.18282028      -0.06862289       0.02634852
H        2.71556614       6.11584456      15.92213644      -0.32405506       0.17887120       0.13007165       0.04292098      -0.15545088       0.05728032
H       12.43929880       6.04898994      15.23179448       0.50408358      -0.39721808      -0.17425410       0.10859742       0.10409441       0.14773699
H        3.31737783       0.39894991      16.30675203       0.79944940       0.06297401      -0.12711582       0.10643890       0.19173020      -0.10843403
H       12.31136911      10.25667285      15.38251747       0.72108189      -0.62253572       0.27165378       0.04161938       0.05393432      -0.00081227
H        2.43773928       5.65185914      17.63926673       0.24613823       0.61908253      -0.04180959       0.28394366       0.21070287       0.08148036
H       12.69393626       4.63239401      14.16374888      -0.24051953       0.89603484      -0.07585398       0.18183836      -0.07349326       0.09150917
C        4.81955097       1.66682691      17.31791859      -0.55286613       0.70767168       0.29177485      -0.14267288       0.07417628       0.10188717
C       10.56506225      10.41743191      14.29254404      -0.30701701       1.10287723       0.58367801      -0.59613946      -0.35497840       0.05023475
C        0.88640287       7.09252491      17.03136495       0.75775452       0.07238070      -0.31666371      -0.81965488       0.43299517       0.48902597
C       14.50303421       5.43701020      14.98108783      -0.38081712       0.27777712       1.03657943      -0.46703525       0.30648134       0.23912088
Pb      37.56669226       2.33758273      14.21135836      -0.23912227       0.08820130       0.16202926      -2.06516299       0.05841223      -3.41875623
Pb      16.33468826       9.99296708      16.92052162      -0.44219825      -0.22006989       0.16677795      -2.73039050      -1.28660504       1.95157516
Pb       6.52525538       7.92976997      14.73978385      -0.08899287       0.11837217      -0.08644793       1.80090414       1.40934217      -2.05813771
Pb       8.96431283       4.44907268      16.94039389      -0.04699805      -0.48970595      -0.33525075       0.78828051      -1.78956460       1.20670752
N        3.44009364       1.31864250      16.83631621      -0.57801225       0.07283639      -1.14026605      -0.71613819       0.03913435      -0.23882488
N       11.92519368      10.90535759      14.68827890      -0.64347746       0.87087240      -0.12584932      -0.48732179       0.28625925       0.59791469