768
Lattice="25.489424268572538 -0.0956594233117733 0.005584256169073863 0.09977264370270744 24.739172851202614 0.6001478684267295 -0.002024446371267937 0.5682806783236378 24.75292066089703" Properties=species:S:1:pos:R:3:forces:R:3:momenta:R:3 pbc="T T T"
I        7.27298201      24.25573723       1.38779902       0.09874617       0.10955813      -0.06910216       0.80212200       0.10502038       0.49462258
I        6.42562760      10.49186478       7.30428955       0.23105442       0.06202404      -0.00657029       0.55965434       4.44804922      -0.80773861
I        6.29150670       8.10116496       3.23573119       0.27679290       0.23801545       0.11822821      -0.04457299      -0.06117689       0.39250153
I        7.54475022       1.97248379       4.69240199      -0.15251667      -0.17335403       0.08395888       2.42528972      -0.46109371       0.58544321
I        0.70715906      10.19056738       7.13919092       0.01355547       0.26484021      -0.08519797      -0.09072161       0.21890158      -1.67400035
I       13.30946386      24.39921912       1.20837404      -0.16238107       0.04176412       0.01305667       2.01120469       0.63260595       1.08208900
I       13.04180013       2.01663922       4.63897636      -0.06850458      -0.20687627      -0.07986447       3.61912360      -0.07200818      -1.27788238
I        0.55942706       8.29511150       2.86591045       0.20740060      -0.16742350       0.12447541       0.46840156       0.89909891       0.83949251
I       10.24520719      11.86349586      10.05203258      -0.12474082      -0.06179469       0.12861501       0.64543485      -1.18097549       2.22472318
I        3.65881067       4.36461499       4.19281767       0.17303336       0.13447906      -0.03351541       0.48901099      -1.73220398      -1.67966556
I        3.66735886      23.91562768       3.86981150       0.19437839      -0.06070198       0.03908800      -1.10150693      -0.01789858      -1.29819944
I       10.06145446      10.84840429       4.82055911      -0.12565249       0.09825536      -0.14380386      -0.35749453       3.65148545       0.88259577
H        3.08272350       1.30943726      24.15709541       0.55837362       0.28591969       0.42811645       0.08520022       0.01363751      -0.14631500
H       10.04501315       1.18453418       2.74093562      -0.20243060       0.65658063      -0.42492994      -0.05133831       0.10407002       0.06920208
H       10.85589100       9.19062094       1.66109438       0.10378330      -0.11803983       0.21027183      -0.04911231       0.17505958       0.05708181
H        3.83847655       0.33054153       7.24374707      -0.44886220       0.50781624      -1.17859407      -0.03303000       0.09648457      -0.09596542
H        5.06634861       7.31399904       6.65568746      -0.84329489       0.63220042      -0.32180708       0.13067078       0.04628765      -0.03095049
H       10.59463382       2.91932648       2.45895509      -0.26159368       0.31189695      -0.05358923      -0.19282446       0.11336540      -0.03855575
H       11.22708580       3.20716802       7.62537553      -0.26851316       0.72049201       0.31191906      -0.02761186      -0.11064686      -0.14585864
H        2.76374757       1.13944056       5.87268554      -0.67769161       0.00615987       0.18769057       0.04102709      -0.05573695       0.02637875
H        4.92515686       2.20722835      24.22578942      -0.17094030      -0.17749287       0.38547686       0.14429056      -0.08963782      -0.06201151
H        8.72123803       2.40898865       2.18150933       0.32308410       0.22803961       0.21369713      -0.22604178      -0.00509272       0.04324298
H        9.03229755       9.02299835       1.56291327       0.11110869       0.30860958       0.33793384       0.22924043       0.05415140       0.32636057
H        4.46879670       1.15033422       5.75174338       1.10174637       0.03214259      -0.50114554       0.06121782      -0.07608533       0.00208567
H        4.18150091       2.72598437       1.52262074       1.47734013       0.23449721       0.51104280      -0.05838983       0.06147715       0.09846911
H       10.18888544       8.77269819       6.11613268       0.24693875      -0.38856311      -0.26453134      -0.17558745      -0.13046654       0.17915339
H        9.08545451       7.24523495       0.25576778       0.33183269      -0.21802944      -0.14200368       0.08782750       0.13674131       0.06997794
H        2.80075127       8.66473657       1.73701534       0.87624688      -0.16045903      -0.98543831      -0.16079331       0.07651302      -0.09644872
H        3.27758098       1.24429778       1.72307560       0.59585415      -0.48350481       1.00533356      -0.12904205      -0.02127522      -0.13414152
H        9.50568481       7.23289441       6.41524053       0.43527460       0.34334363       0.33975315      -0.00495267      -0.01621520      -0.04685185
H       10.17771026       6.89205173       1.58067168      -0.26674718       0.58024745      -0.86833876       0.30900324       0.12892956       0.02038402
H        3.85702331       9.31139663       0.46628821      -0.40666024       0.63953134      -0.28371382       0.05428533      -0.01320252      -0.14957442
H        2.61837065       2.69775305       1.30075367      -1.00576171       0.11268796      -0.15248716       0.15779874       0.07378664      -0.04042910
H       11.02110311       1.13888681       0.62681276       0.58958156      -0.18115305      -0.13194537      -0.05579827      -0.08886928      -0.07774789
H       10.79267410       7.77680371      24.78205659       0.19545120       0.29301985      -0.39373572      -0.13479095      -0.12501727       0.07257319
H        4.48006651       8.58917363       1.84854003       0.52171352      -0.37478787       0.14271320      -0.03323822       0.03235682       0.09044019
C        4.11882717       8.00112211       6.45969432       0.18609049      -0.38883890       0.15581054      -0.53031325      -0.06587677       0.02755671
C        9.85553989       2.12603721       2.12825277       0.38875075      -1.07093894       0.08546654      -0.22548733      -1.01703511      -0.13613010
C       10.25170351       3.06038182       7.13162293       1.46442867      -0.71333857      -0.64361130       0.11589654       1.06196106       0.17889588
C        3.66525180       1.19466255       6.47137152       0.17502845      -0.91627799       2.03550427      -0.24053228       0.61590105      -0.66097388
Pb       6.88996182       5.05131784       3.86135897      -0.03961293       0.06366066       0.11326842       0.38216037       1.86782030      -1.42665305
Pb       6.92592366      11.31043901       4.17327173      -0.15631158      -0.16213191       0.02320716      -2.42047619      -3.90638121       1.69518422
Pb       0.58087446      11.29382995      10.18613646       0.01304814       0.27233660      -0.20949668      -0.56562598       1.24844161       2.07442938
Pb       0.45444725      11.22400488       3.93910822       0.15254588       0.07738299       0.26345455      -2.65742552       1.04003461       0.42589905
N        3.44724796       2.11504578       1.18904998      -0.94317413      -0.45519021      -2.03161137       0.03012611       0.21817853       0.19773873
N       10.29082404       7.89567574       6.69796681      -0.75025420      -0.23347329      -0.26929401       0.04288390       0.18947428      -0.13569878
N       10.03436703       7.48563756       0.67001794      -0.25811288      -0.94763232       1.18309085       0.36347277      -0.51734266      -0.01036256
N        3.69946777       8.53442804       1.14669516      -1.38676811      -0.37242458       0.47089307      -0.19367303      -0.16132625      -0.01023784
I        7.29776027       5.91683044       7.03488331       0.03050988      -0.09349000       0.03946062       1.49013012       0.46840646       1.61876609
I        6.50771346       4.03726366       0.90140252      -0.02755981      -0.00089781      -0.07098617      -0.58343097      -0.80659720       0.31402407
I        6.67219856       1.96545981       9.31165949      -0.05079525       0.14121149      -0.11801154       1.68247223       1.15962531      -0.42448301
I        6.92819096       8.37939851      23.55100166       0.22953779       0.15292603      -0.03978015      -0.98687263       0.41435742      -2.13643514
I        0.47688201       4.22861607       0.80929990       0.13848026      -0.16146234      -0.06177823       0.17429945      -0.08741503      -0.05792820
I       13.19838552       5.82761580       6.90757756       0.01422239       0.07464298       0.10505238       1.43040510      -0.77881990      -1.17390998
I       12.95456469       8.44304959      23.29787183      -0.05448386       0.10490184       0.07538278      -0.62971069       0.84640641       0.18138262
I        0.80066098       2.05573757       9.11457565      -0.02583541       0.06189105       0.12137963       0.86077251      -0.34800069      -2.56185445
I       10.06979999       5.92522657       3.73706892      -0.04485803      -0.20828439       0.04302647       1.03759473       2.27753913      -2.27234626
I        3.88412106      11.23169167      22.92163048      -0.26774669      -0.01496735       0.03761383       0.13212481      -2.24515753       0.68843323
I        3.68929627       5.47834185       9.76186170      -0.18034897      -0.11373088      -0.09846464      -0.46038953       0.66764253       1.02920581
I       10.04908577       4.96107508      23.08394516      -0.18376257       0.16791074      -0.05896918      -0.07250265      -0.75764662      -2.68369166
H        4.32053342       8.85566829       5.75709880       0.38623804      -0.26340110       0.27917127      -0.09027679      -0.03389820      -0.04498850
H       10.42470930       7.49114200       8.84197210       0.04833833       0.91152831      -0.93602115       0.08316664       0.22946422       0.26341039
H        9.40388499       3.24222835       7.77215808      -0.38476747       0.36215969       0.07596657      -0.02098085      -0.08036815      -0.09404249
H        4.46140965       7.73509636      24.29949197      -0.99319973       0.29153558       0.79395307      -0.00785354       0.10005860      -0.10760332
H        3.30544812       3.26049435      23.86266173       0.01447984      -0.39248619       0.52515244      -0.15407583      -0.00318476       0.06699874
H       10.86450209       9.25857166       8.24773322      -0.02031541       0.01141245       0.11072780       0.03080780      -0.12995249       0.03086648
H        9.96522103      10.11568198      24.91804319       0.04195973       0.11911988      -0.45461716       0.13276549       0.02174609       0.03578936
H        3.72392565       6.33367731       1.06300501       0.00204437       0.40263333      -0.54823507      -0.11199545      -0.04901620      -0.10974545
H        3.21552069       7.45942375       6.02924187       0.39089848      -0.00700185       0.19791435       0.10547580       0.06584112       0.18393698
H        9.06025877       8.64759571       8.22166481      -0.37234299       0.49078110       0.31111992       0.15862391       0.00968047       0.02900061
H       10.29187509       3.58386695       6.13951895      -0.43363415      -0.16731294       0.56364106      -0.11114477       0.07653526      -0.05638789
H        2.63953194       7.76033450      24.54717614       0.10904285       0.21622371       0.13732887       0.17140947       0.23550798      -0.01428898
H        3.51456103       7.70770152       8.54395409       0.12586312       0.20620227      -0.00509110      -0.03917399      -0.02329932      -0.01037510
H       10.21844872       3.09909636      24.73881285      -0.09360798      -1.08436805       0.97587443       0.08590376       0.14657292       0.06962914
H       10.40790574       1.00894487       7.76606881       0.04797800       0.20199349       0.13197810       0.15702957      -0.11387600      -0.16669316
H        4.51370290       2.46080132       8.04268369       0.03330681       0.06310708      -0.67284908       0.03680441      -0.04202362      -0.05938639
H        2.82041959       9.07598753       7.77432120      -0.93859258       0.52065353       0.37686012       0.10247616      -0.05751606      -0.00424628
H        9.35505081       1.07946789       0.41525460       0.27683109       0.20151469      -0.29663360      -0.12989641      -0.13101044       0.14236709
H       11.17209519       1.35146608       6.33930774       0.84581964      -0.00367994      -0.70041402      -0.20569656       0.18713274      -0.15416589
H        2.87577526       2.62035045       7.85836170      -0.50626970      -0.00369221      -0.14109993       0.13368037       0.13212450      -0.12664614
H        4.49036402       9.15521645       8.31212947      -0.84301682      -0.82911659      -0.39142139      -0.11660084      -0.08541686       0.10853431
H       11.18112346       7.38997443       6.48410974       0.13013938       0.25789694       0.11450747       0.25048584       0.13778304       0.22589142
H        9.51123213       1.16857016       6.34857940       0.37578025       0.41910216       0.06180755       0.04915780       0.05822876      -0.12412089
H        3.85913048       3.27011639       6.57448653      -0.01590124       0.36304517       0.48007570       0.01266105      -0.13723404       0.13346132
C        3.70815095       2.31681464      24.46527048      -0.47862585       0.90016053      -0.61209865       0.09385897       0.26802270      -0.25929830
C       10.15892704       8.36032544       8.10706849       0.13472896      -1.46898724       0.69803305       0.17027213      -0.15603677       0.32579491
C        9.99663254       8.91676322       1.04498873      -0.40551209       0.07457755       0.03576481      -0.02743999      -0.60484137      -0.30478382
C        3.61626920       7.22142993       0.32933942       1.04294161      -0.63152418       0.41538470       0.36192550      -0.26630417       0.27073744
Pb       6.91462480      11.31911514      10.35571542       0.21494971      -0.06701792      -0.07572065       0.05462541      -0.27870472      -0.55055453
Pb       6.60898695       5.18482565      10.11473984       0.47288469      -0.12046366       0.01158023       0.42504146      -2.98659017       1.63744071
Pb       0.55214313       5.07069808       3.79319143      -0.05862983       0.14698213       0.20578738      -0.31954521       1.23960760       0.71301187
Pb       0.31570434       5.28202496      10.11374670      -0.03259037      -0.38951988      -0.24858726       2.15179896      -0.47658195       0.61585896
N        3.70522653       8.51134781       7.88028526       1.28415693       0.00032481      -0.50153927       0.60252403      -0.03988155       0.18064900
N       10.15795182       1.70258459       0.68925763      -0.99472602       0.79916759      -0.53073226       0.28246272      -0.09772064      -0.05774236
N       10.35024507       1.57769533       6.87933634      -1.77006693      -0.81842603       0.19700663       0.34215161      -0.23988821      -0.39701773
N        3.72994965       2.49160495       7.28440469       0.46339938      -0.04685000      -0.19623920       0.61623908       0.10925127       0.00111375
I        7.27196979      24.53987757      13.76425935       0.09874617       0.10955813      -0.06910216       0.80212200       0.10502038       0.49462258
I        6.42461538      10.77600512      19.68074988       0.23105442       0.06202404      -0.00657029       0.55965434       4.44804922      -0.80773861
I        6.29049448       8.38530530      15.61219152       0.27679290       0.23801545       0.11822821      -0.04457299      -0.06117689       0.39250153
I        7.54373800       2.25662413      17.06886232      -0.15251667      -0.17335403       0.08395888       2.42528972      -0.46109371       0.58544321
I        0.70614684      10.47470772      19.51565125       0.01355547       0.26484021      -0.08519797      -0.09072161       0.21890158      -1.67400035
I       13.30845164      24.68335946      13.58483437      -0.16238107       0.04176412       0.01305667       2.01120469       0.63260595       1.08208900
I       13.04078791       2.30077956      17.01543669      -0.06850458      -0.20687627      -0.07986447       3.61912360      -0.07200818      -1.27788238
I        0.55841484       8.57925184      15.24237078       0.20740060      -0.16742350       0.12447541       0.46840156       0.89909891       0.83949251
I       10.24419497      12.14763620      22.42849291      -0.12474082      -0.06179469       0.12861501       0.64543485      -1.18097549       2.22472318
I        3.65779845       4.64875533      16.56927800       0.17303336       0.13447906      -0.03351541       0.48901099      -1.73220398      -1.67966556
I        3.66634664      24.19976802      16.24627183       0.19437839      -0.06070198       0.03908800      -1.10150693      -0.01789858      -1.29819944
I       10.06044224      11.13254463      17.19701944      -0.12565249       0.09825536      -0.14380386      -0.35749453       3.65148545       0.88259577
H        3.08373573       1.02529692      11.78063508       0.55837362       0.28591969       0.42811645       0.08520022       0.01363751      -0.14631500
H       10.04400093       1.46867452      15.11739595      -0.20243060       0.65658063      -0.42492994      -0.05133831       0.10407002       0.06920208
H       10.85487878       9.47476128      14.03755471       0.10378330      -0.11803983       0.21027183      -0.04911231       0.17505958       0.05708181
H        3.83746433       0.61468187      19.62020740      -0.44886220       0.50781624      -1.17859407      -0.03303000       0.09648457      -0.09596542
H        5.06533639       7.59813938      19.03214779      -0.84329489       0.63220042      -0.32180708       0.13067078       0.04628765      -0.03095049
H       10.59362160       3.20346682      14.83541542      -0.26159368       0.31189695      -0.05358923      -0.19282446       0.11336540      -0.03855575
H       11.22607358       3.49130836      20.00183586      -0.26851316       0.72049201       0.31191906      -0.02761186      -0.11064686      -0.14585864
H        2.76273535       1.42358090      18.24914587      -0.67769161       0.00615987       0.18769057       0.04102709      -0.05573695       0.02637875
H        4.92616909       1.92308801      11.84932909      -0.17094030      -0.17749287       0.38547686       0.14429056      -0.08963782      -0.06201151
H        8.72022581       2.69312899      14.55796966       0.32308410       0.22803961       0.21369713      -0.22604178      -0.00509272       0.04324298
H        9.03128533       9.30713869      13.93937360       0.11110869       0.30860958       0.33793384       0.22924043       0.05415140       0.32636057
H        4.46778448       1.43447456      18.12820371       1.10174637       0.03214259      -0.50114554       0.06121782      -0.07608533       0.00208567
H        4.18048869       3.01012471      13.89908107       1.47734013       0.23449721       0.51104280      -0.05838983       0.06147715       0.09846911
H       10.18787322       9.05683853      18.49259301       0.24693875      -0.38856311      -0.26453134      -0.17558745      -0.13046654       0.17915339
H        9.08444229       7.52937529      12.63222811       0.33183269      -0.21802944      -0.14200368       0.08782750       0.13674131       0.06997794
H        2.79973905       8.94887691      14.11347567       0.87624688      -0.16045903      -0.98543831      -0.16079331       0.07651302      -0.09644872
H        3.27656876       1.52843812      14.09953593       0.59585415      -0.48350481       1.00533356      -0.12904205      -0.02127522      -0.13414152
H        9.50467259       7.51703475      18.79170086       0.43527460       0.34334363       0.33975315      -0.00495267      -0.01621520      -0.04685185
H       10.17669804       7.17619207      13.95713201      -0.26674718       0.58024745      -0.86833876       0.30900324       0.12892956       0.02038402
H        3.85601109       9.59553697      12.84274854      -0.40666024       0.63953134      -0.28371382       0.05428533      -0.01320252      -0.14957442
H        2.61735843       2.98189339      13.67721400      -1.00576171       0.11268796      -0.15248716       0.15779874       0.07378664      -0.04042910
H       11.02009089       1.42302715      13.00327309       0.58958156      -0.18115305      -0.13194537      -0.05579827      -0.08886928      -0.07774789
H       10.79368633       7.49266337      12.40559626       0.19545120       0.29301985      -0.39373572      -0.13479095      -0.12501727       0.07257319
H        4.47905429       8.87331397      14.22500036       0.52171352      -0.37478787       0.14271320      -0.03323822       0.03235682       0.09044019
C        4.11781495       8.28526245      18.83615465       0.18609049      -0.38883890       0.15581054      -0.53031325      -0.06587677       0.02755671
C        9.85452767       2.41017755      14.50471310       0.38875075      -1.07093894       0.08546654      -0.22548733      -1.01703511      -0.13613010
C       10.25069129       3.34452216      19.50808326       1.46442867      -0.71333857      -0.64361130       0.11589654       1.06196106       0.17889588
C        3.66423958       1.47880289      18.84783185       0.17502845      -0.91627799       2.03550427      -0.24053228       0.61590105      -0.66097388
Pb       6.88894960       5.33545818      16.23781930      -0.03961293       0.06366066       0.11326842       0.38216037       1.86782030      -1.42665305
Pb       6.92491144      11.59457935      16.54973206      -0.15631158      -0.16213191       0.02320716      -2.42047619      -3.90638121       1.69518422
Pb       0.57986224      11.57797029      22.56259679       0.01304814       0.27233660      -0.20949668      -0.56562598       1.24844161       2.07442938
Pb       0.45343503      11.50814522      16.31556855       0.15254588       0.07738299       0.26345455      -2.65742552       1.04003461       0.42589905
N        3.44623574       2.39918612      13.56551031      -0.94317413      -0.45519021      -2.03161137       0.03012611       0.21817853       0.19773873
N       10.28981182       8.17981608      19.07442714      -0.75025420      -0.23347329      -0.26929401       0.04288390       0.18947428      -0.13569878
N       10.03335481       7.76977790      13.04647827      -0.25811288      -0.94763232       1.18309085       0.36347277      -0.51734266      -0.01036256
N        3.69845555       8.81856838      13.52315549      -1.38676811      -0.37242458       0.47089307      -0.19367303      -0.16132625      -0.01023784
I        7.29674805       6.20097078      19.41134364       0.03050988      -0.09349000       0.03946062       1.49013012       0.46840646       1.61876609
I        6.50670124       4.32140400      13.27786285      -0.02755981      -0.00089781      -0.07098617      -0.58343097      -0.80659720       0.31402407
I        6.67118634       2.24960015      21.68811982      -0.05079525       0.14121149      -0.11801154       1.68247223       1.15962531      -0.42448301
I        6.92920319       8.09525817      11.17454133       0.22953779       0.15292603      -0.03978015      -0.98687263       0.41435742      -2.13643514
I        0.47586979       4.51275641      13.18576023       0.13848026      -0.16146234      -0.06177823       0.17429945      -0.08741503      -0.05792820
I       13.19737330       6.11175614      19.28403789       0.01422239       0.07464298       0.10505238       1.43040510      -0.77881990      -1.17390998
I       12.95557692       8.15890925      10.92141150      -0.05448386       0.10490184       0.07538278      -0.62971069       0.84640641       0.18138262
I        0.79964876       2.33987791      21.49103598      -0.02583541       0.06189105       0.12137963       0.86077251      -0.34800069      -2.56185445
I       10.06878777       6.20936691      16.11352925      -0.04485803      -0.20828439       0.04302647       1.03759473       2.27753913      -2.27234626
I        3.88513329      10.94755133      10.54517015      -0.26774669      -0.01496735       0.03761383       0.13212481      -2.24515753       0.68843323
I        3.68828405       5.76248219      22.13832203      -0.18034897      -0.11373088      -0.09846464      -0.46038953       0.66764253       1.02920581
I       10.05009800       4.67693474      10.70748483      -0.18376257       0.16791074      -0.05896918      -0.07250265      -0.75764662      -2.68369166
H        4.31952120       9.13980863      18.13355913       0.38623804      -0.26340110       0.27917127      -0.09027679      -0.03389820      -0.04498850
H       10.42369708       7.77528234      21.21843243       0.04833833       0.91152831      -0.93602115       0.08316664       0.22946422       0.26341039
H        9.40287277       3.52636869      20.14861841      -0.38476747       0.36215969       0.07596657      -0.02098085      -0.08036815      -0.09404249
H        4.46242188       7.45095602      11.92303164      -0.99319973       0.29153558       0.79395307      -0.00785354       0.10005860      -0.10760332
H        3.30646035       2.97635401      11.48620140       0.01447984      -0.39248619       0.52515244      -0.15407583      -0.00318476       0.06699874
H       10.86348987       9.54271200      20.62419355      -0.02031541       0.01141245       0.11072780       0.03080780      -0.12995249       0.03086648
H        9.96623326       9.83154164      12.54158286       0.04195973       0.11911988      -0.45461716       0.13276549       0.02174609       0.03578936
H        3.72291343       6.61781765      13.43946534       0.00204437       0.40263333      -0.54823507      -0.11199545      -0.04901620      -0.10974545
H        3.21450847       7.74356409      18.40570220       0.39089848      -0.00700185       0.19791435       0.10547580       0.06584112       0.18393698
H        9.05924655       8.93173605      20.59812514      -0.37234299       0.49078110       0.31111992       0.15862391       0.00968047       0.02900061
H       10.29086287       3.86800729      18.51597928      -0.43363415      -0.16731294       0.56364106      -0.11114477       0.07653526      -0.05638789
H        2.64054417       7.47619416      12.17071581       0.10904285       0.21622371       0.13732887       0.17140947       0.23550798      -0.01428898
H        3.51354881       7.99184186      20.92041442       0.12586312       0.20620227      -0.00509110      -0.03917399      -0.02329932      -0.01037510
H       10.21946095       2.81495602      12.36235252      -0.09360798      -1.08436805       0.97587443       0.08590376       0.14657292       0.06962914
H       10.40689352       1.29308521      20.14252914       0.04797800       0.20199349       0.13197810       0.15702957      -0.11387600      -0.16669316
H        4.51269068       2.74494166      20.41914402       0.03330681       0.06310708      -0.67284908       0.03680441      -0.04202362      -0.05938639
H        2.81940737       9.36012787      20.15078153      -0.93859258       0.52065353       0.37686012       0.10247616      -0.05751606      -0.00424628
H        9.35403859       1.36360823      12.79171493       0.27683109       0.20151469      -0.29663360      -0.12989641      -0.13101044       0.14236709
H       11.17108297       1.63560642      18.71576807       0.84581964      -0.00367994      -0.70041402      -0.20569656       0.18713274      -0.15416589
H        2.87476304       2.90449079      20.23482203      -0.50626970      -0.00369221      -0.14109993       0.13368037       0.13212450      -0.12664614
H        4.48935180       9.43935679      20.68858980      -0.84301682      -0.82911659      -0.39142139      -0.11660084      -0.08541686       0.10853431
H       11.18011124       7.67411477      18.86057007       0.13013938       0.25789694       0.11450747       0.25048584       0.13778304       0.22589142
H        9.51021991       1.45271050      18.72503973       0.37578025       0.41910216       0.06180755       0.04915780       0.05822876      -0.12412089
H        3.85811826       3.55425673      18.95094686      -0.01590124       0.36304517       0.48007570       0.01266105      -0.13723404       0.13346132
C        3.70916318       2.03267430      12.08881015      -0.47862585       0.90016053      -0.61209865       0.09385897       0.26802270      -0.25929830
C       10.15791482       8.64446578      20.48352882       0.13472896      -1.46898724       0.69803305       0.17027213      -0.15603677       0.32579491
C        9.99562032       9.20090356      13.42144906      -0.40551209       0.07457755       0.03576481      -0.02743999      -0.60484137      -0.30478382
C        3.61525698       7.50557027      12.70579975       1.04294161      -0.63152418       0.41538470       0.36192550      -0.26630417       0.27073744
Pb       6.91361258      11.60325548      22.73217575       0.21494971      -0.06701792      -0.07572065       0.05462541      -0.27870472      -0.55055453
Pb       6.60797473       5.46896599      22.49120017       0.47288469      -0.12046366       0.01158023       0.42504146      -2.98659017       1.63744071
Pb       0.55113091       5.35483842      16.16965176      -0.05862983       0.14698213       0.20578738      -0.31954521       1.23960760       0.71301187
Pb       0.31469212       5.56616530      22.49020703      -0.03259037      -0.38951988      -0.24858726       2.15179896      -0.47658195       0.61585896
N        3.70421431       8.79548815      20.25674559       1.28415693       0.00032481      -0.50153927       0.60252403      -0.03988155       0.18064900
N       10.15693960       1.98672493      13.06571796      -0.99472602       0.79916759      -0.53073226       0.28246272      -0.09772064      -0.05774236