768
Lattice="31.343885341238796 -0.47746557187201905 -1.6062135899949226 -0.40744855527168355 29.62807268781774 -0.02279442302894619 -1.4504438450383712 0.04122985736401602 17.113936445534993" Properties=species:S:1:pos:R:3:forces:R:3:momenta:R:3 pbc="T T T"
I        6.24656554       0.97862878       1.81864842      -0.09577591       0.04554303       0.16425870      -0.92854522      -0.31790192      -1.76856198
I        0.80152593       6.37357706       1.92688645       0.06872742      -0.07198124      -0.20973677      -0.27837989      -1.75632455       0.12593689
I        5.40515035       1.61666505       6.02106613      -0.11670126       0.03351161      -0.20089467       0.32207469       0.57340968       0.12826972
I        0.90742239       6.21040126       6.22157391       0.22227834      -0.03061717       0.06182250      -1.11148397      -0.26630879       0.60950558
I        4.84749708       5.01909030       3.70345319       0.03236166       0.10079347      -0.30935002       1.49307459      -0.23714059      -1.63454414
I        1.81852027       2.68331116       8.71854043      -0.34594873       0.01414673       0.02488378       1.01678024      -0.00391664       0.55839975
H        1.97209898       3.85835068       3.92799304      -0.04725198       0.23456971      -0.31452423       0.00117322      -0.08412117       0.18188467
H        3.86941271       5.76660736      15.28119894       0.03141828      -0.11440805      -0.68411351       0.03521597      -0.20510196       0.15709029
H        0.55242225       2.62273157       4.38820064       0.54270040       0.41599534      -0.04396710       0.12304519      -0.12322852      -0.07237600
H        6.19925785       5.06343778      -0.32381082      -0.83438157      -0.06854387      -0.15366699      -0.20364703      -0.17601320       0.03591351
H        2.05684551       2.88017548       5.48058603       0.00023178       0.07202087      -0.04529806      -0.17572382       0.01690697      -0.02094760
H        3.21968732       4.19893755      16.10672489      -0.09062727      -0.42842544       0.18618710      -0.22954908      -0.01427177      -0.14776005
H        2.29662368       1.95999429       2.62043457       0.01807823      -0.67867567      -0.51159176      -0.05038032      -0.06722249       0.04262028
H        4.52106467       7.08455990      -0.02770674       0.65971445      -0.23317585      -0.14333044       0.06722070      -0.08499733      -0.06313416
H        2.03560591       0.83746849       4.03699967       0.44071176       1.08045296      -0.80198209       0.03084015       0.03124270       0.08298946
H        4.33417847       5.83698385       1.02294597      -0.20355151      -0.47364572       0.16517035      -0.00304863       0.06986254      -0.09134976
H        3.42687304       1.84769794       3.87471203      -0.18126077      -0.14267552      -0.21133369      -0.01679479      -0.14255599      -0.18106447
H        1.89074589       6.07768092      16.74383390      -0.04451561      -0.33605651       0.30386236      -0.06983235       0.13096977      -0.01912423
C        1.70121866       2.89401524       4.38953732      -0.78247646      -0.83498788       0.59674681      -0.25145802       0.05628220       0.24030329
C        3.73854194       5.20267722      16.27124976       0.95018794       0.94005420       0.62798273       0.23656287      -0.74354201      -0.04549931
Pb       3.26668382      14.88548160       7.96393849       0.04441852       0.04045446       0.11510718       0.93817123      -1.65249918      -0.14660123
Pb      -0.77329829      15.17575163       8.36716743       0.10311698       0.16577099      -0.23518353       1.21122777      -0.28722218       1.78666161
N        2.40503737       1.78295595       3.63865108       0.06735838      -0.13139201       1.45903566       1.01002383       0.63871259      -0.12941059
N        4.31249718       6.04752528       0.01166371      -0.27069999       0.53185790      -0.24690025      -0.37623643      -0.13885042       0.01858701
I        5.05658314       8.62335865       6.05232612      -0.01558829       0.08611433       0.24847959      -0.61100746       1.19854780       0.57365838
I        0.86055953      14.01438063       5.78192766       0.19785200       0.02451342      -0.03941865      -0.25291977      -0.41988814      -1.72698434
I        4.71981427       8.94451369       1.54380545       0.00418995       0.24159420       0.18656216      -0.39259037       0.74051347       1.33662938
I        2.05341339      13.35361813       1.61681527      -0.13520744       0.01492274       0.09930251      -1.36171281      -1.48327287       1.83578674
I        4.45572923      12.33820145      16.55311607       0.03279317      -0.12972860      -0.13260463      -1.36966087      -0.30120283       1.64311040
I        1.00586174      10.03379368       4.52264560      -0.19171619       0.46427596      -0.15184056      -0.84985239      -0.16576939      -1.95280367
H        0.51858171       8.83967976       8.12037147       0.19892889      -0.20213580      -0.00069088       0.13411165       0.09144592      -0.05137387
H        5.21462648      11.40090476       4.65581231       0.15136173       0.19891483      -0.39175068      -0.08432393      -0.05183843       0.00631405
H        0.56057601       9.73460991       9.67402256      -0.08936403       0.10588375       0.02572881       0.04894974      -0.04448529      -0.01830403
H        5.69375977      13.08892170       4.92779585       0.19609425       0.18635584       0.06128074       0.07694534       0.01822182      -0.25113457
H       -0.65646888      10.15250129       8.35257597       0.13846412       0.28704510       0.21226852      -0.01351161      -0.09435175      -0.21797816
H        4.24082915      12.75857881       3.92804487       1.05844414      -0.35172538       0.07342727      -0.03717090      -0.04313123      -0.09766842
H        1.23426501      11.75258967       8.48117284       0.37162563       0.00776207      -0.05609356       0.05564567       0.02988161       0.17615122
H        7.11978608      12.05240694       3.22788493      -0.56671605       0.46858871      -0.14610066       0.00712371       0.02990126       0.12848815
H        1.19290407      10.91036808       6.98542187       0.09249088       0.20346018      -0.62152361       0.01726188       0.07251790      -0.04225966
H        6.21002548      13.40923718       2.58850114       0.06584381      -0.78999251       0.15412853       0.01175678      -0.05110287      -0.22200120
H        2.38020831      10.49475321       8.08308520       0.31028370      -0.09943396       0.40322843       0.07953861      -0.01996488       0.04074360
H        5.83737231      11.76316697       2.20501342       0.04860329       0.68001553       0.64466881       0.03204468       0.12336613      -0.08298985
C        0.38302834       9.82227955       8.59763843       0.41775841      -0.14750174      -0.37368537       0.34362179       0.03553976       0.17651556
C        5.28334901      12.40401059       4.18929688      -1.30653408      -0.03512373      -0.04501572       0.12831585      -0.57142214       0.06781210
Pb       3.00879044       7.68455118       4.02805958       0.03954781      -0.45803271       0.01576304       0.90547717      -0.95194191      -1.01296319
Pb       7.02211376       7.49772949       3.57735014      -0.42883221      -0.07562827       0.07650148       0.75425185       3.00187160      -0.50706974
N        1.39376586      10.81800418       7.99293396      -1.27191475      -0.33202206       0.41548905       0.52632154       0.06663167      -0.18227371
N        6.15691807      12.41590213       2.98097907       0.27994495      -0.47024519      -0.38517820      -0.76857692       0.39220957      -0.33802512
I       14.14032658       0.86922017       1.55380126       0.00341840       0.00437044       0.14115839      -0.51769470      -1.99355885       0.35792026
I        8.53386306       6.45950579       1.19851945       0.21699223      -0.14275344      -0.18571749      -1.09605501      -0.07524476       1.94245416
I       12.98779752       1.64875510       5.54908301       0.19075902      -0.31806707       0.35709794       0.44634626      -0.87802010       1.59200841
I        8.98467667       5.71959623       5.37802042      -0.06856056       0.17164956       0.24133278       0.32335439       0.88413617      -1.65329629
I       12.46909348       4.72976480       2.90709799       0.23927388       0.27054049      -0.02009111       0.22688603       1.25179037      -0.64541300
I        9.41959015       2.64162235       8.40520641      -0.03830297      -0.49348882       0.18137618      -2.41108979      -1.07756427       0.27820065
H        8.46376343       2.48318013       4.04734462      -0.33075461       0.17252291      -0.14304271      -0.00123899       0.03282768       0.02427507
H       12.21904247       5.28973036      14.92407379       0.26259693       0.24755580      -0.00366617       0.05187740      -0.23284573      -0.04169547
H        9.64138363       2.13368129       5.40687253      -0.07880035       0.16044409      -0.33219234       0.14801792       0.02344678      -0.03272618
H       14.10225894       4.60021159      -0.27141474      -0.09345136       0.37679073      -0.24575600       0.08421942       0.06353677       0.25563264
H       10.03509293       3.40893374       4.20433728       0.13987470       0.75371282      -0.28781629      -0.02687813       0.16720346      -0.06959139
H       11.06781819       3.94933243      15.78595023       0.37138759      -0.10278488      -0.20887545      -0.07728284      -0.23814026      -0.08173572
H       10.18160608       1.72251221       2.47394426       0.09477575      -0.17546414      -0.19349532       0.10255865      -0.30909617       0.17555815
H        9.90746744       5.95731378      15.92119661      -0.17609384      -0.47651342       0.00037725       0.11970795      -0.10421983       0.12720784
H        9.89868981       0.42154795       3.55076352      -0.11764099       0.12052159       0.31407394       0.00618969       0.03146385       0.03787511
H       12.62664625       6.76297279      -0.31158698       0.37747968       0.12385028      -0.31165429       0.08909620      -0.02764073       0.10240993
H       11.22130516       1.46691775       3.78089047       0.39092082      -0.54066365       0.07380364       0.07554221       0.25482058       0.06553797
H       11.98713144       5.36238845       0.42185119      -0.56309245       0.00224502       0.24496372       0.01679678       0.06050895       0.35859840
C        9.52197214       2.46187966       4.33653374      -0.03241757      -1.74373126       0.68340797       0.12212447       0.47499394      -0.13728557
C       11.79445218       4.89437405      15.96291456      -0.89766851      -0.92061651       0.02389778      -0.12321943      -0.36317525       0.50965117
Pb      11.10147040      14.65437594       7.87833338      -0.14463335       0.69223047      -0.30955942      -1.91600100      -0.85800658       0.31186497
Pb       7.16801536      14.89447282       7.98287775       0.09514167       0.13424544      -0.04872126       1.80185271      -1.10924569      -0.23242062
N       10.23354596       1.40451686       3.48053934      -0.17400434       1.22643087      -0.51807639      -0.57034439       0.14583608      -0.15135059
N       12.22102083       5.76749653      -0.55370043       0.77973826       0.75001906       0.56824553      -0.43056009      -0.63181443       0.72718032
I       12.64569728       8.51400369       5.73613569       0.01015104      -0.00342557      -0.01513592       0.83692339      -0.10929355      -2.08951585
I        8.99728249      13.54942751       5.65076027       0.02940807       0.03112365      -0.21253290      -2.65686988       0.71498982       0.45524934
I       12.86775619       8.97934962       1.23144975      -0.14343734       0.09069273      -0.02209933       1.80117609      -1.17730677      -0.57583344
I        9.95295134      13.03637246       1.11492219       0.02181235      -0.25346477       0.27068281       0.06491324       0.25036534      -2.91325487
I       12.29536559      12.32400483      15.93742639       0.15231609      -0.14350259       0.08262032       1.05791980       0.25807991      -0.87704043
I        8.89184456      10.07561892       3.56575783       0.02866209       0.05705667      -0.05260026      -2.70126996       0.36619654       0.74133438
H        8.89126675       9.29573880       8.65589483       0.01743129      -0.20785001      -0.86520200       0.11604361       0.09731866       0.03681678
H       12.18000501      12.70916180       3.49617267       0.34303507      -0.20333084      -0.15533531       0.15562704      -0.02714879       0.18106712
H        7.70189808       9.87626459       7.45111981      -0.26603158       0.28433591      -0.13015599      -0.04685823      -0.01754023      -0.31344698
H       13.18498783      11.49489293       4.32310011       0.00775374      -1.59703769       0.63914056       0.01189920       0.07356298       0.09085277
H        8.56596177       8.41436939       7.08655721       0.36228080      -1.28212565      -0.47422158       0.05799381      -0.02302689       0.08622114
H       13.70103367      13.22928880       4.31324411      -0.26821009      -0.26901146       0.19104440      -0.08078800      -0.06902719       0.12347827
H        9.74074398      11.13045763       7.42773201       0.24212142      -0.69344943      -0.11616187       0.05036733      -0.05211300      -0.04252495
H       13.67058766      11.44639562       1.88026186       0.66894552       0.24591853       0.82095146       0.01758594       0.03078317      -0.06643604
H        9.48238170      10.50044577       5.87381294       0.01913078      -0.48671645       0.41755236      -0.03936199       0.03938828       0.11544158
H       15.00812946      11.95900663       2.90102791       0.07218802      -0.19585542      -0.49201319      -0.22485949      -0.11336518       0.04996019
H       10.68565087       9.75638450       6.91018868      -0.14312306       0.12116991      -0.10440236      -0.06441603       0.01399148      -0.04169350
H       14.11351852      13.10363024       1.94629873       0.01485545      -0.01643455       0.36709662       0.03100533      -0.13897344      -0.10766437
C        8.66214382       9.35601350       7.55517271       0.12853241       1.48637617       1.30903597       0.43298543       0.33306086      -0.17002116
C       13.20573922      12.38558573       3.75484875      -0.19285202       2.37880546      -0.29987228       0.18862876      -0.75617579      -0.53861147
Pb      10.86589847       7.37192648       3.40443319      -0.05949901      -0.01155160      -0.20599245      -1.57510639       2.95500549       0.54427626
Pb      14.74673879       7.30863068       3.30165424      -0.31551759      -0.19893356       0.10060974       0.43922106      -1.01884442      -0.95669855
N        9.72483571      10.20785040       6.90304634      -0.28901499       1.01380023       0.21000366      -0.12560633       0.72093516      -0.06918272
N       14.05878386      12.21086691       2.54032258      -0.65434321      -0.44809914      -1.15019383      -0.58613771      -0.39037397       0.27488207
I        5.52134362       0.99924371      10.37561664      -0.09577591       0.04554303       0.16425870      -0.92854522      -0.31790192      -1.76856198
I        0.07630401       6.39419199      10.48385467       0.06872742      -0.07198124      -0.20973677      -0.27837989      -1.75632455       0.12593689
I        4.67992843       1.63727998      14.57803435      -0.11670126       0.03351161      -0.20089467       0.32207469       0.57340968       0.12826972
I        0.18220047       6.23101619      14.77854213       0.22227834      -0.03061717       0.06182250      -1.11148397      -0.26630879       0.60950558
I        4.12227516       5.03970523      12.26042141       0.03236166       0.10079347      -0.30935002       1.49307459      -0.23714059      -1.63454414
I        2.54374219       2.66269623       0.16157221      -0.34594873       0.01414673       0.02488378       1.01678024      -0.00391664       0.55839975
H        1.24687706       3.87896561      12.48496126      -0.04725198       0.23456971      -0.31452423       0.00117322      -0.08412117       0.18188467
H        4.59463464       5.74599243       6.72423071       0.03141828      -0.11440805      -0.68411351       0.03521597      -0.20510196       0.15709029
H       -0.17279967       2.64334650      12.94516886       0.54270040       0.41599534      -0.04396710       0.12304519      -0.12322852      -0.07237600
H        5.47403593       5.08405271       8.23315740      -0.83438157      -0.06854387      -0.15366699      -0.20364703      -0.17601320       0.03591351
H        1.33162359       2.90079041      14.03755425       0.00023178       0.07202087      -0.04529806      -0.17572382       0.01690697      -0.02094760
H        3.94490925       4.17832262       7.54975666      -0.09062727      -0.42842544       0.18618710      -0.22954908      -0.01427177      -0.14776005
H        1.57140176       1.98060922      11.17740279       0.01807823      -0.67867567      -0.51159176      -0.05038032      -0.06722249       0.04262028
H        3.79584275       7.10517483       8.52926148       0.65971445      -0.23317585      -0.14333044       0.06722070      -0.08499733      -0.06313416
H        1.31038399       0.85808342      12.59396789       0.44071176       1.08045296      -0.80198209       0.03084015       0.03124270       0.08298946
H        3.60895655       5.85759878       9.57991419      -0.20355151      -0.47364572       0.16517035      -0.00304863       0.06986254      -0.09134976
H        2.70165112       1.86831287      12.43168025      -0.18126077      -0.14267552      -0.21133369      -0.01679479      -0.14255599      -0.18106447
H        2.61596782       6.05706599       8.18686567      -0.04451561      -0.33605651       0.30386236      -0.06983235       0.13096977      -0.01912423
C        0.97599674       2.91463017      12.94650554      -0.78247646      -0.83498788       0.59674681      -0.25145802       0.05628220       0.24030329
C        4.46376387       5.18206229       7.71428153       0.95018794       0.94005420       0.62798273       0.23656287      -0.74354201      -0.04549931
Pb       2.54146190      14.90609653      16.52090671       0.04441852       0.04045446       0.11510718       0.93817123      -1.65249918      -0.14660123
Pb      -1.49852021      15.19636656      16.92413565       0.10311698       0.16577099      -0.23518353       1.21122777      -0.28722218       1.78666161
N        1.67981545       1.80357088      12.19561930       0.06735838      -0.13139201       1.45903566       1.01002383       0.63871259      -0.12941059
N        3.58727526       6.06814021       8.56863193      -0.27069999       0.53185790      -0.24690025      -0.37623643      -0.13885042       0.01858701
I        4.33136122       8.64397358      14.60929434      -0.01558829       0.08611433       0.24847959      -0.61100746       1.19854780       0.57365838
I        0.13533761      14.03499556      14.33889588       0.19785200       0.02451342      -0.03941865      -0.25291977      -0.41988814      -1.72698434
I        3.99459235       8.96512862      10.10077367       0.00418995       0.24159420       0.18656216      -0.39259037       0.74051347       1.33662938
I        1.32819147      13.37423306      10.17378349      -0.13520744       0.01492274       0.09930251      -1.36171281      -1.48327287       1.83578674
I        5.18095116      12.31758652       7.99614784       0.03279317      -0.12972860      -0.13260463      -1.36966087      -0.30120283       1.64311040
I        0.28063982      10.05440861      13.07961382      -0.19171619       0.46427596      -0.15184056      -0.84985239      -0.16576939      -1.95280367
H       -0.20664021       8.86029469      16.67733969       0.19892889      -0.20213580      -0.00069088       0.13411165       0.09144592      -0.05137387
H        4.48940456      11.42151969      13.21278053       0.15136173       0.19891483      -0.39175068      -0.08432393      -0.05183843       0.00631405
H        1.28579793       9.71399498       1.11705434      -0.08936403       0.10588375       0.02572881       0.04894974      -0.04448529      -0.01830403
H        4.96853785      13.10953663      13.48476407       0.19609425       0.18635584       0.06128074       0.07694534       0.01822182      -0.25113457
H       -1.38169080      10.17311622      16.90954419       0.13846412       0.28704510       0.21226852      -0.01351161      -0.09435175      -0.21797816
H        3.51560723      12.77919374      12.48501309       1.05844414      -0.35172538       0.07342727      -0.03717090      -0.04313123      -0.09766842
H        1.95948693      11.73197474      -0.07579538       0.37162563       0.00776207      -0.05609356       0.05564567       0.02988161       0.17615122
H        6.39456416      12.07302187      11.78485315      -0.56671605       0.46858871      -0.14610066       0.00712371       0.02990126       0.12848815
H        0.46768215      10.93098301      15.54239009       0.09249088       0.20346018      -0.62152361       0.01726188       0.07251790      -0.04225966
H        5.48480356      13.42985211      11.14546936       0.06584381      -0.78999251       0.15412853       0.01175678      -0.05110287      -0.22200120
H        1.65498639      10.51536814      16.64005342       0.31028370      -0.09943396       0.40322843       0.07953861      -0.01996488       0.04074360
H        5.11215039      11.78378190      10.76198164       0.04860329       0.68001553       0.64466881       0.03204468       0.12336613      -0.08298985
C        1.10825026       9.80166462       0.04067021       0.41775841      -0.14750174      -0.37368537       0.34362179       0.03553976       0.17651556
C        4.55812709      12.42462552      12.74626510      -1.30653408      -0.03512373      -0.04501572       0.12831585      -0.57142214       0.06781210
Pb       2.28356852       7.70516611      12.58502780       0.03954781      -0.45803271       0.01576304       0.90547717      -0.95194191      -1.01296319
Pb       6.29689184       7.51834442      12.13431836      -0.42883221      -0.07562827       0.07650148       0.75425185       3.00187160      -0.50706974
N        0.66854394      10.83861911      16.54990218      -1.27191475      -0.33202206       0.41548905       0.52632154       0.06663167      -0.18227371
N        5.43169615      12.43651706      11.53794729       0.27994495      -0.47024519      -0.38517820      -0.76857692       0.39220957      -0.33802512
I       13.41510466       0.88983510      10.11076948       0.00341840       0.00437044       0.14115839      -0.51769470      -1.99355885       0.35792026
I        7.80864114       6.48012072       9.75548767       0.21699223      -0.14275344      -0.18571749      -1.09605501      -0.07524476       1.94245416
I       12.26257560       1.66937003      14.10605123       0.19075902      -0.31806707       0.35709794       0.44634626      -0.87802010       1.59200841
I        8.25945475       5.74021116      13.93498864      -0.06856056       0.17164956       0.24133278       0.32335439       0.88413617      -1.65329629
I       11.74387156       4.75037973      11.46406621       0.23927388       0.27054049      -0.02009111       0.22688603       1.25179037      -0.64541300
I       10.14481207       2.62100742      -0.15176181      -0.03830297      -0.49348882       0.18137618      -2.41108979      -1.07756427       0.27820065
H        7.73854151       2.50379506      12.60431284      -0.33075461       0.17252291      -0.14304271      -0.00123899       0.03282768       0.02427507
H       12.94426440       5.26911543       6.36710556       0.26259693       0.24755580      -0.00366617       0.05187740      -0.23284573      -0.04169547
H        8.91616171       2.15429622      13.96384075      -0.07880035       0.16044409      -0.33219234       0.14801792       0.02344678      -0.03272618
H       13.37703702       4.62082652       8.28555348      -0.09345136       0.37679073      -0.24575600       0.08421942       0.06353677       0.25563264
H        9.30987101       3.42954867      12.76130550       0.13987470       0.75371282      -0.28781629      -0.02687813       0.16720346      -0.06959139
H       11.79304012       3.92871750       7.22898200       0.37138759      -0.10278488      -0.20887545      -0.07728284      -0.23814026      -0.08173572
H        9.45638416       1.74312714      11.03091248       0.09477575      -0.17546414      -0.19349532       0.10255865      -0.30909617       0.17555815
H       10.63268937       5.93669885       7.36422838      -0.17609384      -0.47651342       0.00037725       0.11970795      -0.10421983       0.12720784
H        9.17346789       0.44216288      12.10773174      -0.11764099       0.12052159       0.31407394       0.00618969       0.03146385       0.03787511
H       11.90142433       6.78358772       8.24538124       0.37747968       0.12385028      -0.31165429       0.08909620      -0.02764073       0.10240993
H       10.49608324       1.48753268      12.33785869       0.39092082      -0.54066365       0.07380364       0.07554221       0.25482058       0.06553797
H       11.26190952       5.38300338       8.97881941      -0.56309245       0.00224502       0.24496372       0.01679678       0.06050895       0.35859840
C        8.79675022       2.48249459      12.89350196      -0.03241757      -1.74373126       0.68340797       0.12212447       0.47499394      -0.13728557
C       12.51967411       4.87375912       7.40594633      -0.89766851      -0.92061651       0.02389778      -0.12321943      -0.36317525       0.50965117
Pb      10.37624848      14.67499087      16.43530160      -0.14463335       0.69223047      -0.30955942      -1.91600100      -0.85800658       0.31186497
Pb       6.44279344      14.91508775      16.53984597       0.09514167       0.13424544      -0.04872126       1.80185271      -1.10924569      -0.23242062
N        9.50832404       1.42513179      12.03750756      -0.17400434       1.22643087      -0.51807639      -0.57034439       0.14583608      -0.15135059
N       11.49579891       5.78811146       8.00326779       0.77973826       0.75001906       0.56824553      -0.43056009      -0.63181443       0.72718032
I       11.92047536       8.53461862      14.29310391       0.01015104      -0.00342557      -0.01513592       0.83692339      -0.10929355      -2.08951585
I        8.27206057      13.57004244      14.20772849       0.02940807       0.03112365      -0.21253290      -2.65686988       0.71498982       0.45524934
I       12.14253427       8.99996455       9.78841797      -0.14343734       0.09069273      -0.02209933       1.80117609      -1.17730677      -0.57583344
I        9.22772942      13.05698739       9.67189041       0.02181235      -0.25346477       0.27068281       0.06491324       0.25036534      -2.91325487
I       13.02058752      12.30338990       7.38045816       0.15231609      -0.14350259       0.08262032       1.05791980       0.25807991      -0.87704043
I        8.16662264      10.09623385      12.12272605       0.02866209       0.05705667      -0.05260026      -2.70126996       0.36619654       0.74133438
H        9.61648867       9.27512387       0.09892661       0.01743129      -0.20785001      -0.86520200       0.11604361       0.09731866       0.03681678
H       11.45478309      12.72977673      12.05314089       0.34303507      -0.20333084      -0.15533531       0.15562704      -0.02714879       0.18106712
H        6.97667616       9.89687952      16.00808803      -0.26603158       0.28433591      -0.13015599      -0.04685823      -0.01754023      -0.31344698
H       12.45976591      11.51550786      12.88006833       0.00775374      -1.59703769       0.63914056       0.01189920       0.07356298       0.09085277
H        7.84073985       8.43498432      15.64352543       0.36228080      -1.28212565      -0.47422158       0.05799381      -0.02302689       0.08622114
H       12.97581175      13.24990373      12.87021233      -0.26821009      -0.26901146       0.19104440      -0.08078800      -0.06902719       0.12347827
H        9.01552206      11.15107256      15.98470023       0.24212142      -0.69344943      -0.11616187       0.05036733      -0.05211300      -0.04252495
H       12.94536574      11.46701055      10.43723008       0.66894552       0.24591853       0.82095146       0.01758594       0.03078317      -0.06643604
H        8.75715978      10.52106070      14.43078116       0.01913078      -0.48671645       0.41755236      -0.03936199       0.03938828       0.11544158
H       14.28290754      11.97962156      11.45799613       0.07218802      -0.19585542      -0.49201319      -0.22485949      -0.11336518       0.04996019
H        9.96042895       9.77699943      15.46715690      -0.14312306       0.12116991      -0.10440236      -0.06441603       0.01399148      -0.04169350
H       13.38829660      13.12424517      10.50326695       0.01485545      -0.01643455       0.36709662       0.03100533      -0.13897344      -0.10766437
C        7.93692190       9.37662843      16.11214093       0.12853241       1.48637617       1.30903597       0.43298543       0.33306086      -0.17002116
C       12.48051730      12.40620066      12.31181697      -0.19285202       2.37880546      -0.29987228       0.18862876      -0.75617579      -0.53861147
Pb      10.14067655       7.39254141      11.96140141      -0.05949901      -0.01155160      -0.20599245      -1.57510639       2.95500549       0.54427626
Pb      14.02151687       7.32924561      11.85862246      -0.31551759      -0.19893356       0.10060974       0.43922106      -1.01884442      -0.95669855