768
Lattice="31.343885341238796 -0.47746557187201905 -1.6062135899949226 -0.40744855527168355 29.62807268781774 -0.02279442302894619 -1.4504438450383712 0.04122985736401602 17.113936445534993" Properties=species:S:1:pos:R:3:forces:R:3:momenta:R:3 energy=-3328.2610568257624 stress="0.0 0.0 0.0 0.0 0.0 0.0 0.0 0.0 0.0" pbc="T T T"
I        6.70670832       1.02658235       1.99757157      -0.14954449       0.01155182       0.21840202       0.68525033      -1.39943924      -1.40072069
I        1.33051069       6.12810823       2.04369633       0.10133444       0.30713207       0.38608305       2.05896789       1.69117434       0.71152592
I        5.74528021       1.33776933       6.04946290       0.04631151       0.25525627      -0.19587044      -0.15148144       2.47753166      -3.10950274
I        1.18476066       6.22201764       6.41228846       0.05286064      -0.15112619       0.11014293       1.20470706       2.21299886      -2.46906339
I        5.40709231       4.99514890       3.84953887      -0.10125735       0.05235079       0.08767436       2.09987051      -0.35412334       3.13556039
I        1.80431561       2.72327455       9.09220292       0.10234975      -0.13009689      -0.35093577       1.39609629       2.08710294      -0.06824587
H        1.77017021       3.93870399       4.03451601       0.10665185      -0.30508737       0.86313370      -0.32884109      -0.00914141       0.30895869
H        4.24856280       4.68604657      15.76979479       0.00385886       0.41948195      -0.01652740       0.14431380       0.08291761      -0.20333214
H        0.64438594       2.52528476       4.20973054       1.19141515      -0.24493634       0.38178571       0.04373583       0.29207436      -0.11188827
H        5.70271908       5.32939625      16.99486964       0.39979034       0.20232175       0.35157970      -0.35451739       0.01394809      -0.19673574
H        1.68551723       2.90359788       5.72045520       0.09852009       0.76569761      -1.18992936       0.02873536       0.09598239       0.18742516
H        4.47418882       3.90237144      17.53218493      -0.17795874      -0.81883046       0.26120082      -0.11575729       0.37722556       0.19021680
H        2.80645193       2.01966510       3.08686309       0.47185319      -0.35190091       0.30527919       0.12900852      -0.15979731       0.09232708
H        3.83612364       6.86396255      17.31720234       0.58295843       1.13817798      -0.57380459      -0.18585402      -0.09717673       0.00843026
H        2.47027694       1.02178946       4.51502672       0.95186893       0.48247855      -0.45528781      -0.23744240       0.11933586      -0.17006850
H        3.71894003       5.79366675      18.56049304      -0.45229086      -0.11314259       0.07931326       0.16962867      -0.08635487       0.20904647
H        3.67661108       2.29652855       4.66048178       0.32440844      -0.54088544      -0.48912035      -0.05860209      -0.07573068       0.24763544
H        2.66011827       5.69632628      17.15632917       0.09680546       0.00645073       0.25751601      -0.16644967      -0.07513683       0.40910405
C        1.67709940       2.90328857       4.57968528      -1.66089468       0.88254534       0.42712870       0.47972753       0.30049650      -0.39343277
C        4.60853534       4.90123211      16.91705276      -0.72972699       0.32354408      -0.55979176      -0.12049348       0.56087484       0.12852509
Pb       3.65889180      14.85638511       8.05081551       0.12601527       0.10191557       0.19949280       2.55239299       1.07760086      -2.04436241
Pb      -0.22821920      14.60459158       8.19804975      -0.26177336       0.21900361      -0.05307238      -0.28418847       0.55303294      -2.50942276
N        2.78372728       1.98252192       4.14808364      -1.45563441      -0.79887823       0.05905264       0.21210424       0.17411723       0.34507160
N        3.63493817       5.89553511      17.51663464       0.11454365      -1.30458383       0.01653544       0.04012576      -0.66510324       0.93562017
I        5.25541342       8.48006560       6.85968469      -0.08351133      -0.16896463      -0.31841480       0.64739488       1.05528378       2.72762943
I        1.72167477      13.73171360       5.78965469       0.06236154      -0.01007083      -0.07281272       1.40570757      -1.39808138      -0.24620717
I        4.99796743       9.20521142       2.14243099       0.16788315      -0.00219152      -0.15230629       2.20434446      -0.41214066      -0.97878085
I        2.15901320      13.20803082       1.77877121       0.50783968       0.02846611      -0.29191190      -1.49660728      -1.06393794       0.24291689
I        4.95950751      12.51324939      16.54775015      -0.23526485      -0.72853297      -0.10021386       0.56209024      -0.11093973      -1.82630651
I        1.62551315      10.18876623       4.46176482      -0.23710746      -0.34129005       0.16591077       2.11456691      -0.49690591      -1.30882522
H        1.07791785       8.63160924       7.84135090      -0.19250556      -0.69256724      -0.10115526       0.18234748       0.16576686      -0.13047838
H        5.49165138      11.17316475       4.49429225      -0.43590940      -1.06271591       0.39072839      -0.04854685      -0.09757066       0.14158177
H        0.95549872       9.17908586       9.58467679       0.02230980      -0.07367594       1.29057534       0.25720137      -0.06895928       0.01541681
H        5.68575567      12.84533938       5.00243735       0.00649096       0.08870259      -0.06164290       0.03431204      -0.23115422       0.02472612
H        0.03795006      10.03973362       8.30951880      -0.11952384       0.03698449      -0.06762101      -0.36877892      -0.25075527       0.15403821
H        4.53219531      12.47526616       3.61310638       0.21447418      -0.39782225       0.05968668      -0.07404229      -0.21587111       0.22140966
H        1.85508741      11.41648769       8.67797699       0.56534253      -0.01333519       0.35089898       0.00776155       0.10279572       0.11852730
H        7.62558424      12.07571279       3.55762309      -0.85452223      -0.33363315      -0.31448236      -0.03061073       0.02421971       0.07842414
H        2.27586057      10.46784217       7.27177601      -0.15263275       0.28706948      -0.61164755       0.05986047       0.09448942      -0.13696692
H        6.70956093      13.25874571       2.74643038      -0.21412584      -0.28767757       0.26750505       0.07054308      -0.28024624      -0.22195557
H        3.04532696      10.06358205       8.68853039      -0.61083302       0.66466683       0.38139191      -0.15423585       0.20928281       0.52010523
H        6.37235624      11.68780509       2.33396303       0.67402015      -0.43806154      -0.27864235       0.17701622       0.16833577       0.01326582
C        0.96117813       9.50446558       8.53712858      -0.36272136       0.11836149      -0.46998333       0.77278795      -0.91099656       0.44412035
C        5.48430796      12.16780159       4.13080510       0.48209995       1.48985416       0.06048520       0.25948137       0.18413458      -0.22928143
Pb       3.28925012       7.50394242       4.32526479      -0.25334822      -0.18702486      -0.00882604       2.30088392       4.37750093      -3.02947207
Pb       7.08913501       7.74419294       4.17415891       0.33188791      -0.23921547       0.08068945       0.40061195       1.36335250       0.66658398
N        2.11708631      10.43884056       8.30637764       0.85811383      -0.30447864      -1.00892102      -0.41613625       0.20116733       0.34841244
N        6.64642911      12.27804160       3.13726691       0.13356185       1.07757165      -0.09348187       0.48696288       0.75945436       0.17775373
I       14.83368197       1.19189202       1.40453325      -0.24781145      -0.01357646       0.14909868       1.38063212      -3.10156317      -0.30342007
I        8.92320318       6.65410732       1.74778262       0.01155160       0.04146206       0.09612370       3.18889353       0.48888751      -0.02496988
I       13.72045089       1.12328156       5.51464276       0.09906108      -0.03860504       0.24600719      -0.58768056      -1.46530642      -1.50980153
I        9.11637111       5.90031454       6.11496520      -0.02221197       0.13683027      -0.15865286      -1.11996874      -2.50446385       1.53501812
I       12.89428028       4.85877148       3.49401885      -0.19606985       0.04090735      -0.42937894       2.46384176      -0.31189555       0.48291886
I       10.02955064       2.29984715       8.11723206      -0.08721602       0.40718685       0.35880342      -0.83379370      -1.09765806      -1.07832353
H        8.50462153       1.95346142       4.09261233       0.82445069       0.11898383      -0.24045580      -0.16524072       0.00344751       0.07533459
H       11.61771686       4.51981849      14.95188527       0.14183171      -0.31103647       0.21670036       0.03960578       0.09448877      -0.02767424
H       10.49261463       3.50531886       4.85455961      -0.17516663      -0.04405194       0.15044113       0.26599058       0.22041909       0.20558588
H       13.44007514       5.26084570      15.93460094      -0.16474473      -0.20748152       0.11296892      -0.13959335       0.02820593      -0.28803698
H        9.45526126       3.87685693       2.60320507      -0.33496406       0.64924584      -0.31310889       0.26849805       0.17604314       0.02291008
H       12.12902178       3.72409509      16.92778602       0.38408118       0.73283733      -0.02860821      -0.15830399       0.07214343      -0.08955179
H       10.54992310       1.71714514       2.08899113      -0.06462203      -0.27756423       2.00953580       0.00599889       0.06981398       0.27556320
H       10.47679139       5.65086235      16.63633840      -1.93367820      -0.15707674      -0.25431009       0.18324171      -0.03640355       0.07718720
H       10.88101888       0.91528845       3.83821477      -0.35784628      -0.58195393       0.30622983       0.34388580      -0.17231717      -0.03184665
H       11.67366544       6.85344315      16.12684866       0.16018424      -0.41004025      -0.11631426      -0.00376423       0.13272855       0.16730766
H       11.90068505       2.42174080       3.25926169      -0.58166171       0.20230887       0.28783920      -0.15265723      -0.18967997      -0.25082208
H       11.80663692       6.07076693      17.82094223      -0.48368040      -0.28236146       0.26155070      -0.00327755       0.30129488      -0.21624641
C        9.69558926       2.91012893       3.71334740       1.21436458      -1.69791236       0.26032612       0.01511000       0.20833542      -0.33710942
C       12.23128361       4.74744779      16.11304207       0.01830649      -0.30413852      -0.77143581       0.12833916       0.07050906       0.32729979
Pb      11.49202995      15.08452614       7.98825715      -0.00060351      -0.33925328      -0.16828156       1.62939696      -0.86899378      -3.26740974
Pb       7.57021421      14.77994993       8.06077079       0.30543476       0.18088863       0.13791428      -2.00349855       1.02577527      -1.44045261
N       10.82855902       1.90605368       3.23782618      -0.55759968       1.59597699      -2.36740311       0.64322337      -1.10861588      -0.34114820
N       11.48595421       5.88063734      16.73412251       1.84360082       0.80554146       0.80887904       1.10306067      -0.02780130      -0.32971536
I       13.33593961       8.32620188       6.23405480      -0.07524085       0.01625747      -0.27424852      -3.46721277      -1.97477319      -0.11378677
I        9.42237499      13.77269446       5.62904097       0.12596852       0.15468067       0.18830683      -0.30115059      -4.54342331      -0.91247159
I       12.83497627       9.13550887       1.65955864      -0.19492009      -0.30442802       0.12657196       2.16961168       2.27535992       1.21816524
I       10.09220318      13.06724281       1.37959903      -0.23406853      -0.04456083       0.19131183      -2.11658104      -1.04423391       0.47470145
I       12.24601075      12.01576893      16.29595080       0.12999364       0.03584051      -0.33167042      -1.72264912       0.93189622      -0.44856380
I        9.34780521      10.20634213       4.54766605      -0.12400422      -0.12774502      -0.07625434       2.60704961      -0.87657087      -0.04274717
H        8.94526863       9.66827231       9.33924543      -0.58068972      -0.21497264       0.82673808       0.03488814       0.03941234       0.09866176
H       12.24697998      13.12759011       3.49798653      -1.89640397       0.59430911      -0.77701338      -0.23050734      -0.09718031       0.11535004
H        8.19161971       9.77724567       7.51611305       0.59966061      -0.21531704       0.30799104       0.06067155      -0.03495826       0.00298321
H       12.84868383      11.87355117       4.73919152       0.14900570       0.54446603      -0.11930401      -0.17674265      -0.03925617      -0.08437405
H        9.50780945       8.39597992       7.99519848       0.01716853      -0.10924555      -0.20284116      -0.08108116       0.01236048       0.09230784
H       13.63068355      13.65353737       4.37680281       0.33910696       0.31507570       0.56845203      -0.23881201      -0.04363250       0.00014541
H       10.24175114      11.32601078       8.46766858      -0.24859637       0.97491061       0.45599267       0.16510613      -0.19481349      -0.16109879
H       13.57958974      11.21130886       2.20029827       0.11882862       0.73737989       1.01606233      -0.38531475      -0.05508617      -0.16228393
H       10.72126146      10.52215542       6.93236194      -0.51785170      -0.17155309       1.60694902       0.15559679       0.09059987       0.03786336
H       14.87499564      11.45613552       3.10787226       0.93279242       0.15627923       0.43656171      -0.40824817       0.14558537       0.03970253
H       11.32500274      10.04880800       8.52048297      -1.24720316       0.26739833       0.07916386      -0.10474870      -0.28848163      -0.10605302
H       14.44903470      12.86347980       1.92126498      -0.15285155      -0.89740037       0.86231678      -0.01971809       0.00310108       0.14884611
C        9.13327732       9.47612698       8.23346534       0.92361101       1.14159634      -0.92207149      -0.24235669       0.51661190      -0.64133972
C       13.11953216      12.74293089       3.93180869       1.97557895      -1.44826362      -0.08430378       0.05738887      -0.48623382       0.94786838
Pb      10.96529311       7.51069568       4.11382609       0.24906821      -0.11532920      -0.18090208      -0.76170383       2.39748992       5.55987963
Pb      14.85528608       7.29127407       3.48901536       0.40792935      -0.20717038       0.09502685       2.97014348       3.37238031       3.86536679
N       10.40015336      10.40447601       8.03341694       0.82670452      -1.70964368      -2.26780819       0.35328420       0.15341514      -1.16665594
N       14.08262580      12.06288757       2.75244376      -1.32456189      -0.27711561      -1.61512272       0.30926627       0.39263538      -0.32576452
I        5.85981378       0.92248207      10.45058420      -0.03627438       0.12913049      -0.16117844       0.87459559      -3.94301575      -1.04641612
I        0.07735188       6.32587293      10.57483920       0.14910794      -0.12782855      -0.38328885      -2.67595136      -1.12728699      -1.23845618
I        4.90929585       1.66810130      14.66770328      -0.17256041      -0.04704216      -0.08542428       1.55739048       0.93015147      -0.71376406
I        1.03085759       5.82949715      14.86170549      -0.21051509       0.23901910      -0.15282962      -0.92105634       1.01007090       0.82470279
I        4.28098012       4.68500855      12.12646415       0.33452811       0.60922704      -0.01859552      -0.89635830       0.16899998       0.83992613
I        2.60146906       2.51901706       0.69673008      -0.16145068      -0.29676967      -0.17069743      -2.43603019      -1.05203268       0.48686819
H        1.57149050       3.34257864      12.76499936      -0.08915192       0.10055419      -0.41581195      -0.30730895      -0.29641790      -0.06239328
H        4.65281367       4.02144182       7.14491959       0.16885916      -0.10929992      -1.12273062      -0.07974936       0.02965229      -0.00479153
H        0.16283078       2.22363407      12.99371935      -0.30065152      -0.00396265       0.10658381       0.33540383       0.11438037      -0.27978299
H        6.06890284       5.14000727       8.47626554      -0.82850955      -0.43640671      -0.70174290       0.29738656       0.12818871       0.16622247
H        1.64066149       2.32453352      14.15962878      -0.24831922      -0.60842703       0.15635047      -0.16451777       0.03824820       0.14165549
H        4.97574247       3.40415005       9.18997047      -0.08185566      -0.56164708      -0.03656618      -0.18310492      -0.03359663       0.30034983
H        1.74680808       1.55578581      11.23536580       0.19780005       0.41033541      -1.76577820       0.11619647       0.07097657      -0.07291711
H        3.98059008       6.51554478       7.65702845      -0.21284154      -0.62259562       0.54669024       0.10799740      -0.01692152       0.07903615
H        1.57048141       0.44868811      12.40214440       0.26715385      -0.55843360       0.28605275      -0.09243094      -0.05907314      -0.21776951
H        4.20779237       5.88915052       9.64955270      -0.24000210      -0.03980460       1.73352084      -0.02844803      -0.05653535      -0.08721304
H        3.02363303       1.39251331      12.37305430      -1.22973885      -0.26402962      -0.25085550      -0.11872858       0.21507620       0.06518877
H        2.90386375       4.95017693       8.38139387       0.38887830       0.21683203       0.52910476      -0.07439262      -0.32974808       0.06309350
C        1.27713233       2.33382400      13.07716478      -0.52636179       2.23612040       0.96430140       0.97773788       0.02462713       0.83138719
C        4.98047303       4.40444479       8.29133211       1.51072792       0.73425166       1.48241004       0.30383163       0.49870701       0.27219409
Pb       4.19289879      14.77887491      -0.64480623      -0.33485777       0.00707438       0.45937708      -0.06406992       0.72592326      -0.38008752
Pb       0.22708180      14.89241030      -0.03435919       0.27184399      -0.10126350       0.20264798       1.14720913      -0.65705317       1.02359615
N        1.93328583       1.38689536      12.22361652       2.11373767      -1.26747667       1.42447306      -0.22601488      -0.94210942       0.81129788
N        3.94689428       5.52099346       8.57813978      -0.50621549       0.92367147      -2.49489741      -0.01139825      -0.50195936      -0.03990076
I        4.49114874       8.31866665      14.79351532      -0.03399357       0.26864180       0.24687028      -0.63022100       0.55348471      -0.16784607
I        0.36835405      13.93752179      14.58620854       0.39992059      -0.09631412      -0.41125449      -2.60064650       0.42908780      -2.84240649
I        4.47423404       9.04980070      10.39168009      -0.01960782      -0.06068071       0.16269312       2.07527464       0.53886233      -2.31993007
I        1.60039189      13.16994487      10.27179116       0.29979374       0.07055116      -0.13357384      -0.97694478       0.62381489       1.18370151
I        5.88084512      12.28750563       8.12665993      -0.41918635       0.07794240      -0.16801255      -0.36875023      -0.63658996      -0.63349434
I        0.59635808      10.17198411      13.08616605       0.03697142      -0.49095171      -0.07241141       1.64015583      -1.75295292       1.22410359
H        1.47179717       8.57999017      -0.34883299      -0.01548318       0.38218202      -0.49018138       0.11366999       0.05958604       0.21058240
H        4.68382931      11.54112066      13.24308977       0.14895847      -0.43081718      -0.04751139      -0.05309157       0.25330061       0.21303749
H        1.90580078       9.35606513       1.15418627      -0.49569104       0.73037932      -0.39364060       0.03792110       0.22379592       0.11451388
H        4.11282755      13.56579740      13.21027638      -0.05509937      -0.12439852      -0.14646145      -0.11426850      -0.13318486       0.04418553
H        0.72453688      10.23527542      -0.09633024      -0.28220358       0.03859415       0.40701430      -0.17057403      -0.20183644      -0.07837440
H        3.31145551      12.12268373      11.70703010       0.12141797      -0.08017631       0.45791583      -0.16698088       0.22831151      -0.11462616
H        3.04177444      11.17715224      -0.07341229      -0.29955700       0.33803459      -0.09873454      -0.43249255      -0.07407976       0.16562689
H        6.68208645      12.63691910      12.03729348      -0.69863977      -0.26958586       0.35330880       0.13552318       0.10501891      -0.05972095
H        2.52706165      10.39875732      -1.62099072       0.41514648       0.22853890       0.47658535       0.31757964      -0.11281559      -0.20699200
H        5.52486687      13.50470040      11.05199049      -0.41883542       0.28857616       0.22593858      -0.06281884       0.10519800       0.19796450
H        3.68825761       9.64378708      -0.50303416      -1.13188743       0.59575889      -0.52362657      -0.13663192      -0.06128518      -0.10067251
H        5.63627073      11.75201615      10.85382592      -0.25119198      -0.71814962      -0.91073040      -0.08652772      -0.11119400       0.02635210
C        1.59563387       9.59529658       0.08081490       1.43404685      -0.55579898       0.33121419       1.04893864      -0.54766847       0.55445919
C        4.34853590      12.42432515      12.53971720       0.48404242       1.01359115      -0.83057743      -0.77250453       0.61071491      -0.37721152
Pb       2.58848926       7.24524537      12.37502721      -0.11811984       0.16254684       0.35033739      -1.18120750      -2.67051444      -3.13155990
Pb       6.52234983       7.45530355      12.54703763      -0.25431468      -0.24748128      -0.57285150       0.08302529      -2.48310286      -0.22319444
N        2.80155528      10.28137034      -0.58301896       0.38181876      -1.67123413       0.26148620      -0.09472437       0.61378207      -0.22151709
N        5.62137377      12.57824178      11.58426671       0.83605745       0.18789720       1.23212629       0.33316260      -0.70607736       0.04910481
I       14.18732842       1.15703059      10.02837225      -0.03843389      -0.02094848      -0.10087285      -1.67497485      -2.11255673       0.41459310
I        8.24610438       6.03652453      10.08806753       0.04974548       0.16280032       0.37974130       1.52127981       0.16080615       0.59166711
I       13.07119068       1.28512361      14.24033446      -0.14838480       0.21436892      -0.29582541      -3.18457722      -0.68354587      -1.67960554
I        8.48156886       6.27398930      14.52855287       0.01126103      -0.40856047       0.48708428      -1.20201941       2.24795188       1.99290028
I       11.97611167       4.73304165      11.90487619       0.30689867      -0.10651018      -0.06777324       0.97319556       1.12812816       1.49691013
I       10.51707451       2.48053982      -0.18053021       0.08168450       0.37541494      -0.02831388       0.34589459      -0.87633438      -0.43469882
H        7.79574867       2.00789001      12.40207508       0.03793802      -0.10412873      -0.21688929      -0.03847097       0.03011504       0.05870426
H       13.78855815       5.18814069       6.54704826       0.06764163       0.17459872       2.47473982       0.19213936       0.31738118      -0.05545990
H        9.24826775       2.71580991      13.56448175      -0.12582328      -0.16441916       0.08121237      -0.09689557       0.03682427       0.02756335
H       13.98615078       4.48838219       8.66589583      -0.21603281      -0.36913043      -0.55470054      -0.12043928      -0.20145909       0.32776602
H        8.94769350       3.52420375      11.81999684      -0.46459830       0.41798352       0.10594213      -0.28238797      -0.10248174      -0.03130780
H       12.52834348       3.61488786       7.16124309       0.00859903       0.29238748       0.62520975       0.08222313      -0.17384737      -0.03512758
H       10.06646141       1.75068361      10.80186817      -0.22034257       0.09780283       1.26738420      -0.12537518       0.06247961      -0.27017696
H       11.20617062       5.54304510       7.70597296       0.81098238      -0.26979237       0.38009154      -0.23827038       0.08239398      -0.13687363
H        9.78722744       0.60725671      12.02260856       0.52480847       0.57199663       0.33574046       0.04305079      -0.17731282       0.08648491
H       12.37104939       6.57978415       8.38132834       0.74328044      -0.22825743      -0.42417246      -0.16954204       0.14740623      -0.22699780
H       10.85667385       2.00144179      12.27454348       1.44898729      -0.52036961       0.51488371      -0.14972788       0.18231754       0.17715604
H       11.90909486       5.26615478       9.30784462      -0.10738679      -0.15148662      -1.37029329       0.07556676       0.13133207       0.05164416
C        8.86995029       2.52716458      12.45586070       0.59822630       0.43013477      -0.04338139       0.23331888      -0.08501919      -0.18544323
C       13.17746739       4.65283297       7.64382183       0.68435922       0.35336202      -2.33064947      -0.42094837      -0.21833236       0.19885809
Pb      11.84198852      14.71167955      -0.54925043       0.49140777      -0.14244606      -0.29998797       1.07719622      -1.06786460       0.29613268
Pb       8.14019578      14.94197354      -0.47401951       0.02207008      -0.10861226       0.00584001       2.38315194      -1.20482060      -0.95756764
N        9.96966179       1.65379425      11.87541458      -1.74425922      -0.54569900      -2.02346383       0.70794788       0.15213685      -0.43659105
N       12.13505149       5.52911023       8.26313918      -2.00371699       0.14797196       1.23201824      -0.35120489       0.38444784      -0.15306327
I       12.28643288       8.59630935      14.52499309       0.15975024      -0.20155025       0.01094257      -1.77586356       0.56392059      -2.56042185
I        8.43913014      13.72757655      14.07550436      -0.27870618      -0.09425452       0.12002625      -1.92490515       1.61585586      -0.09778013
I       12.38933619       8.67656649      10.24471962       0.18762269       0.15319557      -0.15524864       0.29226980       0.30561480       0.38832058
I        9.58666618      13.11936313       9.96201111       0.14327463       0.25032900       0.03097410       1.39803962      -2.38602668      -0.09439866
I       13.28548838      12.15626833       7.77363027      -0.02725982       0.11726758      -0.23268149      -0.97450420       0.84581166      -1.29494458
I        8.44804452      10.05325594      12.20676409      -0.16135996      -0.04729732       0.29931532       1.70386529       1.16211244       1.79881651
H        9.43893235       9.94493997       0.55915856       0.23849502      -0.21523177      -0.53883847      -0.04093096       0.12472779       0.29716953
H       11.93041875      12.80041507      11.73341218       0.62399969      -0.26849027       0.50829383      -0.29992663      -0.06082443       0.01545361
H        8.50878811      10.38036685      -0.83681498      -0.56655718       0.37895041      -0.59531422       0.11035847      -0.26544374      -0.14410961
H       12.81700694      11.31369664      12.41946104      -0.44446773       0.40345626       0.30533096       0.06363209      -0.12487296      -0.03070638
H        9.38970030       8.82608435      -0.87905574      -0.21113246      -0.54837636      -0.01220271      -0.15293761      -0.11766173      -0.05921811
H       13.27616716      12.99110967      12.97462174       0.33152470       0.45787459       0.46652969       0.11360387       0.01542850       0.00990534
H       10.66620942      11.48723050      -0.89727283      -0.18132323      -0.07181612       0.05928034      -0.06713457      -0.05192336      -0.14367190
H       13.50688223      12.14038952      10.02398737      -0.52815047      -0.40045897       0.09077448       0.23958674       0.04780966       0.09891701
H       10.65755323      10.43628550      -2.23398097       0.14591509      -0.47962373       1.46247477       0.04442727      -0.00699508       0.37104570
H       14.76326513      11.75346290      11.25130740      -1.47220785       0.37791292      -0.12594737       0.12932974       0.07539752       0.03220739
H       11.45297699      10.01928339      -0.66114219      -0.31423896       0.18036436      -0.61325009      -0.15908572      -0.34516465       0.06589226
H       14.32457186      13.39688347      10.83446831      -0.33794275       0.65823590       0.02698141       0.15249908       0.03748935      -0.01968370
C        9.40321118       9.86097558      -0.55981342      -0.22449559      -0.27499028       1.25844375       0.08106128       0.90167096       0.51174077
C       12.89804208      12.39739335      12.15849206      -0.78280309      -1.21908334      -1.47889896      -0.01008022      -0.04635654      -0.53718857
Pb      10.29939474       7.37369493      12.28300726      -0.07709664       0.04269730      -0.30689191      -3.20878052       3.49179717      -1.40548260
Pb      14.32319550       7.04268016      12.27677742       0.26059231       0.10847349      -0.10356832      -2.40975257       2.24980297       1.06607014