768
Lattice="31.343885341238796 -0.47746557187201905 -1.6062135899949226 -0.40744855527168355 29.62807268781774 -0.02279442302894619 -1.4504438450383712 0.04122985736401602 17.113936445534993" Properties=species:S:1:pos:R:3:forces:R:3:momenta:R:3 pbc="T T T"
I        7.39030660       0.22660859       2.15994592       0.02251064      -0.18079520       0.02861632      -0.30369959      -1.05272979       0.14856914
I        1.85146049       5.59064055       1.98543690       0.00355965      -0.10505580      -0.20712432      -0.48663309       2.76485689      -1.45251272
I        6.50979144       0.48716620       6.03793201       0.16390230       0.18915671       0.02097584      -0.41782378      -0.87008491       0.57288979
I        2.65156404       5.24931064       6.46947954      -0.38214036       0.05117059      -0.13984793       0.25168036       0.96642664      -0.17764540
I        5.98225835       4.02379600       3.62956522       0.02391169      -0.01047382      -0.12365206      -0.86675556       0.83232367      -0.51359503
I        2.66899072       1.93252986       8.96155081      -0.06640762      -0.16183488       0.04821886       1.93958958       1.31863536       0.71932255
H        3.56753891       2.77856275       4.00205109      -0.93763183      -1.66697199       0.29795114      -0.00035191      -0.01184640       0.07962468
H        5.57884257       4.25501241      15.35414263      -0.03123919      -0.41419166      -0.40229817       0.04687060       0.02324561       0.01715175
H        1.95906253       1.70481146       4.23706687       0.08677640       0.49858333      -0.19323121      -0.03471070       0.07365130      -0.16476977
H        7.87769301       3.69897447      -0.21626683       0.67097562      -0.38552822       0.12712629       0.01658986       0.02598659       0.01068603
H        3.11651916       1.87942061       5.57543922       0.25583406      -0.03199196      -0.47955704       0.20277754       0.09430271      -0.07070904
H        4.68149698       3.05317363      16.56390955       0.36815309      -0.24037399      -0.41157123       0.17263388      -0.11295584      -0.04879733
H        3.56757925       0.64967161       2.80787758       0.35238252      -0.50000615       1.01256137      -0.01839945       0.26076340       0.02050325
H        6.76673291       5.97925479      -0.03410072       0.32850057       0.55633196      -0.37911339       0.03845950       0.01697071       0.07842308
H        2.82194739      29.33856432       4.24763688       0.38994844      -0.17888191       0.02027029       0.18832057       0.02309945       0.02211291
H        6.09956363       4.81534987       1.00342189       0.06850541       0.12590954      -0.18807529      -0.09653646      -0.01214221       0.04794826
H        4.75647502       0.64425093       4.13308896      -1.18989452      -0.57353794      -0.53269362      -0.10494932      -0.10869356      -0.05763963
H        3.84617110       5.26663530      16.67602894      -0.02564315       0.32362472      -0.05682782       0.02161079       0.02053196       0.14339550
C        3.03793759       1.83269806       4.45264540       0.27906201       1.02101501       0.48409102       0.47570274      -0.39281834      -0.24241948
C        5.45834538       3.89434197      16.38941629      -1.27303428       1.92137081       1.12685631       0.00383139       0.06745297      -0.08835046
Pb       4.37018992      14.34235347       8.28185877       0.04284065      -0.31986787       0.16155152       2.24010113      -1.79864738      -0.75115328
Pb       0.46839530      14.04677908       8.49897489       0.18566180       0.13790615      -0.10938313       0.35011904      -1.06328699      -0.42634588
N        3.70723709       0.57822039       3.88299919       0.63327849       1.61436188      -0.74883825       0.45557970      -0.79853085      -0.65381605
N        6.24457945       5.08679868      -0.00550790      -0.07907125      -2.04875471       0.38762061       0.18518503      -0.08046025      -0.22238984
I        5.87190304       7.86980529       6.37634142       0.25593615       0.03832349      -0.12321066      -1.22254467      -0.22429549       1.62820907
I        2.53030440      12.89976948       6.01517998      -0.15192210       0.03948936       0.15224450      -0.23919486      -0.81126023       3.19934490
I        6.34771475       8.02331088       1.92615085      -0.21545537       0.22641059      -0.01970472      -0.21976035      -0.40696166       0.95686954
I        3.25899069      12.46478117       1.78283641       0.03577822      -0.08120311      -0.07177376       1.28914633       1.53899412       1.14220613
I        7.05292176      11.55308576      -0.33188931       0.05045894       0.03733027       0.02616096       0.08569091      -1.24129642       1.96961385
I        2.28965167       9.31066074       4.27523099      -0.03946832       0.00129173       0.08733632       1.78767906      -0.74959949       0.08084940
H        2.18459861       7.93242489       8.28735092       0.28398248       0.43087110      -0.23660216      -0.02011438       0.05326359       0.02914591
H        6.00837335      10.51792718       4.80361897      -0.13470850       0.10661457       0.11622906      -0.19361188       0.01043471       0.17447394
H        2.64798158       8.94368366       9.70127302       0.24005529       0.06255422       0.53304199       0.00201328       0.19407309       0.15905225
H        6.31178354      12.27603172       5.10339031       0.11939984      -0.11842958      -0.33613059      -0.07517614       0.12990413       0.06222175
H        1.30916896       9.48615271       8.64318450      -0.12652548       0.05336111      -0.23478840      -0.08805935       0.12270741      -0.06601087
H        5.23641147      11.77998052       3.64448230      -0.06567870      -0.08583088       0.16391148       0.01493919       0.17197370       0.00251638
H        3.45847297      10.78863373       8.14325324      -0.36109397      -1.29010486      -0.20241372       0.00387785      -0.00285008      -0.08856752
H        8.24066290      10.96746488       3.86688562      -0.27127080       0.37111368      -0.12731375      -0.12603557       0.10646860       0.09784022
H        2.95812147       9.80529884       6.80023708       0.03804045       0.11112064      -0.56094656       0.13753206       0.03737544       0.10756341
H        7.51589235      12.20629222       2.75796910       0.03960187      -0.24365913       0.30181821      -0.24379325      -0.03531283       0.06968676
H        4.26969164       9.33916353       7.75576086       0.43734782      -0.23810449       0.18726099      -0.07568121       0.13666509       0.00648787
H        7.15203882      10.54062905       2.63497042      -0.04903349       0.04558744      -0.16326005      -0.04553196      -0.10323374       0.04930842
C        2.30785620       8.97550837       8.65308577      -0.18160316       0.06898152       0.05035422       0.27175929      -0.04239999       0.53277158
C        6.14538406      11.49743172       4.30263249      -0.11695016       0.00729661       0.12908637       0.43563474       0.36790500      -0.48605449
Pb       4.06082997       6.55200455       4.07055566       0.40552712       0.10678362      -0.04029768       1.36779802      -1.93032380      -2.93010689
Pb       8.00289442       6.47442620       4.00076213       0.17334692      -0.00443433       0.24252160       1.29590772       1.60612057      -3.05553709
N        3.30487799       9.77364112       7.80514112      -0.41086003       0.73784198       0.42391493      -0.26984975       0.04966376       0.35531430
N        7.34997563      11.32346400       3.33690314       0.45600625       0.09813923      -0.11729807      -1.06150227      -0.17649189       0.60477752
I       15.41117879       0.01299058       1.57231842      -0.10685978      -0.11222163      -0.11358648      -0.08983991       0.67474771       1.40533814
I        9.80703941       5.31738366       1.83903243       0.14151533       0.01225732      -0.00479288       0.86666134      -0.74852507       0.08251124
I       14.38745524       0.33502521       5.44093930       0.07648407      -0.03688696       0.17015685       2.10912525      -0.08645579       0.52222622
I       10.11013451       5.07355977       6.19288773       0.10123220       0.12574599      -0.07864508      -1.90628086      -0.35217427      -2.34479049
I       13.77694802       4.06541933       3.20799079       0.32196629      -0.15023589       0.01600307       1.93037459      -0.53772522      -0.50421082
I       10.92335753       1.62446172       8.47337302      -0.32694094      -0.10287647       0.10436314       0.67154620      -0.85434943      -0.15269870
H        9.62297901       1.80684472       3.52302731       0.63580964      -0.36372537       0.10180307      -0.08630508      -0.00894833       0.01022296
H       13.30588801       4.16548502      14.83388878       0.09088903       0.33316976      -1.22094085      -0.04565402       0.05485598       0.00248448
H       10.51559840       1.62379633       5.14593624      -0.11038949       0.07826576      -0.46321992       0.19098735       0.09551683      -0.05557465
H       15.68697587       3.62975250      -0.76164177      -0.85355503      -0.07214830      -0.45727196      -0.09815386       0.06519742       0.47228920
H       11.09228505       2.83191922       3.87127564      -0.25106939      -0.76708782       0.31261214      -0.02046071      -0.15194706      -0.09321177
H       12.76309734       2.70117277      15.73766316      -0.12197526      -0.12906306       0.20312001      -0.08068710      -0.04704213      -0.14147395
H       11.65405135       0.94175659       2.42312165       0.57932363       0.17847559       0.67215282       0.03780921      -0.08220033      -0.07350401
H       11.40304291       4.66712323      16.26765412      -0.30498952      -0.31383186       0.22075344      -0.00630648       0.01145283      -0.01109415
H       10.83402590      29.44977351       3.55326969       0.05397991       0.53566295       0.28419613      -0.14577627      -0.08018725      -0.05681324
H       14.07751103       5.58096396      -0.42184424       0.66990666       0.15900922       0.09043312       0.03347619      -0.12079898       0.02699366
H       12.52568037       0.83407051       3.97133887       0.13032992       0.16735948      -0.21422963      -0.18227914      -0.11209372      -0.07585776
H       13.76794525       4.21830926       0.56925139      -0.21757874       0.13786528       0.43642527      -0.00748019      -0.05955624      -0.13343115
C       10.62380475       1.81920550       4.04777854       0.46618971       0.68233624       0.09421613       0.32098107      -0.24223996       0.42192501
C       13.22811107       3.72273686      15.82473609       0.83212774       0.42001499       1.74442683      -0.05617810      -0.07079967      -0.24977459
Pb      12.30391017      13.78286581       7.77343979      -0.01986975       0.24486813      -0.10594062      -1.19978221       0.75680533       1.72728983
Pb       8.23234426      14.01750867       8.33193050       0.36480455       0.11832299      -0.24125800      -1.01007336       1.03167477      -0.02927553
N       11.60250886       0.80866497       3.47664513      -1.58532471      -0.48821626      -0.86695232      -0.11664278       0.44862544       0.20618217
N       13.80093104       4.57626739      -0.41448822      -0.02840491      -0.39161769      -0.85586244       0.23647651       0.18139504      -0.56199415
I       14.19893061       7.48901430       6.14934080      -0.05049080       0.08911552       0.12762225      -2.84708630      -0.95381501       0.56396573
I        9.92615627      13.05517775       5.62861169       0.06364315      -0.13080000       0.08208177       0.75688009      -0.53417606       0.36945277
I       13.92572201       7.99197973       1.65952150       0.01479590       0.13114503       0.06601478       1.24021200       1.34104286       0.22697444
I       11.28707298      12.23513031       1.32269622      -0.08167395      -0.08184208       0.30809730       0.85033291       0.60782729      -0.35025196
I       15.01485508      11.24746506      -0.76617296       0.05469330      -0.20471230      -0.01771773       0.12197224       0.18278990       2.28751698
I       10.03861352       9.02813261       4.08202830      -0.02461905       0.30566123       0.15692242       1.01590116       0.04943448       2.30422722
H       10.24826130       8.50501356       9.50697116      -0.26514735       0.27628769      -1.10839520       0.13514339      -0.05477064       0.18772291
H       13.50633988      11.63840031       4.31523461      -0.32095197      -0.16236185       0.17111018       0.10561105      -0.00971205      -0.13916687
H        8.84283350       9.03945807       8.43769903      -1.66297414       1.15914802      -0.66364413      -0.17636287      -0.05518412      -0.09805103
H       14.97428228      10.69313810       5.15533327      -0.14483867       0.25599207      -0.07493066       0.08093673      -0.11555844       0.35920389
H        9.85392031       7.62529870       7.99409863      -0.34877383      -0.03758474      -0.08184783      -0.07387274      -0.16206689      -0.04084974
H       15.20140119      12.61727482       4.69483478       0.02583538       0.28391791       0.65757368       0.26051719      -0.03864261      -0.09868003
H       10.76734754      10.36190385       7.95742896       0.04245887       1.94162289       0.46396477      -0.00088102      -0.10275013      -0.11076806
H       14.66508656      10.31059384       2.48520291       0.22726678       0.40711853       0.54013506      -0.07565401      -0.08865148      -0.03558473
H       10.57476004       9.45071428       6.58561795       0.24729943      -0.18833635       0.10932874      -0.12708017       0.15295267      -0.18019226
H       16.22940470      11.31811922       3.00244387      -0.64696734       0.23265908      -0.45647513       0.08804105      -0.05150659       0.19947258
H       11.82611948       9.16878004       7.82563036      -0.60057299      -0.26787936      -0.49989764       0.11637905      -0.16316381      -0.08715133
H       14.89959205      12.21043297       2.07501137      -0.11749809      -0.43218775       0.33303029       0.10972691       0.11058732       0.05945992
C        9.83634790       8.63627364       8.41648501       1.78013121      -2.50053552       2.08471932      -0.23500347       0.62330246       0.01653343
C       14.64310145      11.57616824       4.39921773       0.17614280      -0.09795564      -1.06549233       0.33703658       0.08320763      -0.18956576
Pb      12.08663255       6.52248822       4.02220651      -0.39659347      -0.17287700      -0.16592661       1.89027653      -0.74578716       1.96569086
Pb      16.05814622       6.52874404       3.63139178      -0.22210202      -0.21529865       0.03772780      -0.58501026       0.23022110      -0.47135917
N       10.80749211       9.43141287       7.62096142       0.72387303      -0.38236277      -0.42432278       0.49381503      -0.11829109       0.59441284
N       15.11654945      11.36062231       2.87947812       0.68781026      -0.57588574      -0.33140679      -0.04681779      -0.45832261       0.54151366
I        6.66508468       0.24722352      10.71691414       0.02251064      -0.18079520       0.02861632      -0.30369959      -1.05272979       0.14856914
I        1.12623857       5.61125548      10.54240512       0.00355965      -0.10505580      -0.20712432      -0.48663309       2.76485689      -1.45251272
I        5.78456952       0.50778113      14.59490023       0.16390230       0.18915671       0.02097584      -0.41782378      -0.87008491       0.57288979
I        1.92634212       5.26992557      15.02644776      -0.38214036       0.05117059      -0.13984793       0.25168036       0.96642664      -0.17764540
I        5.25703643       4.04441093      12.18653344       0.02391169      -0.01047382      -0.12365206      -0.86675556       0.83232367      -0.51359503
I        3.39421264       1.91191493       0.40458259      -0.06640762      -0.16183488       0.04821886       1.93958958       1.31863536       0.71932255
H        2.84231699       2.79917768      12.55901931      -0.93763183      -1.66697199       0.29795114      -0.00035191      -0.01184640       0.07962468
H        6.30406450       4.23439748       6.79717440      -0.03123919      -0.41419166      -0.40229817       0.04687060       0.02324561       0.01715175
H        1.23384061       1.72542639      12.79403509       0.08677640       0.49858333      -0.19323121      -0.03471070       0.07365130      -0.16476977
H        7.15247109       3.71958940       8.34070139       0.67097562      -0.38552822       0.12712629       0.01658986       0.02598659       0.01068603
H        2.39129724       1.90003554      14.13240744       0.25583406      -0.03199196      -0.47955704       0.20277754       0.09430271      -0.07070904
H        5.40671891       3.03255870       8.00694132       0.36815309      -0.24037399      -0.41157123       0.17263388      -0.11295584      -0.04879733
H        2.84235733       0.67028654      11.36484580       0.35238252      -0.50000615       1.01256137      -0.01839945       0.26076340       0.02050325
H        6.04151099       5.99986972       8.52286750       0.32850057       0.55633196      -0.37911339       0.03845950       0.01697071       0.07842308
H        2.09672547      29.35917925      12.80460510       0.38994844      -0.17888191       0.02027029       0.18832057       0.02309945       0.02211291
H        5.37434171       4.83596480       9.56039011       0.06850541       0.12590954      -0.18807529      -0.09653646      -0.01214221       0.04794826
H        4.03125310       0.66486586      12.69005718      -1.18989452      -0.57353794      -0.53269362      -0.10494932      -0.10869356      -0.05763963
H        4.57139303       5.24602037       8.11906071      -0.02564315       0.32362472      -0.05682782       0.02161079       0.02053196       0.14339550
C        2.31271567       1.85331299      13.00961362       0.27906201       1.02101501       0.48409102       0.47570274      -0.39281834      -0.24241948
C        6.18356731       3.87372704       7.83244806      -1.27303428       1.92137081       1.12685631       0.00383139       0.06745297      -0.08835046
Pb       5.09541184      14.32173854      -0.27510945       0.04284065      -0.31986787       0.16155152       2.24010113      -1.79864738      -0.75115328
Pb       1.19361722      14.02616415      -0.05799333       0.18566180       0.13790615      -0.10938313       0.35011904      -1.06328699      -0.42634588
N        2.98201517       0.59883532      12.43996741       0.63327849       1.61436188      -0.74883825       0.45557970      -0.79853085      -0.65381605
N        5.51935753       5.10741361       8.55146032      -0.07907125      -2.04875471       0.38762061       0.18518503      -0.08046025      -0.22238984
I        5.14668112       7.89042022      14.93330964       0.25593615       0.03832349      -0.12321066      -1.22254467      -0.22429549       1.62820907
I        1.80508248      12.92038441      14.57214820      -0.15192210       0.03948936       0.15224450      -0.23919486      -0.81126023       3.19934490
I        5.62249283       8.04392581      10.48311907      -0.21545537       0.22641059      -0.01970472      -0.21976035      -0.40696166       0.95686954
I        2.53376877      12.48539610      10.33980463       0.03577822      -0.08120311      -0.07177376       1.28914633       1.53899412       1.14220613
I        6.32769984      11.57370069       8.22507891       0.05045894       0.03733027       0.02616096       0.08569091      -1.24129642       1.96961385
I        1.56442975       9.33127567      12.83219921      -0.03946832       0.00129173       0.08733632       1.78767906      -0.74959949       0.08084940
H        1.45937669       7.95303982      16.84431914       0.28398248       0.43087110      -0.23660216      -0.02011438       0.05326359       0.02914591
H        5.28315143      10.53854211      13.36058719      -0.13470850       0.10661457       0.11622906      -0.19361188       0.01043471       0.17447394
H        3.37320350       8.92306873       1.14430480       0.24005529       0.06255422       0.53304199       0.00201328       0.19407309       0.15905225
H        5.58656162      12.29664665      13.66035853       0.11939984      -0.11842958      -0.33613059      -0.07517614       0.12990413       0.06222175
H        2.03439088       9.46553778       0.08621628      -0.12652548       0.05336111      -0.23478840      -0.08805935       0.12270741      -0.06601087
H        4.51118955      11.80059545      12.20145052      -0.06567870      -0.08583088       0.16391148       0.01493919       0.17197370       0.00251638
H        2.73325105      10.80924866      16.70022146      -0.36109397      -1.29010486      -0.20241372       0.00387785      -0.00285008      -0.08856752
H        7.51544098      10.98807981      12.42385384      -0.27127080       0.37111368      -0.12731375      -0.12603557       0.10646860       0.09784022
H        2.23289955       9.82591377      15.35720530       0.03804045       0.11112064      -0.56094656       0.13753206       0.03737544       0.10756341
H        6.79067043      12.22690715      11.31493732       0.03960187      -0.24365913       0.30181821      -0.24379325      -0.03531283       0.06968676
H        3.54446972       9.35977846      16.31272908       0.43734782      -0.23810449       0.18726099      -0.07568121       0.13666509       0.00648787
H        6.42681690      10.56124398      11.19193864      -0.04903349       0.04558744      -0.16326005      -0.04553196      -0.10323374       0.04930842
C        3.03307812       8.95489344       0.09611755      -0.18160316       0.06898152       0.05035422       0.27175929      -0.04239999       0.53277158
C        5.42016214      11.51804665      12.85960071      -0.11695016       0.00729661       0.12908637       0.43563474       0.36790500      -0.48605449
Pb       3.33560805       6.57261948      12.62752388       0.40552712       0.10678362      -0.04029768       1.36779802      -1.93032380      -2.93010689
Pb       7.27767250       6.49504113      12.55773035       0.17334692      -0.00443433       0.24252160       1.29590772       1.60612057      -3.05553709
N        2.57965607       9.79425605      16.36210934      -0.41086003       0.73784198       0.42391493      -0.26984975       0.04966376       0.35531430
N        6.62475371      11.34407893      11.89387136       0.45600625       0.09813923      -0.11729807      -1.06150227      -0.17649189       0.60477752
I       14.68595687       0.03360551      10.12928664      -0.10685978      -0.11222163      -0.11358648      -0.08983991       0.67474771       1.40533814
I        9.08181749       5.33799859      10.39600065       0.14151533       0.01225732      -0.00479288       0.86666134      -0.74852507       0.08251124
I       13.66223332       0.35564014      13.99790752       0.07648407      -0.03688696       0.17015685       2.10912525      -0.08645579       0.52222622
I        9.38491259       5.09417470      14.74985595       0.10123220       0.12574599      -0.07864508      -1.90628086      -0.35217427      -2.34479049
I       13.05172610       4.08603426      11.76495901       0.32196629      -0.15023589       0.01600307       1.93037459      -0.53772522      -0.50421082
I       11.64857945       1.60384679      -0.08359520      -0.32694094      -0.10287647       0.10436314       0.67154620      -0.85434943      -0.15269870
H        8.89775709       1.82745965      12.07999553       0.63580964      -0.36372537       0.10180307      -0.08630508      -0.00894833       0.01022296
H       14.03110994       4.14487009       6.27692055       0.09088903       0.33316976      -1.22094085      -0.04565402       0.05485598       0.00248448
H        9.79037648       1.64441126      13.70290446      -0.11038949       0.07826576      -0.46321992       0.19098735       0.09551683      -0.05557465
H       14.96175395       3.65036743       7.79532645      -0.85355503      -0.07214830      -0.45727196      -0.09815386       0.06519742       0.47228920
H       10.36706313       2.85253415      12.42824386      -0.25106939      -0.76708782       0.31261214      -0.02046071      -0.15194706      -0.09321177
H       13.48831927       2.68055784       7.18069493      -0.12197526      -0.12906306       0.20312001      -0.08068710      -0.04704213      -0.14147395
H       10.92882943       0.96237152      10.98008987       0.57932363       0.17847559       0.67215282       0.03780921      -0.08220033      -0.07350401
H       12.12826484       4.64650830       7.71068589      -0.30498952      -0.31383186       0.22075344      -0.00630648       0.01145283      -0.01109415
H       10.10880398      29.47038844      12.11023791       0.05397991       0.53566295       0.28419613      -0.14577627      -0.08018725      -0.05681324
H       13.35228911       5.60157889       8.13512398       0.66990666       0.15900922       0.09043312       0.03347619      -0.12079898       0.02699366
H       11.80045845       0.85468544      12.52830709       0.13032992       0.16735948      -0.21422963      -0.18227914      -0.11209372      -0.07585776
H       13.04272333       4.23892419       9.12621961      -0.21757874       0.13786528       0.43642527      -0.00748019      -0.05955624      -0.13343115
C        9.89858283       1.83982043      12.60474676       0.46618971       0.68233624       0.09421613       0.32098107      -0.24223996       0.42192501
C       13.95333300       3.70212193       7.26776786       0.83212774       0.42001499       1.74442683      -0.05617810      -0.07079967      -0.24977459
Pb      11.57868825      13.80348074      16.33040801      -0.01986975       0.24486813      -0.10594062      -1.19978221       0.75680533       1.72728983
Pb       8.95756618      13.99689374      -0.22503772       0.36480455       0.11832299      -0.24125800      -1.01007336       1.03167477      -0.02927553
N       10.87728694       0.82927990      12.03361335      -1.58532471      -0.48821626      -0.86695232      -0.11664278       0.44862544       0.20618217
N       13.07570912       4.59688232       8.14248000      -0.02840491      -0.39161769      -0.85586244       0.23647651       0.18139504      -0.56199415
I       13.47370869       7.50962923      14.70630902      -0.05049080       0.08911552       0.12762225      -2.84708630      -0.95381501       0.56396573
I        9.20093435      13.07579268      14.18557991       0.06364315      -0.13080000       0.08208177       0.75688009      -0.53417606       0.36945277
I       13.20050009       8.01259466      10.21648972       0.01479590       0.13114503       0.06601478       1.24021200       1.34104286       0.22697444
I       10.56185106      12.25574524       9.87966444      -0.08167395      -0.08184208       0.30809730       0.85033291       0.60782729      -0.35025196
I       14.28963316      11.26807999       7.79079526       0.05469330      -0.20471230      -0.01771773       0.12197224       0.18278990       2.28751698
I        9.31339160       9.04874754      12.63899652      -0.02461905       0.30566123       0.15692242       1.01590116       0.04943448       2.30422722
H       10.97348322       8.48439863       0.95000294      -0.26514735       0.27628769      -1.10839520       0.13514339      -0.05477064       0.18772291
H       12.78111796      11.65901524      12.87220283      -0.32095197      -0.16236185       0.17111018       0.10561105      -0.00971205      -0.13916687
H        9.56805542       9.01884314      -0.11926919      -1.66297414       1.15914802      -0.66364413      -0.17636287      -0.05518412      -0.09805103
H       14.24906036      10.71375303      13.71230149      -0.14483867       0.25599207      -0.07493066       0.08093673      -0.11555844       0.35920389
H        9.12869839       7.64591363      16.55106685      -0.34877383      -0.03758474      -0.08184783      -0.07387274      -0.16206689      -0.04084974
H       14.47617927      12.63788975      13.25180300       0.02583538       0.28391791       0.65757368       0.26051719      -0.03864261      -0.09868003
H       11.49256946      10.34128892      -0.59953926       0.04245887       1.94162289       0.46396477      -0.00088102      -0.10275013      -0.11076806
H       13.93986464      10.33120877      11.04217113       0.22726678       0.40711853       0.54013506      -0.07565401      -0.08865148      -0.03558473
H        9.84953812       9.47132921      15.14258617       0.24729943      -0.18833635       0.10932874      -0.12708017       0.15295267      -0.18019226
H       15.50418278      11.33873415      11.55941209      -0.64696734       0.23265908      -0.45647513       0.08804105      -0.05150659       0.19947258
H       11.10089756       9.18939497      16.38259858      -0.60057299      -0.26787936      -0.49989764       0.11637905      -0.16316381      -0.08715133
H       14.17437013      12.23104790      10.63197959      -0.11749809      -0.43218775       0.33303029       0.10972691       0.11058732       0.05945992
C       10.56156982       8.61565871      -0.14048321       1.78013121      -2.50053552       2.08471932      -0.23500347       0.62330246       0.01653343
C       13.91787953      11.59678317      12.95618595       0.17614280      -0.09795564      -1.06549233       0.33703658       0.08320763      -0.18956576
Pb      11.36141063       6.54310315      12.57917473      -0.39659347      -0.17287700      -0.16592661       1.89027653      -0.74578716       1.96569086
Pb      15.33292430       6.54935897      12.18836000      -0.22210202      -0.21529865       0.03772780      -0.58501026       0.23022110      -0.47135917