768
Lattice="31.343885341238796 -0.47746557187201905 -1.6062135899949226 -0.40744855527168355 29.62807268781774 -0.02279442302894619 -1.4504438450383712 0.04122985736401602 17.113936445534993" Properties=species:S:1:pos:R:3:forces:R:3:momenta:R:3 pbc="T T T"
I        6.30203666       0.72616420       2.10753753       0.05162187      -0.04007182      -0.14484418       0.05752056       1.48135791       0.28419665
I        0.81923007       6.31461089       2.19433474       0.09914808      -0.02602447       0.02867888       0.33940627       0.86941547      -0.84513050
I        5.61306390       1.47158483       6.11470450       0.07680366      -0.12291193       0.14769497      -0.16223991      -2.25322315       1.40326358
I        1.47054417       6.11365284       6.51517385      -0.10369255      -0.03997079       0.03164177      -0.98358612      -0.15261981       0.59918183
I        5.00117449       4.72033559       3.69770814      -0.14068232      -0.05685007       0.08969272       1.15882312       0.85934410       0.37806346
I        1.78445022       2.60129305       8.73990509      -0.07967022       0.01964400       0.07317315       1.35349318      -0.94221321       0.26871113
H        1.81435492       3.92252493       3.57505970       0.66615990       1.46627399      -0.72987309      -0.02352056       0.06362378       0.09071166
H        4.35053420       5.08646874      15.75206127       0.13918616      -0.23512026       0.01972862      -0.19139265       0.01184370       0.05922980
H        0.79974939       2.30112492       4.51672403       0.14748931       0.02529836      -0.13413251       0.10324457       0.02324381      -0.25359470
H        6.76107162       4.86756273       0.16966077      -0.11337897       0.04847712      -0.10715159      -0.03991333       0.02512848       0.19302006
H        2.47225518       3.30918974       5.47849206       0.12442109      -0.40215397       0.18374118       0.11227247       0.08053395      -0.06154701
H        5.41075186       3.68944423      -0.18877066       0.37231527       0.70084319      -0.25764596      -0.14446871      -0.00302431       0.18902103
H        2.80037515       1.87400142       2.72243816      -0.15653538       0.53908404      -1.06871534      -0.11088404       0.01400708       0.09337575
H        5.05830391       6.66556612       0.10318776      -0.55594284      -1.29902950       0.88799643       0.17088504      -0.09323648      -0.09860105
H        2.72545966       0.98448343       4.10999732      -0.42150702      -0.77005151       0.55521232      -0.17502733       0.03272861       0.11481903
H        4.74595802       5.47158743       1.38351993       0.15171300       0.25610516       0.40361938      -0.25128809      -0.07035897       0.02890079
H        3.88544882       2.19126850       3.96290358       0.62105388       0.04768759       0.37150766      -0.07001594       0.08995165       0.03382782
H        3.84529548       5.51062277      -0.04705618      -0.02500832      -0.05229618       0.07448037       0.03930555      -0.10862050       0.07794583
C        1.94084856       2.94881376       4.35902973      -0.83532954      -1.64847152       0.24475353      -0.54965606       0.69823324       0.05730879
C        5.77036848       4.75084319      -0.30097280      -0.10010486      -1.21276604      -0.05989774       0.28606020      -0.21880063       0.07134627
Pb       3.41328477      14.81667871       8.16879119       0.14499112       0.06443185      -0.03602161      -1.49688519       1.95213389      -0.31154516
Pb      -0.51782052      14.92387338       8.39294852      -0.12603977       0.14360563       0.25940917      -0.51155509       0.18038453       0.50638543
N        2.89249925       1.94485093       3.75169044      -0.33557956       0.59061097       0.57951115       0.19558738      -0.20325021      -0.12276966
N        4.79664362       5.63997375       0.36686148       0.27549437       1.81660993      -1.26132116      -0.31818736       0.60451267       0.04784630
I        5.25472995       8.38225954       6.40223086       0.01864480      -0.13479089       0.12332998      -2.47467337      -1.24727976      -0.12136449
I        1.12594131      14.08110014       5.80142865       0.12426116      -0.01967793       0.14791787      -0.33197815      -0.97570023      -2.05346437
I        5.17643073       8.75972291       1.77814715       0.00695529      -0.12113133       0.45205231       2.35569592       0.45019563      -0.06026483
I        2.32440643      13.24046769       1.76728828      -0.12329642      -0.00854691       0.10388564       0.66099243       0.06641935       0.37412553
I        4.45938059      12.12756598      16.69327537       0.00666505      -0.10932667      -0.09676131       0.38204770      -0.47986896      -0.61624827
I        1.34048058      10.15684978       4.74055651      -0.02665105      -0.27154309      -0.09072273       0.56201144      -0.30130508       1.20081135
H        0.95829722       8.42452176       8.35247064      -0.26109930      -0.44104780      -0.28359163       0.09705898      -0.12680391       0.09348340
H        5.65478467      10.83126969       4.86862353       0.03918838       0.90257556      -0.33529139       0.19560347      -0.08878703      -0.10530144
H        0.83105758       9.24937887       9.91132149       0.10499049       0.16607755       0.54329335      -0.06150415      -0.24374903       0.07396370
H        5.94349768      12.62556986       5.18852808      -0.18356992      -0.31693347      -0.07254259      -0.13575900      -0.00079106      -0.03972142
H       -0.21716689       9.80511560       8.59036737      -0.64996512      -0.09313136      -0.04554586       0.03144335      -0.13594864       0.25005756
H        4.45386033      12.11939593       4.32169608      -0.20126495      -0.03717559      -0.15965086       0.00431228       0.07275509      -0.03547811
H        1.58153127      11.35308661       8.77321118       0.11901530      -0.22360265       0.13612720       0.02821194       0.17347060       0.02764448
H        7.29672906      11.90518010       3.43992895       0.40941933      -0.46637442      -0.19576435      -0.00027972       0.01246203      -0.03810333
H        1.86570591      10.44922864       7.34603929      -0.34017215      -0.24732346      -0.54548126       0.05677659       0.08209771       0.03909871
H        6.26998513      12.96817208       2.73181348      -0.43288864       1.01145189      -0.02097594      -0.10334145      -0.03025749       0.12327204
H        2.70256576      10.06598407       8.76806535       0.28258169       0.25518050      -0.05186892       0.07454891       0.04410758      -0.02758838
H        6.00859829      11.33836524       2.52166235      -0.41827667      -0.74066327      -0.82731738      -0.03187442      -0.04742168       0.09298815
C        0.75298161       9.38920037       8.84089152      -0.23502030       0.25814209      -0.36285144       0.02250767      -0.21770068      -0.52889339
C        5.51630259      11.88961914       4.48534126       0.30995651      -0.04209204       0.22661399      -0.25556768      -0.18468768      -0.23508326
Pb       3.24078303       7.48511297       4.25887863      -0.01190555       0.06298111      -0.23739554      -1.75049811       2.20591275       1.07620868
Pb       7.17576657       6.94334597       4.17405698       0.02636856       0.25598272      -0.23388269       0.63158790      -2.28850674      -1.04112268
N        1.77017130      10.37356462       8.37625357       0.98441320       0.46402121       0.57965474       0.61515023       0.09484216       0.26195123
N        6.28984011      12.04960904       3.19529993       0.45305819      -0.27229701       1.24814540       0.43278746      -0.32169745       0.09158369
I       14.12904909       0.82703058       1.68334997       0.17561245      -0.14013566      -0.21601171      -0.21755478       1.02252438      -1.46733405
I        9.03195510       6.14585621       1.64320378      -0.07906041      -0.09948471       0.08306714      -0.06287395      -0.55777766      -1.31865487
I       13.24940906       1.44546620       5.81818442      -0.10356545      -0.25399726       0.00972087       0.11597728       0.52907198       0.07528529
I        9.17056024       5.71422165       6.27246747       0.05401928       0.08148170      -0.36523620       0.97035636       1.19597097       1.03070970
I       13.02344536       4.63543599       3.53410480       0.06839180       0.27126322      -0.20857716      -1.64922545       0.70796539      -0.65840243
I        9.51074933       2.13997045       8.50482499       0.01316682       0.32350270       0.07194249       0.64354265      -2.04397483      -1.68891045
H        8.61198918       2.48201322       3.84440600      -0.40839004      -0.06330812      -0.15898123       0.10791815      -0.05518687       0.14748342
H       11.79306188       4.14074261      15.15311744       0.35212560       0.07167983      -0.53423849       0.07140510       0.02215489       0.07308854
H        9.87894067       2.59770434       5.17602408      -0.40386511       0.13679007      -0.42574267       0.21809580       0.05737786      -0.19020899
H       14.74151501       4.42372765      -0.74348660      -0.07043983      -0.16215134      -0.18387110       0.39549012       0.08073416      -0.08658973
H       10.01838505       3.63629746       3.72006450       0.07410529      -0.28752813      -0.29540694       0.10871557       0.13901656       0.11000240
H       13.23503155       3.25817533      -0.25765001       0.32736103       0.76627649       0.09908089       0.01713197       0.04087227       0.19707888
H       10.60553143       1.62146012       2.42647986      -0.25520079      -0.36967305       0.02628788      -0.09166564      -0.23880914      -0.06661452
H       11.92374739       5.45405861      -0.47649726       0.13309380      -0.20732467      -0.08623245      -0.04049957       0.06426874       0.01404077
H       10.02963852       0.61728143       3.75387561      -0.35353695      -0.55022112      -0.45902101      -0.17457171       0.18598342       0.05390132
H       11.86169434       6.40980795      16.38082977       0.37941074       0.18255556       0.01516461       0.31931796       0.17830281      -0.13541586
H       11.42973173       1.40298632       3.89714818       0.27256499       0.45376009       0.09736472      -0.05743987       0.04098714      -0.11902151
H       12.96912923       5.58386865       0.79342383       0.39278299      -0.41955953       1.16918037       0.04595868      -0.18514967       0.16594084
C        9.66001174       2.65900872       4.07302773       1.48969759      -0.83656583       0.65388923       0.34528442      -0.50625985       0.38400790
C       12.16961005       4.24901746      16.26666976      -0.83121640       0.01721646       0.98812376       0.37600077      -0.01331323       0.15011499
Pb      11.18617323      14.53711427       7.89865279       0.30888380       0.07063391       0.32516476       0.11796957       0.68890401      -1.35638453
Pb       7.29460067      14.49630175       8.07995543      -0.30740750       0.16105816       0.41046629       1.72520375      -1.55411831       1.97529675
N       10.48502358       1.49478720       3.46025453      -0.51996593       1.34057786       0.54290173      -0.19625561      -0.35333321      -0.00717487
N       12.95019896       5.46618497      -0.24035412      -0.71664445      -0.14527133      -1.22520085       0.45656427      -0.19495736       0.25810455
I       12.71048798       8.41845913       6.34286993       0.36059169      -0.18881617      -0.28457820       0.46863808       1.23037590       0.09011552
I        9.02981425      13.64982767       5.76560192       0.08496571      -0.25043478      -0.61689061       0.94441382      -0.28907468       1.38557108
I       12.94128935       8.89030911       1.67592097       0.01239029      -0.27743066       0.44149163      -1.78152086       0.53808269       0.35318134
I       10.01478880      12.71116242       1.47482317       0.15228041       0.16279997      -0.18396929       0.46333075       1.44511894       1.25547029
I       12.56431959      12.10241634      16.21581192       0.07460151      -0.04459120       0.04930026       0.00013809      -2.61998161      -2.63076729
I        8.95147336       9.59943279       4.14960646      -0.02903892       0.32757179      -0.12393305       0.77138175      -2.50726701      -2.79275263
H        9.53332482       9.04296545       9.02812032       0.00145398       0.38997067       0.34024856       0.00976732       0.01215609       0.09673726
H       12.38904167      12.18018153       3.73668859       0.35280720      -0.26103122      -0.03908303      -0.14014348      -0.14406475      -0.03674203
H        8.13774703       9.90004230       8.03449828       1.09051580      -0.58825406       0.15893338       0.15168753       0.02239210      -0.19133913
H       13.69335540      11.06404652       4.46595439      -0.15548088       0.37878591      -0.06722204       0.18629997      -0.04241506       0.00060842
H        9.11662148       8.37777392       7.44954106      -0.11141202      -0.04265462      -0.52709221       0.12147130      -0.01780477      -0.14407104
H       13.76795337      12.90153555       4.63925543       0.09838313       0.05759016       0.50032706      -0.16985279       0.14101953       0.07758031
H       10.26642640      11.10259029       7.86273103      -0.16334233       0.14403331      -0.12901638       0.13955895      -0.12964581      -0.10861347
H       13.84250978      11.62763203       2.07683113      -0.09306578      -0.04050975      -0.96596341      -0.17403322       0.19813728       0.05696402
H        9.91956837      10.40418214       6.33472000      -0.08076833       0.16212621      -1.53871137       0.04761118      -0.17430940      -0.26864961
H       15.19739271      11.73464970       2.92263750       1.12751462      -0.32300267       0.49667326      -0.27013511      -0.05295745       0.00598850
H       11.16840323       9.79992150       7.28607792       0.38798104      -0.53577450       0.03940186       0.03661894       0.07267306      -0.16343585
H       14.48101949      13.15857778       2.50136707      -0.39162087       0.55107440      -0.45390163      -0.02797886      -0.11972985       0.01337560
C        9.16953493       9.33202581       7.98672845      -0.57985291       0.41540813      -0.03295013       0.04776733       0.20920832      -0.72568305
C       13.48078871      12.06447859       3.98787776      -0.80925876       0.19088889       0.88982089       0.05352072      -0.32056052      -0.18582579
Pb      11.05671185       7.18869404       3.86095580       0.04457181      -0.02079184       0.04441041       1.34014792      -2.09233383       1.68416577
Pb      14.99006457       7.23005791       3.74796859      -0.33119578       0.23404031       0.12072587      -3.11295206       1.89822801      -1.23250916
N       10.20196534      10.21427933       7.30533316      -0.72504169       0.12366948       1.91689170      -0.67436541      -0.12582837      -0.19997452
N       14.29818332      12.18804033       2.79704052      -0.18823644      -0.54995160      -0.52136314      -0.07243948      -0.75990305      -0.55935355
I        5.57681474       0.74677913      10.66450575       0.05162187      -0.04007182      -0.14484418       0.05752056       1.48135791       0.28419665
I        0.09400815       6.33522582      10.75130296       0.09914808      -0.02602447       0.02867888       0.33940627       0.86941547      -0.84513050
I        4.88784198       1.49219976      14.67167272       0.07680366      -0.12291193       0.14769497      -0.16223991      -2.25322315       1.40326358
I        0.74532225       6.13426777      15.07214207      -0.10369255      -0.03997079       0.03164177      -0.98358612      -0.15261981       0.59918183
I        4.27595257       4.74095052      12.25467636      -0.14068232      -0.05685007       0.08969272       1.15882312       0.85934410       0.37806346
I        2.50967214       2.58067812       0.18293687      -0.07967022       0.01964400       0.07317315       1.35349318      -0.94221321       0.26871113
H        1.08913300       3.94313986      12.13202792       0.66615990       1.46627399      -0.72987309      -0.02352056       0.06362378       0.09071166
H        5.07575613       5.06585381       7.19509304       0.13918616      -0.23512026       0.01972862      -0.19139265       0.01184370       0.05922980
H        0.07452747       2.32173985      13.07369225       0.14748931       0.02529836      -0.13413251       0.10324457       0.02324381      -0.25359470
H        6.03584970       4.88817766       8.72662899      -0.11337897       0.04847712      -0.10715159      -0.03991333       0.02512848       0.19302006
H        1.74703326       3.32980467      14.03546028       0.12442109      -0.40215397       0.18374118       0.11227247       0.08053395      -0.06154701
H        4.68552994       3.71005916       8.36819756       0.37231527       0.70084319      -0.25764596      -0.14446871      -0.00302431       0.18902103
H        2.07515323       1.89461635      11.27940638      -0.15653538       0.53908404      -1.06871534      -0.11088404       0.01400708       0.09337575
H        4.33308199       6.68618105       8.66015598      -0.55594284      -1.29902950       0.88799643       0.17088504      -0.09323648      -0.09860105
H        2.00023774       1.00509836      12.66696554      -0.42150702      -0.77005151       0.55521232      -0.17502733       0.03272861       0.11481903
H        4.02073610       5.49220236       9.94048815       0.15171300       0.25610516       0.40361938      -0.25128809      -0.07035897       0.02890079
H        3.16022690       2.21188343      12.51987180       0.62105388       0.04768759       0.37150766      -0.07001594       0.08995165       0.03382782
H        3.12007356       5.53123770       8.50991204      -0.02500832      -0.05229618       0.07448037       0.03930555      -0.10862050       0.07794583
C        1.21562664       2.96942869      12.91599795      -0.83532954      -1.64847152       0.24475353      -0.54965606       0.69823324       0.05730879
C        5.04514656       4.77145812       8.25599542      -0.10010486      -1.21276604      -0.05989774       0.28606020      -0.21880063       0.07134627
Pb       2.68806285      14.83729364      16.72575941       0.14499112       0.06443185      -0.03602161      -1.49688519       1.95213389      -0.31154516
Pb      -1.24304244      14.94448831      16.94991674      -0.12603977       0.14360563       0.25940917      -0.51155509       0.18038453       0.50638543
N        2.16727733       1.96546586      12.30865866      -0.33557956       0.59061097       0.57951115       0.19558738      -0.20325021      -0.12276966
N        4.07142170       5.66058868       8.92382970       0.27549437       1.81660993      -1.26132116      -0.31818736       0.60451267       0.04784630
I        4.52950803       8.40287447      14.95919908       0.01864480      -0.13479089       0.12332998      -2.47467337      -1.24727976      -0.12136449
I        0.40071939      14.10171507      14.35839687       0.12426116      -0.01967793       0.14791787      -0.33197815      -0.97570023      -2.05346437
I        4.45120881       8.78033784      10.33511537       0.00695529      -0.12113133       0.45205231       2.35569592       0.45019563      -0.06026483
I        1.59918451      13.26108262      10.32425650      -0.12329642      -0.00854691       0.10388564       0.66099243       0.06641935       0.37412553
I        5.18460252      12.10695105       8.13630714       0.00666505      -0.10932667      -0.09676131       0.38204770      -0.47986896      -0.61624827
I        0.61525866      10.17746471      13.29752473      -0.02665105      -0.27154309      -0.09072273       0.56201144      -0.30130508       1.20081135
H        0.23307530       8.44513669      16.90943886      -0.26109930      -0.44104780      -0.28359163       0.09705898      -0.12680391       0.09348340
H        4.92956275      10.85188462      13.42559175       0.03918838       0.90257556      -0.33529139       0.19560347      -0.08878703      -0.10530144
H        1.55627950       9.22876394       1.35435327       0.10499049       0.16607755       0.54329335      -0.06150415      -0.24374903       0.07396370
H        5.21827576      12.64618479      13.74549630      -0.18356992      -0.31693347      -0.07254259      -0.13575900      -0.00079106      -0.03972142
H        0.50805503       9.78450067       0.03339915      -0.64996512      -0.09313136      -0.04554586       0.03144335      -0.13594864       0.25005756
H        3.72863841      12.14001086      12.87866430      -0.20126495      -0.03717559      -0.15965086       0.00431228       0.07275509      -0.03547811
H        2.30675319      11.33247168       0.21624296       0.11901530      -0.22360265       0.13612720       0.02821194       0.17347060       0.02764448
H        6.57150714      11.92579503      11.99689717       0.40941933      -0.46637442      -0.19576435      -0.00027972       0.01246203      -0.03810333
H        1.14048399      10.46984357      15.90300751      -0.34017215      -0.24732346      -0.54548126       0.05677659       0.08209771       0.03909871
H        5.54476321      12.98878701      11.28878170      -0.43288864       1.01145189      -0.02097594      -0.10334145      -0.03025749       0.12327204
H        3.42778768      10.04536914       0.21109713       0.28258169       0.25518050      -0.05186892       0.07454891       0.04410758      -0.02758838
H        5.28337637      11.35898017      11.07863057      -0.41827667      -0.74066327      -0.82731738      -0.03187442      -0.04742168       0.09298815
C        1.47820353       9.36858544       0.28392330      -0.23502030       0.25814209      -0.36285144       0.02250767      -0.21770068      -0.52889339
C        4.79108067      11.91023407      13.04230948       0.30995651      -0.04209204       0.22661399      -0.25556768      -0.18468768      -0.23508326
Pb       2.51556111       7.50572790      12.81584685      -0.01190555       0.06298111      -0.23739554      -1.75049811       2.20591275       1.07620868
Pb       6.45054465       6.96396090      12.73102520       0.02636856       0.25598272      -0.23388269       0.63158790      -2.28850674      -1.04112268
N        1.04494938      10.39417955      16.93322179       0.98441320       0.46402121       0.57965474       0.61515023       0.09484216       0.26195123
N        5.56461819      12.07022397      11.75226815       0.45305819      -0.27229701       1.24814540       0.43278746      -0.32169745       0.09158369
I       13.40382717       0.84764551      10.24031819       0.17561245      -0.14013566      -0.21601171      -0.21755478       1.02252438      -1.46733405
I        8.30673318       6.16647114      10.20017200      -0.07906041      -0.09948471       0.08306714      -0.06287395      -0.55777766      -1.31865487
I       12.52418714       1.46608113      14.37515264      -0.10356545      -0.25399726       0.00972087       0.11597728       0.52907198       0.07528529
I        8.44533832       5.73483658      14.82943569       0.05401928       0.08148170      -0.36523620       0.97035636       1.19597097       1.03070970
I       12.29822344       4.65605092      12.09107302       0.06839180       0.27126322      -0.20857716      -1.64922545       0.70796539      -0.65840243
I       10.23597125       2.11935552      -0.05214323       0.01316682       0.32350270       0.07194249       0.64354265      -2.04397483      -1.68891045
H        7.88676726       2.50262815      12.40137422      -0.40839004      -0.06330812      -0.15898123       0.10791815      -0.05518687       0.14748342
H       12.51828381       4.12012768       6.59614921       0.35212560       0.07167983      -0.53423849       0.07140510       0.02215489       0.07308854
H        9.15371875       2.61831927      13.73299230      -0.40386511       0.13679007      -0.42574267       0.21809580       0.05737786      -0.19020899
H       14.01629309       4.44434258       7.81348162      -0.07043983      -0.16215134      -0.18387110       0.39549012       0.08073416      -0.08658973
H        9.29316313       3.65691239      12.27703272       0.07410529      -0.28752813      -0.29540694       0.10871557       0.13901656       0.11000240
H       12.50980963       3.27879026       8.29931821       0.32736103       0.76627649       0.09908089       0.01713197       0.04087227       0.19707888
H        9.88030951       1.64207505      10.98344808      -0.25520079      -0.36967305       0.02628788      -0.09166564      -0.23880914      -0.06661452
H       11.19852547       5.47467354       8.08047096       0.13309380      -0.20732467      -0.08623245      -0.04049957       0.06426874       0.01404077
H        9.30441660       0.63789636      12.31084383      -0.35353695      -0.55022112      -0.45902101      -0.17457171       0.18598342       0.05390132
H       12.58691627       6.38919302       7.82386154       0.37941074       0.18255556       0.01516461       0.31931796       0.17830281      -0.13541586
H       10.70450981       1.42360125      12.45411640       0.27256499       0.45376009       0.09736472      -0.05743987       0.04098714      -0.11902151
H       12.24390731       5.60448358       9.35039205       0.39278299      -0.41955953       1.16918037       0.04595868      -0.18514967       0.16594084
C        8.93478982       2.67962365      12.62999595       1.48969759      -0.83656583       0.65388923       0.34528442      -0.50625985       0.38400790
C       12.89483198       4.22840253       7.70970153      -0.83121640       0.01721646       0.98812376       0.37600077      -0.01331323       0.15011499
Pb      10.46095131      14.55772920      16.45562101       0.30888380       0.07063391       0.32516476       0.11796957       0.68890401      -1.35638453
Pb       6.56937875      14.51691668      16.63692365      -0.30740750       0.16105816       0.41046629       1.72520375      -1.55411831       1.97529675
N        9.75980166       1.51540213      12.01722275      -0.51996593       1.34057786       0.54290173      -0.19625561      -0.35333321      -0.00717487
N       12.22497704       5.48679990       8.31661410      -0.71664445      -0.14527133      -1.22520085       0.45656427      -0.19495736       0.25810455
I       11.98526606       8.43907406      14.89983815       0.36059169      -0.18881617      -0.28457820       0.46863808       1.23037590       0.09011552
I        8.30459233      13.67044260      14.32257014       0.08496571      -0.25043478      -0.61689061       0.94441382      -0.28907468       1.38557108
I       12.21606743       8.91092404      10.23288919       0.01239029      -0.27743066       0.44149163      -1.78152086       0.53808269       0.35318134
I        9.28956688      12.73177735      10.03179139       0.15228041       0.16279997      -0.18396929       0.46333075       1.44511894       1.25547029
I       13.28954152      12.08180141       7.65884369       0.07460151      -0.04459120       0.04930026       0.00013809      -2.61998161      -2.63076729
I        8.22625144       9.62004772      12.70657468      -0.02903892       0.32757179      -0.12393305       0.77138175      -2.50726701      -2.79275263
H       10.25854674       9.02235052       0.47115210       0.00145398       0.38997067       0.34024856       0.00976732       0.01215609       0.09673726
H       11.66381975      12.20079646      12.29365681       0.35280720      -0.26103122      -0.03908303      -0.14014348      -0.14406475      -0.03674203
H        7.41252511       9.92065723      16.59146650       1.09051580      -0.58825406       0.15893338       0.15168753       0.02239210      -0.19133913
H       12.96813348      11.08466145      13.02292261      -0.15548088       0.37878591      -0.06722204       0.18629997      -0.04241506       0.00060842
H        8.39139956       8.39838885      16.00650928      -0.11141202      -0.04265462      -0.52709221       0.12147130      -0.01780477      -0.14407104
H       13.04273145      12.92215048      13.19622365       0.09838313       0.05759016       0.50032706      -0.16985279       0.14101953       0.07758031
H        9.54120448      11.12320522      16.41969925      -0.16334233       0.14403331      -0.12901638       0.13955895      -0.12964581      -0.10861347
H       13.11728786      11.64824696      10.63379935      -0.09306578      -0.04050975      -0.96596341      -0.17403322       0.19813728       0.05696402
H        9.19434645      10.42479707      14.89168822      -0.08076833       0.16212621      -1.53871137       0.04761118      -0.17430940      -0.26864961
H       14.47217079      11.75526463      11.47960572       1.12751462      -0.32300267       0.49667326      -0.27013511      -0.05295745       0.00598850
H       10.44318131       9.82053643      15.84304614       0.38798104      -0.53577450       0.03940186       0.03661894       0.07267306      -0.16343585
H       13.75579757      13.17919271      11.05833529      -0.39162087       0.55107440      -0.45390163      -0.02797886      -0.11972985       0.01337560
C        8.44431301       9.35264074      16.54369667      -0.57985291       0.41540813      -0.03295013       0.04776733       0.20920832      -0.72568305
C       12.75556679      12.08509352      12.54484598      -0.80925876       0.19088889       0.88982089       0.05352072      -0.32056052      -0.18582579
Pb      10.33148993       7.20930897      12.41792402       0.04457181      -0.02079184       0.04441041       1.34014792      -2.09233383       1.68416577
Pb      14.26484265       7.25067284      12.30493681      -0.33119578       0.23404031       0.12072587      -3.11295206       1.89822801      -1.23250916