768
Lattice="25.489424268572538 -0.0956594233117733 0.005584256169073863 0.09977264370270744 24.739172851202614 0.6001478684267295 -0.002024446371267937 0.5682806783236378 24.75292066089703" Properties=species:S:1:pos:R:3:forces:R:3:momenta:R:3 pbc="T T T"
I        5.88447814      24.60422415       1.59214483       0.11784747       0.08476959      -0.43413919      -0.57320304       0.29348342      -1.37037412
I        5.42946718      10.62138990       7.38023307      -0.09390586      -0.06775947       0.31603437       1.45360112      -1.34275368      -3.04270618
I        5.11708245       8.20403068       3.14045697       0.13431695       0.00660856       0.05621149       2.44377127      -0.81725206      -1.43372363
I        5.85130480       1.98455152       4.72186888      -0.05618340       0.02153417      -0.04500826       1.13924889      -0.53922793       1.07556553
I       24.94871617      10.63981061       7.39059224      -0.19392327      -0.01469399      -0.03464210       0.65986088       0.85742940      -1.20808652
I       11.90265226      24.52815377       1.41526372      -0.03516201      -0.01308133       0.07665956       1.67762969       1.76540536       2.77829805
I       11.59064545       2.02960165       4.95583217      -0.00034127       0.03800906       0.11778589      -0.93629132       0.85324180      -0.32474548
I       24.74895037       8.21725126       3.27270335       0.13040042       0.03147907       0.02428397      -0.77763875       2.43010902      -0.86615968
I        8.59314823      11.78057252      10.14990653       0.36672781       0.23428581       0.03525656       2.44311629       0.43515820      -1.43921258
I        2.49562765       4.76279774       4.34389124      -0.41428086      -0.02857676      -0.04604139      -2.15687745       0.76699851       1.75415607
I        2.68418678      24.02768502       4.24068913      -0.41536515       0.12582078      -0.15580006       0.70663411      -0.16594179       0.94007065
I        8.90669835      11.11708618       4.69486953       0.08308048      -0.29267275       0.17710774      -0.14377117       0.43269873      -0.42959008
H        1.70270971       1.70166488      24.59081024      -0.44693896      -0.52431204      -0.08675632       0.09481831       0.10776256      -0.15216497
H        8.57324092       1.06411370       2.27539404      -0.36975757      -0.44283300       0.34367748      -0.00120108       0.10618129       0.21062762
H        9.56140216       9.55489331       1.60647962      -0.77481400      -0.23867983      -0.95540302       0.00092604       0.08303188      -0.00229084
H        2.72141623       0.89608194       8.01992266       0.40400973       0.12079311      -0.42852578       0.09317995      -0.01630556       0.11604247
H        2.95987248       7.46744708       6.18438741       0.28932045       0.49880232      -0.13169765      -0.06428504      -0.01951798      -0.11408859
H        9.60627312       2.50977967       2.20052497      -0.52892636       0.26219428      -0.08476529      -0.23768203       0.16941876       0.05111500
H        9.29850252       3.06693808       8.11513392      -0.09177723       0.65412340      -0.19384226      -0.17425859      -0.01147300       0.09885273
H        1.33862117       0.88340261       6.75572453      -0.05355669      -0.00454747      -0.71148675       0.08788993       0.02148871      -0.06666225
H        3.52279335       2.31136762      24.47347749       0.33964358      -0.39653373       0.12071750      -0.10289305      -0.02551041       0.07490396
H        7.75490098       2.62931175       1.87509424      -0.20377291       0.30575858       0.30987624       0.02836529      -0.03693427       0.19376588
H        7.80811993       9.57400763       1.93111039      -0.64680626      -0.15059230      -0.09440660      -0.27985902      -0.02650705      -0.23336961
H        3.16188098       1.47315197       6.26466749       0.80844943      -0.46260718      -0.67311598      -0.01041947       0.18341713      -0.04054003
H        3.05211929       3.13725437       1.67588513       0.42694557       0.14868995      -0.15985838      -0.00495493       0.01018810      -0.07291551
H        8.63248724       8.91354196       6.60594387       0.27129616       0.33143624      -0.16307750      -0.02918152       0.07180486       0.18318891
H        7.61415981       7.57853874       0.34769821      -0.89643740      -0.06657859      -0.36049057       0.18031660       0.25100111      -0.02942762
H        1.54668760       9.08947882       1.80670496      -0.73380650       0.30043198       0.21496530      -0.15198338      -0.14347068       0.05099184
H        2.39253738       1.64271892       2.06052928      -0.00395064       0.05243931       0.17186228      -0.11980977       0.00839160      -0.08114192
H        7.99650474       7.46319377       6.90889659      -0.68795926      -0.78939211       0.20797371       0.01870041      -0.03397901      -0.07524695
H        8.54276653       7.25310587       1.72101861      -0.14563424      -0.18530785       0.20253062      -0.21928268      -0.04139253      -0.07908202
H        2.20563900       9.79670454      24.91032591      -0.02019286      -0.43902628       0.75943391      -0.20608577      -0.01643372       0.19617266
H        1.37775679       2.94751191       1.59536393       0.41463792      -0.45149559      -0.25870806       0.00658644       0.14614287       0.08708991
H        9.68515601       1.82392878      24.77833972       0.72352231       0.19359479       0.27704120      -0.00886113      -0.19275305      -0.14534643
H        9.25522276       7.52894944       0.23391236       0.10437313       0.21901443       0.02297135       0.12590274       0.36511274      -0.12124816
H        3.18095830       8.99670014       1.59752635       0.40845257       0.44417917       0.15298781       0.01336418       0.04265029      -0.06487292
C        2.12758242       8.16870954       6.33748004      -1.76054699      -0.93682039       0.97605510      -0.42862670       0.01972950      -0.74299607
C        8.65771327       2.03985406       1.78374365       1.59904145      -0.07538047      -0.23602565       0.49566412      -0.20762990       0.04657948
C        8.45304047       2.99931357       7.39936449       0.58761841      -0.23216989      -0.20687114      -0.20318125      -1.03722370       0.12374239
C        2.37165566       1.41867838       7.02577283      -1.04699414      -0.34214025       1.83985378       0.37792537      -0.24368419      -0.43095200
Pb       5.64729790       5.15110911       4.01200196      -0.04674169      -0.05950571       0.24636241       0.78461140       1.04173756      -0.96762452
Pb       5.75647415      11.13996919       4.25961849      -0.12797537       0.19959735       0.19951782       0.34783963       0.02293382      -1.82819165
Pb      24.61721292      11.49405088      10.39504592       0.19241396      -0.04629839       0.20752892       0.93043451      -0.75576967       0.16277277
Pb      24.82812621      11.26177415       4.23656934       0.07730660       0.00743290      -0.13038623       1.98155455      -2.06419266       0.76282415
N        2.31277879       2.45740269       1.41977000      -0.66119620      -0.78074844       0.04250336      -0.31598045       0.11566149      -0.06970621
N        8.78668408       8.05054091       7.17821912      -0.80499045       1.44054026      -0.13563565       0.64788252      -0.12606404       0.19144795
N        8.46631994       7.82243010       0.85172986       0.96081619       0.33198206       0.61907548       0.76203050      -0.67068983      -0.50170217
N        2.27193485       8.75972706       1.15338671       0.18322424      -0.48675530      -0.87484030       0.43164678      -0.23622036      -0.36517966
I        5.56814101       6.18967861       7.13143500       0.21984197       0.02088872      -0.04306720       1.40701239      -0.46018278       0.15182112
I        5.32091096       4.42499759       0.95087787      -0.04740563      -0.14219096       0.07801947      -0.22451644       3.10310594       1.50809664
I        5.21479893       2.36097342       9.41643024      -0.20023294      -0.00441440      -0.08209801       1.62993853      -0.47817514       1.69010716
I        5.65290495       8.74566541      23.73522052      -0.14285118       0.14750273      -0.11858050      -0.95424877      -1.45269292       0.37082689
I       24.80814320       4.21346227       1.22081856       0.01604914      -0.02533683      -0.35495087       1.21067958       0.32614698      -0.81928013
I       11.72513745       6.03124979       7.25266186      -0.07616212       0.00644305       0.14400104      -1.48689657       2.13412541       0.92361865
I       11.48885967       8.82187535      23.74151626       0.11098610      -0.04398663      -0.01956726      -1.41609310      -1.39979260       0.42688685
I       24.82197993       2.36525122       9.77359671      -0.03694555      -0.14836969      -0.22356877      -2.57149081       0.82340492       1.32218159
I        8.72563429       5.54566461       3.69033159       0.22136905       0.12869332       0.20178953      -0.21874840       0.28975324      -0.11208804
I        2.34494962      11.36868547      22.95613283      -0.22018947       0.01382438       0.05122318      -0.10886645      -1.40749465       0.70765349
I        2.42857279       5.73887397       9.79999291      -0.03305484      -0.00581398       0.08672393      -2.11612583       1.05968085      -0.97291664
I        8.82651497       5.47024233      23.25984893      -0.05196005      -0.01775123      -0.06058428      -1.17468067      -0.42209324       0.37399860
H        2.02468790       9.01826859       5.67179056       0.35542697       0.07847694      -0.56878991       0.01878476       0.04102387      -0.00354785
H        9.18794973       7.51387693       9.25723583      -0.05516963      -0.20217813      -0.20671367       0.18333416       0.00155997       0.07293771
H        7.50722701       3.24220715       7.88149808      -0.41061583      -0.30637641       0.29804745       0.10882086       0.10692703       0.06128772
H        2.92901201       6.88668212       0.36367310       0.81379305      -0.16701496      -0.51965859       0.02803557       0.11726948       0.01417398
H        2.06213915       3.53292052      24.14665886       0.11373047      -1.50412096       0.55680311      -0.18439900      -0.12868286       0.16127112
H        9.49764892       9.28829084       8.73189447      -0.49044635       0.36210512       0.10464174       0.06156865      -0.02432148      -0.03782665
H        8.37595429      10.37872417      24.93207984       0.04164526       0.51497843      -0.31585245      -0.19572394      -0.04087572      -0.20052646
H        2.43092275       6.78509649       2.19323989       0.03134531       0.63276243      -0.61569935       0.05759638      -0.08033621      -0.14169061
H        1.19470240       7.52441187       6.32145353       0.57414332       0.63404808      -0.13370585       0.09227990       0.06192707       0.16508644
H        7.60969819       8.58362121       8.96057306      -0.10011953       0.77356061      -0.04985034      -0.01803186      -0.02650987       0.09356507
H        8.52181129       3.61976143       6.49695339       0.45067169       0.16171505       0.13213989      -0.16259782      -0.28463227       0.11206272
H        1.15448930       6.77631931       0.78585414       0.10260868       0.31580707       0.07262774       0.04481459       0.03875568       0.09507807
H        2.18335387       8.00344286       8.45415457       0.21676033      -0.78145876       0.32388118      -0.12628065       0.13402940       0.05581902
H        8.81612409       3.30399013      24.55116203       0.19813512       0.16059693      -0.52119612      -0.29471310       0.00046780       0.03868405
H        8.33339945       0.91954950       7.81036390       0.13903981       0.77371001      -1.36664896      -0.14685184       0.04325765      -0.00471147
H        2.77958929       3.42221764       7.87140948      -0.17478217      -0.44216242      -0.44976334       0.01343223      -0.14900832      -0.02590247
H        1.43582310       9.41134031       8.04355568       0.14981241      -0.41143607      -0.88013327       0.02051039       0.12428438      -0.03730365
H        8.08640461       1.77624192      24.75559093      -0.62410395      -0.07223045      -0.34498080       0.00488002      -0.03270211      -0.30620284
H        9.49602080       1.41910064       6.56137289      -0.05304796      -0.28571248      -0.12384476       0.32022272       0.23952293       0.19486027
H        1.15235636       2.88740197       7.92235323      -0.38587762       0.42262155      -0.33423438      -0.04781684      -0.03628721       0.03369117
H        3.08693946       9.27796319       7.84768349      -0.12901380      -0.31640730      -0.04972163      -0.15901902      -0.16836877      -0.09359017
H        9.65742004       7.61098523       6.82129680       0.74447829      -0.52078752       0.36387766       0.05054779      -0.07205267       0.24463695
H        7.80931055       1.40234216       6.18443510      -0.30599252      -0.16975231      -0.18771709      -0.08326859       0.10910336      -0.02861503
H        1.88073904       3.40384135       6.36239721      -0.37543552       0.13068352       0.64844806      -0.09808140      -0.14851346       0.07057346
C        2.41870839       2.54376206      24.73639792      -0.11015493       3.20551105      -0.26477062       0.81827573       0.23727787       0.24381653
C        8.75254174       8.42517720       8.64583981       0.99816321      -1.27853432      -0.48579372      -0.02683433      -0.12675959       0.38234149
C        8.54182835       9.30382874       1.14044931       1.52914263      -0.47128712       1.06618399      -0.18305682       0.14406642       0.18075937
C        2.19376816       7.20414251       1.10855256      -0.91282896      -0.53311961       0.81442350      -0.13929014       0.50879393       1.02515273
Pb       5.57571080      11.67321872      10.57822157      -0.27116599      -0.06912814      -0.18111644      -1.34723672      -0.31630055       0.99680116
Pb       5.68678451       5.48475259      10.32994714      -0.13513533      -0.09641152      -0.21853368       1.45231766       0.43545908       1.16081203
Pb      24.64577602       5.04431252       4.15315365       0.13045567       0.08991057       0.03895232       2.53928851      -0.24930698       1.37854990
Pb      24.78361505       5.44652440      10.37787238       0.00720311       0.07860976       0.06187968       2.41537145      -0.22124613      -0.70383427
N        2.19613596       8.72544436       7.73177027       0.73090626       1.26560509       0.37495839       0.31224196       0.42959849      -0.09794969
N        8.86611051       1.81422882       0.29535964      -0.84066309      -0.40371318       0.32449567       0.19508661      -0.08637419       0.41804843
N        8.51862119       1.57632586       6.94696067      -0.08555498      -0.53373031       1.58976962       0.55842144       0.18983423      -0.09169590
N        2.00275317       2.88271795       7.30155536       1.01169479       0.51036321       0.27150504      -0.00497468       0.01060430      -0.33604423
I        5.88346592      24.88836449      13.96860516       0.11784747       0.08476959      -0.43413919      -0.57320304       0.29348342      -1.37037412
I        5.42845496      10.90553024      19.75669340      -0.09390586      -0.06775947       0.31603437       1.45360112      -1.34275368      -3.04270618
I        5.11607023       8.48817102      15.51691730       0.13431695       0.00660856       0.05621149       2.44377127      -0.81725206      -1.43372363
I        5.85029258       2.26869186      17.09832921      -0.05618340       0.02153417      -0.04500826       1.13924889      -0.53922793       1.07556553
I       24.94770395      10.92395095      19.76705257      -0.19392327      -0.01469399      -0.03464210       0.65986088       0.85742940      -1.20808652
I       11.90164004      24.81229411      13.79172405      -0.03516201      -0.01308133       0.07665956       1.67762969       1.76540536       2.77829805
I       11.58963323       2.31374199      17.33229250      -0.00034127       0.03800906       0.11778589      -0.93629132       0.85324180      -0.32474548
I       24.74793815       8.50139160      15.64916368       0.13040042       0.03147907       0.02428397      -0.77763875       2.43010902      -0.86615968
I        8.59213601      12.06471286      22.52636686       0.36672781       0.23428581       0.03525656       2.44311629       0.43515820      -1.43921258
I        2.49461543       5.04693808      16.72035157      -0.41428086      -0.02857676      -0.04604139      -2.15687745       0.76699851       1.75415607
I        2.68317456      24.31182536      16.61714946      -0.41536515       0.12582078      -0.15580006       0.70663411      -0.16594179       0.94007065
I        8.90568613      11.40122652      17.07132986       0.08308048      -0.29267275       0.17710774      -0.14377117       0.43269873      -0.42959008
H        1.70372194       1.41752454      12.21434991      -0.44693896      -0.52431204      -0.08675632       0.09481831       0.10776256      -0.15216497
H        8.57222870       1.34825404      14.65185437      -0.36975757      -0.44283300       0.34367748      -0.00120108       0.10618129       0.21062762
H        9.56038994       9.83903365      13.98293995      -0.77481400      -0.23867983      -0.95540302       0.00092604       0.08303188      -0.00229084
H        2.72040401       1.18022228      20.39638299       0.40400973       0.12079311      -0.42852578       0.09317995      -0.01630556       0.11604247
H        2.95886026       7.75158742      18.56084774       0.28932045       0.49880232      -0.13169765      -0.06428504      -0.01951798      -0.11408859
H        9.60526090       2.79392001      14.57698530      -0.52892636       0.26219428      -0.08476529      -0.23768203       0.16941876       0.05111500
H        9.29749030       3.35107842      20.49159425      -0.09177723       0.65412340      -0.19384226      -0.17425859      -0.01147300       0.09885273
H        1.33760895       1.16754295      19.13218486      -0.05355669      -0.00454747      -0.71148675       0.08788993       0.02148871      -0.06666225
H        3.52380558       2.02722728      12.09701716       0.33964358      -0.39653373       0.12071750      -0.10289305      -0.02551041       0.07490396
H        7.75388876       2.91345209      14.25155457      -0.20377291       0.30575858       0.30987624       0.02836529      -0.03693427       0.19376588
H        7.80710771       9.85814797      14.30757072      -0.64680626      -0.15059230      -0.09440660      -0.27985902      -0.02650705      -0.23336961
H        3.16086876       1.75729231      18.64112782       0.80844943      -0.46260718      -0.67311598      -0.01041947       0.18341713      -0.04054003
H        3.05110707       3.42139471      14.05234546       0.42694557       0.14868995      -0.15985838      -0.00495493       0.01018810      -0.07291551
H        8.63147502       9.19768230      18.98240420       0.27129616       0.33143624      -0.16307750      -0.02918152       0.07180486       0.18318891
H        7.61314759       7.86267908      12.72415854      -0.89643740      -0.06657859      -0.36049057       0.18031660       0.25100111      -0.02942762
H        1.54567538       9.37361916      14.18316529      -0.73380650       0.30043198       0.21496530      -0.15198338      -0.14347068       0.05099184
H        2.39152516       1.92685926      14.43698961      -0.00395064       0.05243931       0.17186228      -0.11980977       0.00839160      -0.08114192
H        7.99549252       7.74733411      19.28535692      -0.68795926      -0.78939211       0.20797371       0.01870041      -0.03397901      -0.07524695
H        8.54175431       7.53724621      14.09747894      -0.14563424      -0.18530785       0.20253062      -0.21928268      -0.04139253      -0.07908202
H        2.20665123       9.51256420      12.53386558      -0.02019286      -0.43902628       0.75943391      -0.20608577      -0.01643372       0.19617266
H        1.37674457       3.23165225      13.97182426       0.41463792      -0.45149559      -0.25870806       0.00658644       0.14614287       0.08708991
H        9.68616824       1.53978844      12.40187939       0.72352231       0.19359479       0.27704120      -0.00886113      -0.19275305      -0.14534643
H        9.25421054       7.81308978      12.61037269       0.10437313       0.21901443       0.02297135       0.12590274       0.36511274      -0.12124816
H        3.17994608       9.28084048      13.97398668       0.40845257       0.44417917       0.15298781       0.01336418       0.04265029      -0.06487292
C        2.12657020       8.45284988      18.71394037      -1.76054699      -0.93682039       0.97605510      -0.42862670       0.01972950      -0.74299607
C        8.65670105       2.32399440      14.16020398       1.59904145      -0.07538047      -0.23602565       0.49566412      -0.20762990       0.04657948
C        8.45202825       3.28345391      19.77582482       0.58761841      -0.23216989      -0.20687114      -0.20318125      -1.03722370       0.12374239
C        2.37064344       1.70281872      19.40223316      -1.04699414      -0.34214025       1.83985378       0.37792537      -0.24368419      -0.43095200
Pb       5.64628568       5.43524945      16.38846229      -0.04674169      -0.05950571       0.24636241       0.78461140       1.04173756      -0.96762452
Pb       5.75546193      11.42410953      16.63607882      -0.12797537       0.19959735       0.19951782       0.34783963       0.02293382      -1.82819165
Pb      24.61620070      11.77819122      22.77150625       0.19241396      -0.04629839       0.20752892       0.93043451      -0.75576967       0.16277277
Pb      24.82711399      11.54591449      16.61302967       0.07730660       0.00743290      -0.13038623       1.98155455      -2.06419266       0.76282415
N        2.31176657       2.74154303      13.79623033      -0.66119620      -0.78074844       0.04250336      -0.31598045       0.11566149      -0.06970621
N        8.78567186       8.33468125      19.55467945      -0.80499045       1.44054026      -0.13563565       0.64788252      -0.12606404       0.19144795
N        8.46530772       8.10657044      13.22819019       0.96081619       0.33198206       0.61907548       0.76203050      -0.67068983      -0.50170217
N        2.27092263       9.04386740      13.52984704       0.18322424      -0.48675530      -0.87484030       0.43164678      -0.23622036      -0.36517966
I        5.56712879       6.47381895      19.50789533       0.21984197       0.02088872      -0.04306720       1.40701239      -0.46018278       0.15182112
I        5.31989874       4.70913793      13.32733820      -0.04740563      -0.14219096       0.07801947      -0.22451644       3.10310594       1.50809664
I        5.21378671       2.64511376      21.79289057      -0.20023294      -0.00441440      -0.08209801       1.62993853      -0.47817514       1.69010716
I        5.65391718       8.46152507      11.35876019      -0.14285118       0.14750273      -0.11858050      -0.95424877      -1.45269292       0.37082689
I       24.80713098       4.49760261      13.59727889       0.01604914      -0.02533683      -0.35495087       1.21067958       0.32614698      -0.81928013
I       11.72412523       6.31539013      19.62912219      -0.07616212       0.00644305       0.14400104      -1.48689657       2.13412541       0.92361865
I       11.48987190       8.53773501      11.36505593       0.11098610      -0.04398663      -0.01956726      -1.41609310      -1.39979260       0.42688685
I       24.82096771       2.64939156      22.15005704      -0.03694555      -0.14836969      -0.22356877      -2.57149081       0.82340492       1.32218159
I        8.72462207       5.82980495      16.06679192       0.22136905       0.12869332       0.20178953      -0.21874840       0.28975324      -0.11208804
I        2.34596185      11.08454513      10.57967250      -0.22018947       0.01382438       0.05122318      -0.10886645      -1.40749465       0.70765349
I        2.42756057       6.02301431      22.17645324      -0.03305484      -0.00581398       0.08672393      -2.11612583       1.05968085      -0.97291664
I        8.82752720       5.18610199      10.88338860      -0.05196005      -0.01775123      -0.06058428      -1.17468067      -0.42209324       0.37399860
H        2.02367568       9.30240893      18.04825089       0.35542697       0.07847694      -0.56878991       0.01878476       0.04102387      -0.00354785
H        9.18693751       7.79801727      21.63369616      -0.05516963      -0.20217813      -0.20671367       0.18333416       0.00155997       0.07293771
H        7.50621479       3.52634749      20.25795841      -0.41061583      -0.30637641       0.29804745       0.10882086       0.10692703       0.06128772
H        2.92799979       7.17082246      12.74013343       0.81379305      -0.16701496      -0.51965859       0.02803557       0.11726948       0.01417398
H        2.06315138       3.24878018      11.77019853       0.11373047      -1.50412096       0.55680311      -0.18439900      -0.12868286       0.16127112
H        9.49663670       9.57243118      21.10835480      -0.49044635       0.36210512       0.10464174       0.06156865      -0.02432148      -0.03782665
H        8.37696652      10.09458383      12.55561951       0.04164526       0.51497843      -0.31585245      -0.19572394      -0.04087572      -0.20052646
H        2.42991053       7.06923683      14.56970022       0.03134531       0.63276243      -0.61569935       0.05759638      -0.08033621      -0.14169061
H        1.19369018       7.80855221      18.69791386       0.57414332       0.63404808      -0.13370585       0.09227990       0.06192707       0.16508644
H        7.60868597       8.86776155      21.33703339      -0.10011953       0.77356061      -0.04985034      -0.01803186      -0.02650987       0.09356507
H        8.52079907       3.90390177      18.87341372       0.45067169       0.16171505       0.13213989      -0.16259782      -0.28463227       0.11206272
H        1.15347708       7.06045965      13.16231447       0.10260868       0.31580707       0.07262774       0.04481459       0.03875568       0.09507807
H        2.18234165       8.28758320      20.83061490       0.21676033      -0.78145876       0.32388118      -0.12628065       0.13402940       0.05581902
H        8.81713632       3.01984979      12.17470170       0.19813512       0.16059693      -0.52119612      -0.29471310       0.00046780       0.03868405
H        8.33238723       1.20368984      20.18682423       0.13903981       0.77371001      -1.36664896      -0.14685184       0.04325765      -0.00471147
H        2.77857707       3.70635798      20.24786981      -0.17478217      -0.44216242      -0.44976334       0.01343223      -0.14900832      -0.02590247
H        1.43481088       9.69548065      20.42001601       0.14981241      -0.41143607      -0.88013327       0.02051039       0.12428438      -0.03730365
H        8.08741684       1.49210158      12.37913060      -0.62410395      -0.07223045      -0.34498080       0.00488002      -0.03270211      -0.30620284
H        9.49500858       1.70324098      18.93783322      -0.05304796      -0.28571248      -0.12384476       0.32022272       0.23952293       0.19486027
H        1.15134414       3.17154231      20.29881356      -0.38587762       0.42262155      -0.33423438      -0.04781684      -0.03628721       0.03369117
H        3.08592724       9.56210353      20.22414382      -0.12901380      -0.31640730      -0.04972163      -0.15901902      -0.16836877      -0.09359017
H        9.65640782       7.89512557      19.19775713       0.74447829      -0.52078752       0.36387766       0.05054779      -0.07205267       0.24463695
H        7.80829833       1.68648250      18.56089543      -0.30599252      -0.16975231      -0.18771709      -0.08326859       0.10910336      -0.02861503
H        1.87972682       3.68798169      18.73885754      -0.37543552       0.13068352       0.64844806      -0.09808140      -0.14851346       0.07057346
C        2.41972062       2.25962172      12.35993759      -0.11015493       3.20551105      -0.26477062       0.81827573       0.23727787       0.24381653
C        8.75152952       8.70931754      21.02230014       0.99816321      -1.27853432      -0.48579372      -0.02683433      -0.12675959       0.38234149
C        8.54081613       9.58796908      13.51690964       1.52914263      -0.47128712       1.06618399      -0.18305682       0.14406642       0.18075937
C        2.19275594       7.48828285      13.48501289      -0.91282896      -0.53311961       0.81442350      -0.13929014       0.50879393       1.02515273
Pb       5.57469858      11.95735906      22.95468190      -0.27116599      -0.06912814      -0.18111644      -1.34723672      -0.31630055       0.99680116
Pb       5.68577229       5.76889293      22.70640747      -0.13513533      -0.09641152      -0.21853368       1.45231766       0.43545908       1.16081203
Pb      24.64476380       5.32845286      16.52961398       0.13045567       0.08991057       0.03895232       2.53928851      -0.24930698       1.37854990
Pb      24.78260283       5.73066474      22.75433271       0.00720311       0.07860976       0.06187968       2.41537145      -0.22124613      -0.70383427
N        2.19512374       9.00958470      20.10823060       0.73090626       1.26560509       0.37495839       0.31224196       0.42959849      -0.09794969
N        8.86509829       2.09836916      12.67181997      -0.84066309      -0.40371318       0.32449567       0.19508661      -0.08637419       0.41804843