768
Lattice="25.489424268572538 -0.0956594233117733 0.005584256169073863 0.09977264370270744 24.739172851202614 0.6001478684267295 -0.002024446371267937 0.5682806783236378 24.75292066089703" Properties=species:S:1:pos:R:3:forces:R:3:momenta:R:3 energy=-3295.550301586638 stress="0.0 0.0 0.0 0.0 0.0 0.0 0.0 0.0 0.0" pbc="T T T"
I        6.04546706      24.41217288       1.76084768       0.15324858      -0.08819914      -0.18337037      -0.34376370      -0.03717435      -5.02715445
I        5.83525090      10.37740141       7.23590559       0.49955171      -0.12663280      -0.00202047      -0.07826790      -2.63155056      -1.61811016
I        6.27368244       7.53356281       2.91916700       0.05483574       0.12315381       0.04028498       0.19960438      -3.97926005       3.23116058
I        6.59482413       1.41023564       5.11195655       0.11859948       0.30286753       0.20178901       0.56761616       0.40925446      -1.60349355
I        0.95023328      10.41852613       7.27137062      -0.04829377      -0.18816786       0.22742652       7.46655886       2.03171659       4.02258143
I       11.66201550      23.55296951       1.87715765       0.46623438       0.36487792       0.52440900      -2.56158853      -1.20787589       2.36372133
I       12.36619366       1.81207880       5.03945373       0.09714473      -0.52909393       0.17773250       4.02622551      -3.72666487       0.62390771
I        0.79204052       7.68133167       3.00701138      -0.49763101       0.11479435       0.48954463       1.58347846       1.79592908       3.15070073
I        9.86721678      11.68023045      10.30758564      -0.60404586      -0.39059866       0.28845926      -1.23148851      -6.14267096       0.16523571
I        2.93814923       3.81073728       4.28709623       0.29574834       0.01011566       0.13619155       0.13515850       0.76365017       0.79413286
I        2.92352799      23.56912230       4.39932846       0.48855565      -0.26775445      -0.00437564       0.01597829       4.46379463      -0.57788909
I        9.64700988      11.01688414       4.64720162      -0.15392944      -0.41874329       0.25702434       3.68692522       1.82109267      -2.66572403
H        1.22929378       1.41293505      -0.63015728       1.47679757       1.02422490      -0.22144889      -0.23301576      -0.06446067       0.01015540
H        9.20052569       0.84276960       2.60307365       0.39490203      -0.09977976      -0.30176320       0.01237262      -0.05797391       0.00032391
H       10.66963596       8.79233138       1.70486071      -1.48521038      -0.43867290      -0.55397666       0.03469625       0.06963087       0.21690120
H        3.72328556       0.01106305       7.40777107      -0.15367941       0.26445694      -1.15200147      -0.39920284       0.38865712      -0.23596999
H        4.46024757       6.48489457       5.86980124      -1.64011633       1.22234900       0.51740830      -0.03140032       0.08018439      -0.31525857
H       10.72580527       1.95229479       2.06632816      -1.13211333       0.06835993       0.16421153      -0.12471645      -0.21619683       0.14668376
H       10.44159641       2.58536022       8.94635739       0.52799726       0.74019177      -0.82982872      -0.17352332       0.06577445       0.30426225
H        2.02735727       0.52785790       6.36592970       0.20092558       1.35643587       0.73378028       0.12086807      -0.43781563       0.18941930
H        3.18177520       1.08842704      -1.14984561      -1.04804333       0.13874797      -0.22231571       0.29637507      -0.15096289      -0.18688973
H        8.78961871       2.53860002       2.17939137       0.35306770       0.94044059       0.63899584      -0.29413189       0.00523485       0.31098194
H        8.69980435       9.11088157       1.58661269       0.88782111       0.26536319       0.63134394       0.06074476      -0.07780119      -0.01536081
H        3.75907446       1.07223346       5.61015400       1.34180899      -0.46687376      -0.74039701       0.06709413      -0.28075676      -0.17084891
H        4.06399246       1.52039111       1.42815818       0.99140152       1.32773231       0.78098455      -0.28262643       0.03324872      -0.21952382
H        9.51389980       8.62594917       6.17386118      -1.01075678       0.63676368      -0.36641699      -0.22151780      -0.02094518      -0.28779072
H        8.53038827       7.18926764       0.00872068       0.21608613       0.58849645       0.82365145       0.22524593       0.15169557      -0.00186305
H        2.39809957       8.79954231       1.58910311       0.16191499      -1.63032553       1.27836389       0.14006499       0.21543369      -0.03499910
H        2.97534689       0.25101676       1.57302003       0.20474402      -0.39565642       0.13294078      -0.06971710      -0.30994942       0.37542117
H        8.83214630       6.97950342       6.55355042       0.71888563       1.17270743      -0.01287668      -0.12579191       0.31988766      -0.00126220
H        8.89559200       6.65305793       1.69187134      -0.34436350      -0.36728962       0.71890239       0.09100134       0.13034330      -0.08833054
H        3.30257275       8.96492739       0.40814583       1.25034966      -0.71203355      -0.01744936      -0.15256079       0.07153971       0.52729753
H        2.41853553       2.06326594       2.24180258      -1.02342671       1.03390012      -0.62964391       0.17063238       0.17744327      -0.13836568
H        9.93793801       0.71828121       0.29672495       1.32961467       0.25678860      -0.55329320       0.02056616       0.21809127       0.06183616
H       10.20760706       6.59569825       0.53434146      -0.99702218       0.93677593       0.51698066       0.25255677       0.23466998       0.18685365
H        4.19271159       8.39239015       1.84995744      -2.17406020      -0.45218404      -1.20717678       0.06898014       0.30436743      -0.12916380
C        3.71240153       7.46054587       5.93509609      -0.51348499      -2.88904509      -0.00934518      -1.74224644       0.42683173       0.76815729
C        9.53168880       1.73739262       1.96387764      -0.43417542       0.44896590       0.70961866       2.08529435       0.05518211      -0.21047274
C        9.64652041       2.75058080       8.09828099       0.04409647      -0.70939974       0.18390592      -0.35626563       1.26598691      -0.04753623
C        3.13154447       0.88064271       6.63912904      -0.16054559      -1.47445780       1.98505828      -1.14115809      -0.07323266      -0.06012867
Pb       6.18379631       4.30103552       3.78956131       0.14859532       0.18029904       0.39776604      -0.34005119      -0.50032601       0.19033980
Pb       6.41344987      10.43819810       3.93968156      -0.13185180       0.71328088       0.18684172       3.07332378      -4.29771046       6.18001089
Pb      25.74497574      10.76731271      10.56825217      -0.04385382      -0.45135115       0.17540471       4.74585304       2.08090925       4.28681306
Pb      25.41112746      10.75018970       4.10477360       0.48945395       0.06160268      -0.18534569       3.59032435       4.14105938      -2.74827259
N        2.96414904       1.38712802       1.32546741       0.43803588      -2.60928880      -1.57512923      -1.28502499       0.35556161       0.46653673
N        9.52050755       7.82907359       6.80502608       1.20094034      -1.89155040      -1.12640962      -0.31564685       0.64022829      -1.50132794
N        9.24976674       7.24094409       0.86067978       2.16571677      -2.05238634      -1.42247508       0.44698640      -0.81780401       0.32649389
N        3.29149256       8.26499872       1.21206582       2.25479995       2.31714245      -1.42324893      -1.28866012       1.08069150       0.35268770
I        6.96410273       5.10510614       6.96760560      -0.06244894       0.37877395       0.14523289       0.44245761      -2.22080811      -4.71068872
I        6.19777188       3.59932621       1.16431676      -0.33152124      -0.22051211      -0.77256842      -2.07397846       0.05272493      -4.05019614
I        6.20484745       1.55103664       9.61456031      -0.26028990       0.38724621      -0.44456119       3.21720681       1.69380453       2.45927107
I        6.75539990       8.18004525      23.10026169      -0.19449617      -0.08984905       0.29661024      -0.76038657      -1.89289811       0.64765543
I        0.14309370       3.70947462       1.16065588      -0.01915367      -0.02883283      -0.01156286       2.48271880       1.23303758      -1.63479798
I       12.16158270       5.43090098       7.43096194      -0.01019641       0.37025423      -0.06553543       3.14890338      -1.21032952      -2.28449387
I       12.79409599       8.13571275      24.29908883      -0.26381955       0.10850757      -0.23055281       1.11434226      -2.85243975      -0.71367295
I        0.33730506       1.35989591       9.83726077       0.00923077       0.32073353      -0.16181694      -1.24838327      -1.55109084      -0.57909806
I        9.32170647       4.95869912       3.94472521       0.04480074       0.13276370      -0.05968134       5.97772803      -0.79074460       2.33616384
I        2.92304820      10.59741425      22.99757008       0.84868254       0.13368987      -0.14522501      -0.40788270       0.53250027       3.20751014
I        3.30231445       5.32649957      10.12829326      -0.59328668      -0.24463818      -0.27963378      -2.69000775       1.20804717       2.37485698
I        9.27381074       4.96190146      22.90674182       0.20189093      -0.21831820       0.23782639      -0.23254660      -1.02845371       1.34206727
H        4.19164978       8.33875609       5.35905486      -0.04688972       1.10911346      -0.88805896       0.22055471       0.00014608      -0.09791672
H        9.50592104       7.19574404       8.84103519       0.18525968       1.95428008      -1.51115161      -0.20564772      -0.02790711      -0.15243688
H        8.76105396       2.70122700       8.80354679      -0.12937854       0.30078763      -0.91866614       0.20117960      -0.31496791      -0.23166071
H        4.09495985       6.23075860       0.36677559      -0.32706113       1.26268640       1.06833113       0.49390715       0.50862674       0.22191771
H        2.46801857       3.17361001      -0.40126650      -0.50032632      -2.50537759       0.32515601       0.28812502       0.06962175      -0.27222514
H       10.28257915       8.83065479       8.51299631      -0.44188142       0.41325818      -0.07055318      -0.16323705      -0.18621581      -0.50357227
H        9.70754825       9.07280112       0.16328711       0.61500861       1.81633279      -1.44259055      -0.09467091      -0.23343045      -0.33891966
H        2.47254341       6.23560795       1.65934812       0.47641999       0.37762809      -0.94740969       0.12310692      -0.21960850      -0.13384795
H        2.57455260       7.13972220       5.43895848       2.41953142       1.90806040       1.41041336      -0.15534903      -0.26999575      -0.04463399
H        8.38311714       8.55062015       8.49780192       0.13913287       0.72254056      -0.28793718      -0.02459877      -0.16854060       0.01200082
H        9.71363497       3.60709167       7.34228909       0.12154998       0.04549679       1.24194827       0.24230455      -0.14649248       0.16006568
H        2.36001689       6.94150868      -0.14618910      -0.85227153       0.00446969      -0.46264618       0.24933204      -0.09837051      -0.36223873
H        3.43587209       7.01354119       7.96688673       0.05520749      -0.16912974       0.36109321       0.39959134       0.26833253       0.18074673
H        9.09076637       2.10564754      -0.17748180      -0.27963930      -0.09987139       0.33446745       0.13779893       0.27729925       0.10463533
H        9.76583541       0.66976790       8.03308755      -0.36022854       0.22011054      -1.31719056      -0.22752567      -0.18397508       0.04307692
H        4.04570563       2.17140350       8.15471233       0.63988368      -0.48582353       0.29724807       0.03947608      -0.04586103       0.02185297
H        3.00274248       8.66394758       7.69270612       0.62140998      -0.42817950      -0.92274939       0.12184243      -0.14692521       0.09787034
H        8.46464550       0.51672011       0.54297494       0.03218756       2.21039600       0.21902917       0.14747619       0.48028098       0.14788929
H       10.33549072       1.32729083       6.54908075       0.58167752       0.00611649      -0.75165949      -0.32345056      -0.12751736       0.06344371
H        2.42912426       2.11221461       8.30276681      -0.88288977       0.18063039       0.58188072       0.60628313       0.13187832      -0.06670722
H        4.68259999       8.17298751       7.71710620       0.82452851       0.84938691      -0.27690771       0.03744811       0.14024392       0.48136958
H       10.52932904       7.44384779       6.54136094      -1.05617435       0.20291718       0.88158273       0.39675969       0.05150882      -0.15919201
H        8.57214561       1.44600150       6.83176901       1.66248493      -0.48922484       0.58314250      -0.04333069      -0.07056069      -0.13353506
H        3.11950950       3.14510768       7.04469172      -0.22855093      -0.92928625       0.13754025      -0.12618248      -0.20148916       0.13494263
C        2.37417632       1.70990669      -0.43144268      -0.04523380       2.28207928       1.35915889      -0.93391767       0.37590684      -0.85390744
C        9.42111686       8.20450049       8.22213364       0.18572905      -3.20151882       2.42858806       0.35901706      -0.97399006       1.86952744
C        9.67456589       8.68380982       1.15503039      -0.97649490      -0.78722368       0.89334069       1.53407281      -0.44853137       0.18157406
C        3.09382364       6.87003869       0.72755911      -0.31444253      -1.34396993       1.44051240      -0.71517844       0.69449990       0.82991532
Pb       6.50239559      10.72083571      10.51742510       0.28278562       0.31089943       0.08926628       3.01488447       0.93996705       1.59950897
Pb       6.29381641       4.61942282       9.95772757      -0.01646167       0.42986834       0.42664322       3.25451290      -2.46662147      -2.39766620
Pb      25.46551591       4.66766209       4.11086089      -0.09093279      -0.25004924      -0.06867782       4.67777292      -7.41777814       5.06186982
Pb      25.40086067       4.52587574      10.29642221      -0.07844358       0.00721533       0.14803008      -2.27323519       2.34896798       2.62210354
N        3.70640839       7.87855497       7.39337648      -2.21432028      -1.62067643       0.03299854      -0.85821553       0.65339625       0.31761483
N        9.20323538       1.37887670       0.57411515      -0.51937959      -3.52557767      -1.28572748      -1.04687282       0.46562627       0.75355125
N        9.61279798       1.43602053       7.26811380      -2.60442384      -0.35719320       1.91547304       0.66919878       0.19211753       0.57507489
N        3.18580048       2.12319564       7.58329811      -0.84912229       1.49722222      -1.56519635      -1.35761732       0.20710152      -0.47486604
I        6.45021105      25.09693111      13.88450360       0.08257333      -0.27492336       0.02046435       2.50730582      -0.10020647      -0.35668039
I        6.17139267      10.13226667      19.76571594       0.03203811       0.32402576       0.05051956      -0.66398504       0.22221301      -3.60851152
I        6.43968741       8.02071509      16.14320936      -0.15158794       0.66253921      -0.30348505      -1.88999103       0.26463483       0.00769633
I        6.32074454       1.92938889      17.03990310       0.22020795      -0.37342734       0.01763094       2.77789534      -1.21096613      -5.11580688
I        0.20428497       9.95266790      19.55656779       0.05173247       0.18388507       0.37216833       2.53091297       5.50038630      -5.94194253
I       12.34283059      23.81927220      14.44537482      -0.05889689       0.24004312      -0.52803383       1.16878531      -1.00254924      -0.94800340
I       12.26818953       1.52908279      17.34841219       0.12843874       0.49305090       0.05037598       5.27677555       0.89234521       1.59204565
I        0.09028641       8.38989821      15.63193834       0.02321949      -1.19037594      -0.11157859      -0.36113333       0.51740784      -1.15075421
I        9.58268588      11.67679294      23.08209607       0.16128259      -0.17679318      -0.09878768       5.95519550       1.15790295      -1.58016672
I        3.22844679       4.18308203      16.73877842      -0.44817516       0.15794390       0.07212365      -0.87404831       2.38685860       0.41591863
I        3.10706634      23.50116241      16.54889499      -0.24039456      -0.08168887       0.17412487       0.12283235       2.71126194      -1.21702595
I        9.47519329      10.50347884      17.18871094       0.15386284       0.40651638       0.21383785      -2.49259745      -0.83971567       1.99023455
H        2.05550347       1.50881203      11.86188378       0.78185055       1.25956594      -0.83201207       0.06992444       0.16858634      -0.35041659
H        8.78729845       2.05956020      15.08323425       0.32472224      -1.11009642       1.74429206       0.12012964      -0.06136049      -0.11936483
H       11.46907558       9.15513818      13.66496308      -0.49662487      -0.00236413      -0.06527624       0.11344440       0.12627710      -0.02905912
H        2.90005937       0.50217925      20.62606219       0.29926653      -0.48416027       0.22465359      -0.12553327       0.08021833      -0.20919418
H        4.44504859       7.40909305      18.39206364       1.22098586      -1.09971627       0.10109864      -0.11185413      -0.39249529      -0.03679677
H       10.88783991       2.69418206      14.53285251      -0.08107751       0.76387071       0.66490417       0.00089451      -0.14197306       0.15446453
H       10.61861180       2.09062209      20.56242549      -0.07272923       0.30238245      -1.22145121       0.07191962      -0.04295176       0.05177560
H        2.74949229       0.64913468      18.64502370      -1.43326336      -0.91751237      -1.09202122       0.12626764      -0.19722182      -0.08716167
H        3.87278211       0.93548757      12.05077429       0.11899068      -0.25163323       0.04914108      -0.09012354       0.17866007      -0.25145379
H        9.05848890       4.02318350      14.43054235      -0.52814489       0.43438249      -1.58526889       0.27223088       0.25556788      -0.08812099
H        9.63519784       8.84478864      15.51359646      -0.16129698       1.02915360      -0.00134408      -0.07256969      -0.57700355       0.39384416
H        4.55944976       1.05680356      19.54171060      -1.37938363       0.25437670       1.05520718       0.18291980       0.06589655      -0.04398896
H        4.08043465       1.88590732      14.50284106      -0.70938329       1.24897940      -0.51465864      -0.01586532       0.25554924       0.28989440
H       10.17854828       8.36026119      18.46713411       0.44868617      -0.72230610      -0.52522604       0.60509467      -0.08235918       0.10184077
H        8.47907791       7.34237510      13.45822894      -0.55906175      -0.28119126      -0.25116069       0.07259556       0.01072589       0.06329262
H        2.70823309       8.28440211      14.99384911      -0.43062871       0.56442481       0.07223333       0.09766881       0.01260466      -0.30297570
H        3.38552807       0.40303794      14.33296691      -1.15253365       0.18946540      -0.85104111       0.26946925      -0.12515932       0.21587719
H        9.55373303       6.70975123      18.83146059       1.69158662       1.13581109      -0.24971573      -0.53282005      -0.32801296      -0.15840154
H        9.77832494       6.77085686      14.54211130       0.16103839       1.12174893      -1.18218728      -0.33525022      -0.14342839       0.00315243
H        2.85447461       8.87005180      13.28895747       0.39607312       1.00399017      -1.14605684       0.14130450      -0.11998951      -0.45274113
H        2.30526012       1.98075068      14.71678096       0.63059149       0.07067505      -0.86585886      -0.23947134       0.44249528      -0.35117558
H       10.49773453       1.21570162      13.27175744       1.52374235      -0.92873233      -0.46086321      -0.05630234       0.25729710      -0.06290534
H       10.09478449       6.95193662      12.70005794       0.17991444       0.57736560       0.45943534       0.12216359      -0.17998199      -0.14853441
H        4.34265114       8.63593486      14.35398813       0.29881245      -0.33703355      -0.36211201      -0.07709832      -0.01201505      -0.25125979
C        3.47691497       7.82838819      18.50432605       0.55957280       4.51569922       0.01260181      -0.96115371       0.38707915      -0.38602130
C        9.53787804       2.81254860      14.34905510       1.87930112      -0.87002893       0.33570052       0.67996217      -0.05158457       0.87086241
C        9.74941923       2.41150052      19.73617411      -0.60898234      -3.47910888       2.42483676       0.19138175      -0.69289098      -0.32773915
C        3.24894466       1.03035169      19.67827225       2.38482852       0.57136671      -0.18314456      -0.76988337      -1.36754545      -0.59281937
Pb       6.19671791       4.97738211      16.25268797       0.63803943      -0.39294979       0.26674890      -1.50137044      -6.68205631      -8.42952231
Pb       6.62977095      11.20989506      16.84947784      -0.60314207       0.06581119      -0.01315301      -2.15264524       5.93552525      -2.36627600
Pb      25.66869063      11.34158467      22.53668654      -0.23562751      -0.33756012       0.26531241      -3.59246124      -2.93179864       1.91653440
Pb      25.30402009      11.04998083      16.55382999      -0.21955945       0.68340665       0.48141507       2.68515472      -0.02974144      -1.04146175
N        3.14098551       1.55422611      14.04460242       2.28906619      -1.90950838      -0.63147813       0.02169401       0.81096386      -0.42155955
N       10.28596442       7.52881747      19.08537712      -0.82881978      -1.59958724       0.77210614      -0.20533185       0.52651578      -0.03115968
N        9.58321394       7.42296018      13.66309364      -0.06542139      -1.80459793       0.92134031      -0.65316627       1.86632884      -2.44399799
N        3.34398790       8.25140419      14.06969643      -0.46928439       0.07652337       1.50304728       1.35130173       0.84961669      -0.83963120
I        7.46609805       5.52253694      19.54605838      -0.48146942      -0.00172256       0.08414661       4.38215617       1.49261585      -0.12287091
I        5.79166369       4.38856524      13.20069451      -0.12217151      -0.26341791       0.39637433       1.77830609       5.67997297      -2.03327469
I        5.85522454       2.00291038      21.69261740      -0.13592973       0.33783225      -0.04182809      -0.98225280      -2.58595653      -1.03391350
I        6.37869437       7.56270056      11.64326891       0.24382346       0.76244237      -0.28768398       1.97546714       0.74238908       2.51816701
I        0.19753502       3.45792426      13.25515575      -0.10075420       0.27961230       0.43104108      -2.89814827      -1.69442292       0.02673852
I       12.94080062       5.53271232      19.50751714       0.05798682      -0.12178977       0.61265449       0.57844441      -2.63245463      -0.26736581
I       12.37645809       7.86801822      11.79945300       0.19109607       0.33144723      -0.31978049      -2.31055361      -0.54043742      -0.30899433
I       -0.55862844       1.57005893      22.07902109       0.39587837       1.01066470      -0.29649455      -4.65167233      -2.57903830      -2.45862874
I        9.78474850       5.27329419      16.56943944      -0.72882147      -0.03586086      -0.14381895       0.72122420      -4.29514404      -1.96351204
I        3.32779742      10.43371871      11.13392312       0.14643474       0.07785056      -0.18306962       3.36462356      -1.06490649       3.28142253
I        2.66864993       5.18407952      21.70252780       1.19249438       0.04855018       0.23305688       2.31062865       1.87176480       4.32699240
I        9.25998586       4.60272791      11.33083121       0.61182729       0.28411934      -0.32961328       2.76913539      -4.08038048      -1.10667171
H        3.48904585       8.81858150      17.93914093       0.21622354      -0.96291592       0.40659420      -0.11413613      -0.05015924       0.11292938
H       10.21113828       6.97804119      20.95409731      -0.14781019      -0.00307755       1.56712657      -0.02066306       0.25364625      -0.05976577
H        8.91961080       2.71229844      20.42380602      -0.12653683      -0.19187007      -0.65596476      -0.05034810      -0.14710753       0.09253193
H        3.65470055       6.70586834      12.38709004       0.12543299       0.24479376      -0.20187999      -0.16033941       0.16888089       0.56308136
H        3.79109718       3.00474279      12.11173021      -1.23520419      -0.36759220      -0.03073460       0.03610337       0.00177392      -0.16809447
H       10.38412565       9.11402104      20.84578691      -0.49154195      -1.13919194      -0.08782402       0.13362309      -0.15828947      -0.25535695
H        9.02156516       9.39262156      13.05540688      -0.27948668       0.87339550      -0.40221345       0.30819657       0.23743908       0.13843240
H        4.14737123       6.30335003      14.69225039      -0.30266537      -0.03394660      -0.61470066      -0.11795791       0.32367099      -0.25315665
H        2.67544248       7.30772985      18.07027028      -1.91317587      -1.85578492       0.07722007       0.45384539       0.22323229      -0.10234800
H        8.63810959       8.15928551      20.56492460      -0.31461354      -0.57271587       0.19456603       0.09254505      -0.29200854      -0.01257403
H        9.92368191       3.19684871      19.03077526       0.39662050       0.85798307      -1.37264430       0.10606949      -0.01318201      -0.06681586
H        1.83965399       6.46003930      13.91177775       0.22172983      -0.06599199       0.05599343      -0.16242081      -0.12131044      -0.43555062
H        3.19641188       7.52467514      20.56975452       0.11359671      -1.01671807       1.13298158       0.29601999       0.14772988       0.38074074
H        9.66883456       2.37766084      12.15691030       0.28682149       1.25964194      -0.92818283       0.05734016       0.24660644      -0.28769915
H        9.41551097       0.29371313      19.88403267      -0.46230389       0.04807985      -0.03694320       0.12960492      -0.05855223      -0.23115191
H        3.14842931       3.37892722      20.53656869       0.89828504      -0.61180296       0.12211400       0.20990028      -0.10869158       0.10015228
H        2.11729769       8.74670956      19.95149556       1.64606178      -1.08927894      -0.23961448      -0.02413291       0.13841405      -0.12685287
H        8.83054315       1.15752606      13.15608717       1.42633713       1.08994860      -0.34849745       0.06588643      -0.26841987      -0.12967992
H       10.15012199       0.62770487      18.44242536      -0.82248804       0.47773404       0.09016210      -0.02736391       0.15815582       0.16345952
H        1.57650114       2.24827625      20.51662544      -1.41477055       0.55145809       0.49952459       0.23468120       0.17820877      -0.24311515
H        3.88511864       9.12394802      20.22504353      -1.18721489      -1.21517522      -0.12191931       0.44462780       0.20262307       0.37038329
H       11.33033236       7.01531263      19.26901545      -1.26905173       1.40303833      -0.87199715      -0.21081220       0.06690151      -0.47512532
H        8.41582366       0.86733080      18.58706650       0.39632268       0.65897915       0.28319945      -0.16682128       0.26860646      -0.08745958
H        2.08419778       3.01170567      19.02038100       0.31567161      -0.01501960       0.71202455      -0.01642453       0.03937826      -0.03208442
C        3.15836762       1.77924119      12.28983744      -0.71358908       0.02060098       3.52599475       0.16913314       0.08289202      -1.21109715
C        9.83653601       7.96781064      20.50444082       0.83541707       1.67528363      -0.61239918       0.46488929      -1.39102571       1.03603699
C        9.95380797       8.87536811      14.00200008       0.66320766      -1.51283123       0.44081512       0.18997954      -0.35351186       0.49072921
C        3.23883968       6.84567515      13.70826117       0.22656416      -1.34471804       0.71141001       0.42223084      -0.02982288      -0.16210786
Pb       6.61171638      11.57150193      22.95661810      -0.64699811      -0.56471742      -0.50350330      -6.26251835       3.96551453       0.88468014
Pb       6.14524829       5.16120765      22.55488882      -0.27247702      -0.12521530      -0.29356037       0.11393809       0.29004924       1.91974860
Pb      25.49078902       4.96968273      16.20762266      -0.12539648       0.25994084       0.04213432      -2.60379748      -1.68570492      -2.96444138
Pb      25.19840945       5.15341562      22.86537569       0.10742707      -0.35230775      -0.16930659       1.45611636       1.58882548      -5.11048336
N        3.17448637       8.29494703      19.94595710      -0.61119192       2.63179084      -1.28719654       0.40336774       1.41014344       1.22699310
N        9.70075835       1.87672670      13.11699864      -4.91334498      -1.48244459       0.62790293       0.74428597      -0.74133623      -1.33784347