768
Lattice="38.36233378009021 -0.17091669423460434 -0.23415642229604455 0.13860846621712591 21.550492846406996 -0.023849043928523623 -0.012701609790407587 0.03213069133637567 18.81004073834508" Properties=species:S:1:pos:R:3:forces:R:3:momenta:R:3 energy=-3331.9351048668505 stress="0.0 0.0 0.0 0.0 0.0 0.0 0.0 0.0 0.0" pbc="T T T"
I       18.38100944       4.87868262       3.02918694      -0.21404666       0.32123728       0.30700632       1.40502977       0.12379628      -0.60771738
I       18.20519435       7.89807800       0.81864392      -0.23319211       0.63925392       0.09908023      -0.52329118       2.30870586      -1.04156223
I        8.33543646      10.23493178       3.15095718       0.15334670      -0.03000399      -0.21815774      -0.75906259       0.10408870      -3.10286836
I        8.58753611       3.14501402       0.83238409      -0.13316860      -0.58804820       0.08522195       0.32952292      -1.66958515      -2.67625153
I       16.24214600       1.77116121       0.97387927      -0.39593658       0.11477220      -0.15750216       1.19382920       0.23169088       2.24369103
I        0.63798469      11.64284050       3.73288762      -0.02959919      -0.09175919      -0.35827674       2.11989705       2.03625428       0.35432527
I       10.30389867       7.01674365       0.95410342       0.09105275       0.25230291      -0.21345608      -2.40490999       2.82935098      -0.88948486
I        6.78962806       6.08936432       3.10751736      -0.29644550       0.17600602       0.04047254      -4.15011949       0.60124885       1.70496331
I        2.75325767       4.44644873       1.04675117       0.09346071       0.04675222       0.00233060      -0.48054661       1.30747946      -0.76665522
I       14.07181729       9.33401184       3.32056687      -0.12850985      -0.09505216      -0.07756406      -0.74083781       0.67608709       1.45218848
I        4.29955405       9.72480045       1.00081692      -0.00633326       0.06405994       0.09000090      -1.09814948       0.65571196      -0.33688967
I       12.65554829       3.55791318       3.48790046       0.02478649      -0.02731051      -0.35635037       1.08579244       0.98431470      -0.88156590
H        5.60171807       3.07173251       2.00341438      -0.08130424      -0.22310184       0.62116084      -0.09332021       0.16993955      -0.01695205
H       11.70548008       9.91144234       0.94495561      -0.26321035      -0.83336072       0.28955050       0.01091624      -0.20376830       0.11469212
H        1.84060315       8.68047832       3.99634164       0.05985645       1.05652510       0.60213090       0.13396333      -0.00165480      -0.08551750
H       14.96477904       5.09316852      -0.14710942      -0.10810863       0.36741395       0.53656107       0.12817999       0.02648341       0.10975261
H        6.19083642       3.09903637       3.95891789       0.21551774       0.02404261       0.61905110      -0.15868919       0.36350152       0.27210388
H       10.90196421      11.46428108       1.32114802      -0.07282481       0.60399118       0.34279078      -0.02816732       0.07105877      -0.05308316
H        1.55910702       7.50120147       2.48412591      -0.22651964       0.31176920       0.23144776       0.02662930      -0.08240824       0.11410859
H       15.58080945       6.81654472       0.32487188      -0.37382865      -0.63025864       0.12932881      -0.04274649       0.18550216       0.12861348
H        6.45857906       1.48612226       2.82614409       0.20135362      -0.29291202       0.07362619       0.16180722      -0.13141475      -0.18381866
H       11.04856234      10.93488741      -0.45234891      -0.04583701      -0.35317857      -0.34388789      -0.11949790       0.16984841       0.02858796
H        1.43230213       6.92791692       4.28428961       0.15138870       0.38799415      -0.23114150      -0.07848251       0.07945950       0.11899598
H       15.80028986       5.48554955       1.50693701      -0.25207789      -0.38255304       0.15831858      -0.13618661      -0.06359529      -0.02098539
H        4.28084583       1.04921788       4.07486882       0.36231212       2.12280878      -0.87888855       0.19174621      -0.03509649      -0.16265663
H       12.89614970      12.60526879       0.10210039       0.29593569       1.11289795      -0.48704154       0.12191355      -0.06950448      -0.04345232
H        3.96297600       7.86235039       2.97131725       0.18527260       0.44090728      -0.33979625      -0.31135488      -0.02454023      -0.09359055
H       12.99592789       6.55544993       0.76126002       0.23959441      -0.07333909      -0.72788561       0.04819020       0.20276097       0.02648328
H        3.84789365       1.58462138       2.50558997       0.37327093       0.49818707       0.31390414      -0.01834778       0.36709332       0.26251068
H       13.43091809      11.02870489      -0.28144719       0.54483158       0.10124149       0.00353316      -0.08295090       0.18815467       0.06851805
H        3.58325920       6.28759544       3.07427852      -0.17053041      -0.70410180      -0.15286662       0.23813535       0.05983713       0.11599738
H       13.89655235       7.03293389       2.07534045       0.19854603      -0.35613671      -0.36306218       0.00501269      -0.05961359       0.21305141
H        3.74401473       2.73162924       3.82609934      -0.22431477       0.08631961       0.32143941      -0.05669658      -0.07447139       0.06094565
H       13.43476064      11.53642716       1.42330631       0.73041461       0.46495290       0.35716184      -0.02451773      -0.11679362       0.18806218
H        3.98358563       7.19980473       4.47912413       0.25195245      -0.30273632       0.87420276      -0.05879171      -0.27045206       0.01988774
H       13.47436648       5.36590764       1.90387895      -0.02634755       0.65233721      -0.26503828      -0.16166622       0.00135422      -0.03326627
C        5.77226814       2.44133350       3.05392921      -1.89222747      -0.45692871      -0.88543376      -0.31992717       0.30583964       0.16504140
C       11.55151733      10.92223643       0.56102766       0.07676179       0.58892911       0.30794316      -0.07193634       0.46828803      -0.26241193
C        1.96551123       7.64241804       3.61190933      -0.46934691      -1.80175909      -0.37901332      -0.21996470       0.62137369      -0.37324939
C       15.10735498       5.84334447       0.72243569       0.37394338       1.23173210      -1.33540422      -0.13840834      -0.05944224      -0.00567939
Pb      38.17288921       2.88254761       0.79111811       0.11013908       0.17920283       0.52464753      -0.29235661       0.13538420       0.57414057
Pb      17.09603930      10.23457161       2.91957929       0.35020495       0.13949648      -0.17136539       0.16424103      -0.42902011       0.35743441
Pb       7.20201070       8.45434074       0.65526853       0.16327521      -0.05958289       0.41170747       0.09659183      -3.96912599      -1.55109826
Pb       9.56607029       4.89972568       2.95383268       0.15993542      -0.13038413       0.87061623      -0.60096103      -5.78125777      -2.52633866
N        4.32894434       1.95286162       3.40226783       0.81544908      -2.22783321      -0.24482664       0.38194283       0.33812248      -0.74576111
N       12.95051159      11.62646531       0.45651116      -1.37451757      -1.69549795      -0.05330601       0.31337216      -0.73211957      -0.23121493
N        3.46160967       7.19717774       3.57470842       0.06560622       0.52680674      -0.85738941       0.36760151      -0.11292869       0.63895079
N       13.80600206       6.24237616       1.35760598      -0.13695049      -1.01513690       1.53162637      -0.35523189       0.00212074       0.35526948
I       18.32892224       4.87650396       7.66443964      -0.19293175       0.28307091      -0.07073881       1.22746037      -2.11465648      -0.23687752
I       17.89640303       8.50713383       5.43277193       0.10748190      -0.07211827      -0.16048472       3.92003995      -0.92545585      -1.18646899
I        8.38180519      10.30950489       7.78439499      -0.19429518       0.12155070       0.11900397      -1.57917002      -0.98543783      -2.41518868
I        8.59002604       3.07250653       5.69612119       0.14852214       0.31417322      -0.10213547      -0.20683567      -1.30549138       2.39395194
I       16.28856697       2.00323003       5.62479643      -0.38601775      -0.19871213      -0.44648067       1.81018926       0.10247444       0.64043199
I        0.93688338      11.42769424       7.79409226      -0.32281557       0.08882347       0.33131078      -1.62258672      -3.02591303      -0.28708190
I       10.48322339       7.23708389       5.51217192       0.01529474      -0.04132467      -0.15076293       1.27882769      -0.98993416       0.67020244
I        6.52252527       6.27450006       7.91201096       0.10320029      -0.21357610      -0.03383210       1.64892921       0.98203003      -0.88871262
I        3.04967120       4.14788523       5.59469035      -0.12461825       0.14422739       0.41978721       1.13398839       0.55005289       1.61443894
I       13.78772200       9.42096850       7.76657317       0.00389115      -0.51806280       0.11790990      -1.88637204      -0.96349676       0.18016900
I        4.47302658       9.78059889       5.57555125       0.26046307      -0.28247837      -0.00237082       0.68707218      -1.67546508      -3.54470997
I       12.73904169       4.02038677       8.00826519      -0.36850498      -0.02735923      -0.17148159      -0.74155890       1.52883130      -1.99318502
H        6.11751111       1.26301305       8.90949714       0.71635977      -0.22349869       0.29846725       0.15048247      -0.12012154       0.29218768
H       10.33167442      11.33539705       5.87506826      -0.19809676      -0.31746948       1.13141297       0.14868685       0.11818080      -0.10962126
H        2.26245049       8.60472166       7.35307670       0.15771871       1.02684768       0.22121610       0.06066825       0.19755768       0.07663225
H       15.28850061       5.07178669       6.35864074      -0.36512383      -0.03159037       0.17601534      -0.12390110       0.07044832       0.09274650
H        6.25450725       2.47062029       7.54739959      -0.58001907      -0.66044352      -0.24451166       0.14096948      -0.28703396       0.05797946
H       10.90090469      12.05352094       4.34899460       0.56979012      -0.40045662       0.35059670       0.04383547       0.22167732      -0.15071590
H        1.78403716       7.01320888       6.82003638       0.42142659      -0.29235795       0.81809908      -0.03223238      -0.11101912       0.30178848
H       15.94564855       5.89707362       5.04122007       0.98751748       0.54181248      -1.02638680      -0.05508439       0.01733923      -0.05127398
H        5.63137617       2.99250476       9.09516834      -0.31396890      -0.27586806       0.09604211       0.06064526      -0.12596609       0.05332149
H       11.38300388      10.31696087       4.73021834      -0.29516829       0.43048803       0.33459544      -0.22406929       0.09737033       0.33158453
H        1.38140610       7.49670726       8.60012169      -0.63775297       0.54792213       0.19105899       0.02963001      -0.14678280      -0.09895665
H       15.53587516       6.86797973       6.62070015      -0.33270031      -0.60990030      -1.24664412       0.03497735      -0.05328496       0.05231236
H        3.61337654       2.42182399       7.73706006      -0.01744694      -0.08237751      -0.17462696       0.12447682       0.26916194      -0.02887580
H       12.42160936      12.63815403       6.22837985       0.08531002       1.01269078      -0.02876691       0.10398480       0.08012600       0.15285435
H        3.83906371       7.77157407       9.02553022      -0.30677164      -0.02692768      -0.11684081      -0.07038142      -0.12833704      -0.24104893
H       13.76864395       7.24405996       4.75810848      -0.17800395      -1.07556878       0.81825371      -0.01688090       0.30714092      -0.02248771
H        3.79489260       1.28923727       9.04106912      -0.30919316       0.12863917       0.22865456      -0.05376840      -0.03454894       0.20545240
H       13.10603838      11.73400017       4.89698359       0.26360626       0.20659320       1.16593792       0.17147710      -0.15691550       0.20122515
H        4.07538494       6.94140179       7.56128926       0.02470775       0.19305950       0.38274747       0.00360358      -0.06065760      -0.06547665
H       13.10488990       6.27846316       6.08202154       0.28855023       0.33742879      -0.05455006      -0.11854254       0.06061330       0.00056434
H        4.21184615       0.83222535       7.45927872       0.21412325       0.37934255      -0.02176782       0.05668191       0.21898187      -0.15332684
H       12.86637623      11.08815504       6.51275255       0.15059636      -0.62803428      -0.28466455       0.14211447      -0.04617947       0.07771045
H        3.21834999       6.15484264       8.77219680       0.28985176       0.82449556      -0.23475273      -0.05567669       0.04857595       0.12697944
H       13.49568128       5.49441628       4.72461855       0.26416458      -0.20837715      -0.36229481       0.06423251       0.00877254      -0.09045787
C        5.65927600       2.11154564       8.41917381      -0.29438682       0.64805678       0.23512745       0.13174219      -0.69358014      -0.54239545
C       11.20980338      11.33048084       5.18784353      -0.95494225      -0.39992186      -2.08724155      -0.41066598       0.44713355      -0.58278602
C        2.13349479       7.60859419       7.77334596      -0.93465695      -0.53647498      -1.01951776       0.87689283       0.57665401      -0.27264337
C       15.28170551       6.05831630       5.84304939      -1.56120789       0.20285182       1.47490133       0.45926466      -0.48056551      -0.07839481
Pb       0.01714695       3.00517537       5.99424783      -0.08811252       0.16098014       0.14926223       3.16069994      -0.66735397      -0.06730888
Pb      16.75022036      10.38270041       7.64073180       0.06291885       0.24263559       0.28436997      -2.73711044      -0.64658030       0.67320759
Pb       7.52943469       8.40138021       5.48599582      -0.27828659       0.04497440      -0.11166993      -0.23456536      -0.21094981      -1.02176416
Pb       9.64988393       5.18392188       7.80808043       0.06043270      -0.38513112       0.26498501       0.33689533       1.53377748      -0.36305075
N        4.23722318       1.65126162       8.14211370       0.52402752       0.09988448      -0.75536718       0.22633468       0.19482907      -0.40496597
N       12.47922208      11.72671000       5.76293835       0.41382533       0.32950657      -1.01695397       0.23447212       0.72581801      -0.25445093
N        3.38585167       7.12249902       8.32129455       0.52770940      -1.79482061      -0.25759812       0.24353209       0.49705132       0.23007218
N       13.83784055       6.29540552       5.31029019       0.95366330       0.79959018       0.28585199      -0.37926587      -0.20095097      -0.87515539
I       18.06763790       4.91919285      12.51041455       0.02455117       0.08525123      -0.46153737       0.69126812      -3.65760392      -1.65842336
I       17.60851762       8.57148312      10.22081338       0.34223879      -0.26370673      -0.36272118      -1.41584700      -2.96307174      -0.44873176
I        8.05458014      10.32584267      12.70037520      -0.06061985      -0.22890784       0.05617640       1.06079215      -1.03576964       0.08255288
I        8.96856813       3.01320066      10.23555942      -0.17496347       0.19990084      -0.24243525       0.09130431       1.61166141       0.93893144
I       15.91261382       1.44112592      10.09568001       0.36206633       0.58314998       0.09992963      -0.12461494      -1.03147445       1.80311750
I        0.79112648      11.83283011      12.99354851       0.03713657      -0.67194196      -0.22730262      -1.12411434      -2.16542115      -1.01967560
I       10.22716548       7.31282109      10.45754874       0.04557752      -0.18110119      -0.12401038       0.45538235      -0.89759604       0.12223439
I        6.53008561       6.13406232      12.55462650      -0.14355039       0.01353238      -0.22162547      -1.29315325      -0.09108864       1.25732917
I        2.92634956       4.11489293      10.43675394       0.20726093       0.31433226      -0.13968076      -0.23388649      -1.37611979      -0.62724570
I       14.10910274       9.01021406      12.52348861      -0.22389980      -0.08443615      -0.12792738       1.11597300       1.30075154       1.60135828
I        4.26688855       9.68240552      10.65544986      -0.20194122      -0.10025723      -0.09935234      -0.39021860       0.50686818       3.99271069
I       12.55779939       3.48674904      12.45824172      -0.04453435       0.15977801      -0.00729028      -1.98329254       0.00739277       2.35462126
H        5.23742492       3.34131740      11.80037932      -0.13258832       0.02542484      -0.21780740      -0.21577348       0.04817251       0.02776170
H       11.76126506       9.65678457      10.75968864      -0.53423456      -0.31862562       0.49251334       0.03158341      -0.13027991      -0.14766555
H        1.90450541       8.36641512      13.70557808      -0.19410203       0.06798528      -0.04596560       0.08236866       0.11586046      -0.06619879
H       14.99915605       5.14659444       9.01453984      -0.54901967      -0.16952806      -0.33623707      -0.21150493       0.02839049       0.07453873
H        6.49085230       2.36577854      12.86152445      -0.52498978       0.05168688      -0.44641953      -0.02269981       0.07990584      -0.08587849
H       10.64831249      11.18936703      11.41878329      -0.55460834       0.41974562       0.55816372       0.26502076      -0.15071427      -0.13328440
H        1.15015139       7.82671993      12.11898427      -0.07803835       0.49047975      -0.38616632      -0.10029656       0.05791314      -0.15043361
H       15.49184559       6.85578991       9.33016415       0.05150645       0.36357017      -0.27612788       0.00394357      -0.05114567      -0.12214717
H        6.00772321       1.69363922      11.27394300       0.29446555      -0.35431463      -0.64484473      -0.04001835       0.16041069       0.06890327
H       10.37941595      10.56242291       9.69915998       0.38743614      -0.08478283       0.79537097      -0.00250803      -0.18133522       0.16912186
H        0.94792934       6.77446871      13.50019934       0.19585294      -0.12552742       0.44878650       0.06199101       0.02382877       0.08040526
H       15.68324752       5.55227722      10.53552401      -0.40371636       0.46728950       0.65735785      -0.07805056      -0.01241595      -0.14371585
H        4.86933763       0.77718269      13.55571352       0.17784921      -0.48234437      -0.18551109      -0.12571100      -0.19828624       0.07414257
H       11.80576397      12.37825651       9.14290997      -0.25510211       0.15749717      -0.10019334       0.17496494      -0.17606089       0.00652858
H        3.56432249       7.50309967      12.14080308       0.24999521       0.04109895       0.16413716      -0.11915816       0.10234837       0.15686431
H       13.04555106       6.55729179       9.41097119       0.26827723      -0.22602879       0.49593637       0.14457956      -0.00918550      -0.09327210
H        3.74062910       1.10459203      12.30284351      -0.70283914      -0.22722487      -0.97337739       0.16382222      -0.17581108      -0.03355356
H       13.05349424      11.02468805       9.50267898      -0.11548938      -0.49985475      -0.83718013      -0.09071426       0.07768461       0.04086595
H        2.72684289       5.99980824      12.09692943       0.12192170       0.13381520      -0.26922825       0.26182380       0.01437144      -0.00030321
H       13.67114707       7.16029229      10.86461113       0.00255440      -0.59925542      -0.13888953      -0.07620790      -0.06686805       0.06167493
H        4.06813709       2.21020108      13.47867812      -0.81484027       0.78236817       0.49570721      -0.00298341       0.08620180       0.03415540
H       12.79948957      12.39394107      10.56215796       0.26129107       0.13362639       0.81798394       0.12138606       0.05414377       0.03196080
H        3.50786535       6.37151648      13.48967776      -0.37904428       0.58857947      -0.21635413       0.05317672      -0.24152684       0.03446222
H       13.22966183       5.51903174      10.68735676      -0.76987436      -0.94911633       0.97743314       0.02983963       0.17476542       0.04796557
C        5.62922940       2.30836150      12.11162641       0.21375239      -0.46683252       1.27236580       0.55509547       0.17490536      -0.83903516
C       11.13626312      10.68687633      10.52138880       0.59289192       0.01778190      -1.60662618      -1.19835704      -0.28642807      -0.01413851
C        1.66311153       7.52253285      13.04126630      -0.03857710      -0.08515164       0.44736437      -0.55818835      -0.33217506       0.14590963
C       14.99951892       5.96902369       9.75937338       1.43593142      -0.70878924      -0.35493782       0.10330683      -0.43499253      -0.07332289
Pb      38.38804907       3.09106483      10.36774709      -0.04500939      -0.55969593      -0.33809635       4.75058022      -0.16272924       0.29159560
Pb      16.90136332      10.34007311      12.53483632       0.07437955       0.23706790       0.09720684       1.71694703       1.07989418      -3.60540473
Pb       7.16795575       8.47888730      10.18602887       0.28434829       0.01978283       0.27305336       3.05560865       1.98485324       2.48918084
Pb       9.58714653       4.81468193      12.70332648       0.29223698       0.23884939      -0.24444641      -3.05515289       2.73822725       0.03904625
N        4.50132204       1.53274980      12.86962926       1.46204963       0.65550765       0.73725864      -0.34872689       0.13254686       0.13143001
N       12.22373277      11.67089187       9.88730879       0.35284515       0.56548209       0.10854328       0.46812065       0.35458769      -0.82971182
N        2.95199880       6.84441354      12.69057138       0.31224441      -0.82089037      -0.15972422      -0.17718170      -0.43538437      -0.06850695
N       13.65739482       6.30063597      10.22489873       0.08757475       1.66243415      -0.79063427       0.25132941      -0.07544086       0.11820841
I       18.18833129       4.88393914      17.12217290      -0.05510381      -0.14632182       0.08464866      -2.43138586      -1.50962539       1.94849149
I       17.93848394       8.10486995      14.57867358      -0.09045604       0.24818933       0.12971155       1.43322479      -1.13961721       1.21072222
I        8.26702924      10.11551318      17.18019760       0.00860106       0.22882428      -0.09381263      -2.23228386      -0.33964065      -1.90889092
I        8.42283774       3.11586442      14.91236053      -0.10283093      -0.31651895       0.26236284      -1.17451413       4.56256789       0.98173421
I       15.74482247       1.69754967      14.83445095       0.29164402      -0.03319484      -0.22859986       1.10536212       2.55511850       0.58478610
I        0.73797571      11.68756393      17.58769703       0.20221228      -0.09673001      -0.06015347       0.77472399      -1.77762446       0.87867953
I       10.38157053       6.99121166      15.18717040      -0.17662912       0.37250948      -0.26673531      -0.70986164      -0.90350389       1.08129540
I        6.59761919       5.95941290      17.41813590      -0.47978138       0.26504414      -0.05798631       2.12618517       1.13462915       1.60911133
I        3.00836780       4.24998853      14.88671459      -0.03000580      -0.05126293       0.10098404       0.16605959       0.60803986      -0.47694488
I       14.12492431       9.03496417      17.35044115      -0.01071710      -0.09400758      -0.10730502      -4.69190956      -4.03314731       0.37297944
I        4.19457484       9.55592589      15.28125327       0.10668675      -0.02595782      -0.05215281      -0.80170976       0.09961386      -0.98516381
I       12.57475264       3.70904449      16.95201127      -0.36583300       0.04841598       0.15970232       0.06878806      -1.67059962      -0.89198442
H        5.49778939       1.68551637      18.86184863       0.60076505      -0.49340329       0.25245367      -0.07570923       0.16143941      -0.26848048
H       10.45753172      10.92594162      14.81128682       0.11611178      -0.36415843       0.06050774      -0.08261076      -0.04247528       0.25020151
H        1.52336148       8.21575782      16.62213259       0.54612036       2.18669516      -1.56279387      -0.15215582       0.27248991      -0.08202954
H       15.08666245       4.48718573      15.35196491      -0.52329193      -0.68152205       0.42230366       0.08762131       0.03041952      -0.03923484
H        6.10499309       2.17416461      17.08263861       0.49310830       0.05999200      -0.15902648      -0.14166188       0.24626170      -0.35432417
H       11.15274529      11.77043504      13.37928961       0.32301116       0.32143804       0.00584248      -0.02474464       0.19353402      -0.15503372
H        1.64287527       6.36857633      16.46415316      -0.19020694      -0.51782067      -0.15421966      -0.00533689       0.07102100       0.13010719
H       16.00390627       5.74917980      14.30109415       0.57227545      -0.66382139      -1.04355859      -0.11787414      -0.08462299       0.01918643
H        5.13921768       3.42544077      18.16888330       0.19485102       0.25126025       0.13040566      -0.11234610       0.09586140      -0.00204885
H       11.61183623      10.06370517      13.57827240      -0.24620152      -0.07777615       0.36517800       0.07791617       0.38723697      -0.00273927
H        0.93119742       7.27534433      17.92782987       0.52939173      -0.54180603      -0.06613243       0.19831159      -0.12026718      -0.24946233
H       15.48638943       6.20327330      15.93945792      -0.36269063       0.16475835       0.22447382       0.32175705      -0.04721028      -0.01161994
H        3.75723288       2.51006993      16.52086385      -0.52824517       0.81196080      -0.26364362      -0.18980644       0.11390531       0.06733914
H       12.42643969      12.24364910      15.36346263       0.09177643       1.07748088       0.75120242       0.01058729       0.11220706       0.29143717
H        3.41583030       8.32807418      18.18725998      -0.10688697      -0.50115337       0.12557508       0.00346239       0.10223856       0.09819252
H       14.09286647       6.79910710      13.71489354       0.03892447       0.96918812       0.13348280      -0.09074107      -0.01667541      -0.15078059
H        3.18504088       1.80701317      17.96250644       0.16549425       0.30935767       0.34634665      -0.04154838       0.00390158      -0.14526491
H       13.52857766      11.34344633      14.41374620       0.32967867       0.12181084      -0.66956807      -0.16341729       0.23513282       0.16129107
H        4.00141521       7.53826603      16.81264413      -0.32488407      -0.39366100       0.59035072       0.02121392      -0.13574837       0.05523634
H       13.34338150       6.40266921      15.23466944      -0.54965313       0.49758377      -0.07442569       0.14793635       0.11944523      -0.11564681
H        4.07890388       0.92815060      16.86624252       0.48432346      -0.28150393      -0.00182309       0.00651949      -0.14799678      -0.02541390
H       12.85930945      10.67265690      15.83593263      -0.34656127      -0.30037683      -0.22938684      -0.03117992      -0.02954220       0.32468510
H        3.55285579       6.45674036      18.23464218      -0.01566773      -0.21445087      -0.10157645      -0.04606648      -0.09768104      -0.06009183
H       13.39347310       5.27732616      13.98905797       0.21915763       0.16184429       0.12642652      -0.10744241      -0.07293198      -0.06475840
C        5.32692922       2.32438348      17.90453985      -1.26224190      -0.07333233      -0.00382399       0.70177394      -0.45490332      -0.07887820
C       11.38868539      10.98460544      14.13926966      -0.58608116      -0.68891898      -0.45811662      -0.29677990      -0.52925241      -0.45545809
C        1.74281006       7.27993976      17.12746257      -0.70532941      -1.08244510       1.76214360       0.25802321       0.47465369       0.23738788
C       15.16461938       5.56169678      15.05515241       1.14587365       1.32429619       0.20323326      -1.21512174       0.02262264       0.41772524
Pb       0.00110014       3.03187576      15.30630720       0.06800162      -0.26242401      -0.32055617      -1.54421218      -2.58615774       0.61728069
Pb      17.33384321       9.93286474      17.16160472      -0.06281519       0.11863342      -0.06975997      -0.90871842      -0.43955028      -4.00570388
Pb       7.07059291       8.23917803      14.86467985       0.40731031       0.11629952      -0.06695593      -1.30449058      -0.14134937       2.43304790
Pb       9.40402358       5.01178632      17.29350978       0.81254446      -0.22609965      -0.26913850      -0.96386215       1.96569744      -0.99750663
N        4.02611920       1.87105290      17.31691772       0.07080791      -0.74053874      -0.26125550       0.20045919       0.93358914      -0.37181058
N       12.59959466      11.31294204      14.97205223       0.40069438      -0.08712006       0.36994284       0.45854990       0.40666926      -0.24015109