768
Lattice="31.343885341238796 -0.47746557187201905 -1.6062135899949226 -0.40744855527168355 29.62807268781774 -0.02279442302894619 -1.4504438450383712 0.04122985736401602 17.113936445534993" Properties=species:S:1:pos:R:3:forces:R:3:momenta:R:3 pbc="T T T"
I        7.38494805       0.21266376       2.16245952       0.02808259      -0.16221303       0.03555016      -0.24867286      -1.03465766       0.19174349
I        1.85519831       5.58989551       1.98428004       0.00180019      -0.10708364      -0.21063229      -0.47085430       2.77149917      -1.45958571
I        6.50690693       0.49106377       6.03945900       0.16544483       0.19200265       0.02257874      -0.40445797      -0.86895938       0.61088649
I        2.65828236       5.24992867       6.46883541      -0.38331291       0.05179477      -0.13950024       0.24751269       0.98225010      -0.17564484
I        5.98317426       4.02706586       3.62559964       0.02647352      -0.00928648      -0.11947778      -0.87849076       0.84105845      -0.51325770
I        2.66486038       1.93178335       8.96139658      -0.06004483      -0.15864812       0.04548375       1.96742524       1.31711923       0.72408371
H        3.58680549       2.78202725       4.01583873      -0.94678211      -1.68869481       0.30484659       0.00205469      -0.00903899       0.08324802
H        5.56891191       4.25356830      15.35578259      -0.03216266      -0.41337953      -0.41929307       0.03664086       0.01766662       0.01838151
H        1.96618881       1.72507732       4.21870131       0.09063492       0.49678605      -0.19347711      -0.02942611       0.07445949      -0.16651074
H        7.88030913       3.71874487      -0.22489690       0.72656153      -0.38436679       0.14562462       0.01863988       0.03121524       0.00028970
H        3.10400701       1.87090122       5.57155723       0.25641261      -0.03628355      -0.47118665       0.19972041       0.08913656      -0.06655881
H        4.69719933       3.05991707      16.57616064       0.31995916      -0.34530275      -0.38630030       0.18357976      -0.11741947      -0.04286210
H        3.57971426       0.66003869       2.80702076       0.35149789      -0.50230402       1.01947156      -0.01844566       0.25948627       0.01741226
H        6.76035271       5.98413419      -0.03802074       0.32686291       0.55244737      -0.37906939       0.03666509       0.01131967       0.07033783
H        2.81254173      29.34135227       4.23280320       0.39616874      -0.16780573       0.01839516       0.18793182       0.02646360       0.02261765
H        6.10507284       4.82370992       1.00704477       0.06921927       0.12351832      -0.19003130      -0.08800655      -0.00637543       0.04870096
H        4.75381522       0.63432749       4.14228828      -1.18176626      -0.57418729      -0.53119400      -0.10161806      -0.10923386      -0.05711352
H        3.84301090       5.26361336      16.68355565       0.00519402       0.32340061      -0.04686885       0.01910041       0.01801108       0.15332049
C        3.04182878       1.83653947       4.44995959       0.27576101       1.04665040       0.47441407       0.46056410      -0.40757838      -0.24188788
C        5.45996526       3.90038437      16.39169991      -1.27228724       2.02334963       1.09579891      -0.00684298       0.06640030      -0.09065009
Pb       4.36924202      14.34138766       8.28155045       0.03892881      -0.31514474       0.15874003       2.23397560      -1.77297501      -0.77092908
Pb       0.46935771      14.04608997       8.50061596       0.17446264       0.13500298      -0.10846195       0.31173409      -1.06389545      -0.39861547
N        3.70818402       0.57995790       3.88100393       0.62523723       1.60331733      -0.75730289       0.45373405      -0.79461395      -0.66530833
N        6.24408662       5.09058044      -0.00298481      -0.11625632      -2.03969149       0.37385029       0.17197235      -0.08688727      -0.20664097
I        5.87492325       7.87444069       6.37121209       0.25580784       0.03408353      -0.12478846      -1.22232094      -0.23025852       1.59583736
I        2.52884943      12.89663867       6.01576714      -0.15493092       0.04261746       0.15367772      -0.25170033      -0.78451833       3.18481124
I        6.34790144       8.03136421       1.92272645      -0.22695476       0.22317066      -0.02730181      -0.24831830      -0.43672883       0.93845981
I        3.26048926      12.46585852       1.78514908       0.03208358      -0.07625615      -0.07039464       1.30148914       1.55060266       1.12581762
I        7.05334881      11.55673870      -0.33297575       0.04636045       0.03331326       0.01839633       0.04951768      -1.27984292       1.98851215
I        2.28438859       9.31100057       4.27553317      -0.02539061      -0.01227360       0.09499674       1.81937725      -0.80441830       0.08541759
H        2.24011964       7.90204131       8.37484895       0.28579791       0.43308777      -0.24570330      -0.02015129       0.05415129       0.01985411
H        5.95180825      10.53675488       4.79152549      -0.12525464       0.09660057       0.11901952      -0.17671574       0.01246724       0.18276087
H        2.56718297       9.05453090       9.70692234       0.26014367       0.04975593       0.63713689       0.00232443       0.18709113       0.14716432
H        6.38702082      12.25755580       5.12174777       0.12294646      -0.11956983      -0.34389802      -0.08869459       0.13158128       0.04539841
H        1.29813453       9.43169876       8.53274626      -0.20967420       0.09505468      -0.24917200      -0.08111212       0.11648664      -0.05953454
H        5.26134137      11.88769258       3.68430470      -0.09595402      -0.08496731       0.15886510       0.02466486       0.14539021       0.00434808
H        3.41044780      10.81829238       8.08752757      -0.35735330      -1.34286415      -0.21373526       0.00305800       0.00409251      -0.08332596
H        8.21826382      10.92647079       3.83781211      -0.32264220       0.38812371      -0.13148656      -0.12129257       0.10812022       0.09601860
H        3.00023095       9.74314836       6.79524653       0.03688629       0.11031731      -0.50585350       0.14526625       0.03340651       0.11768089
H        7.52220175      12.19270347       2.74469720       0.04353813      -0.24270761       0.30397101      -0.24650707      -0.03709820       0.07775405
H        4.26670178       9.38002088       7.83669518       0.36140529      -0.19895682       0.15957170      -0.07988547       0.13609871       0.01409861
H        7.09815668      10.54214861       2.63910657      -0.06378310       0.01513627      -0.20217291      -0.04481952      -0.10108096       0.04016532
C        2.29749898       8.98302767       8.65032398      -0.13327971       0.05056012      -0.03949905       0.23514179      -0.04057995       0.51187784
C        6.15373522      11.52466042       4.31375129      -0.07190707       0.00082166       0.10770837       0.43737703       0.32805862      -0.50298356
Pb       4.06183099       6.55356565       4.06946840       0.40491825       0.10900724      -0.04058930       1.33344727      -1.92958888      -2.91917960
Pb       8.00548445       6.47860536       3.99983852       0.18226928      -0.00248485       0.24959602       1.31621686       1.61171685      -3.08647993
N        3.30002412       9.77670121       7.80871474      -0.32597638       0.73269613       0.42090274      -0.26992928       0.03731004       0.36436254
N        7.33337081      11.31440867       3.32838307       0.50181779       0.10728296      -0.03393322      -1.05147622      -0.14786858       0.59075625
I       15.41568318       0.01765042       1.57494680      -0.10331817      -0.10464888      -0.11368078      -0.07507849       0.72109878       1.40112483
I        9.80576634       5.31913210       1.83674118       0.14321448       0.01133529      -0.00923065       0.87246846      -0.72375705       0.08797940
I       14.38596225       0.33072526       5.44107096       0.07748435      -0.03655105       0.17011171       2.10112470      -0.07567763       0.51757127
I       10.10602220       5.07133334       6.19053550       0.10757196       0.12803080      -0.07438572      -1.87559806      -0.34635546      -2.29074365
I       13.77535424       4.06018325       3.20747961       0.32527813      -0.15864473       0.02442798       1.90984901      -0.58298557      -0.47609629
I       10.92467838       1.62776248       8.47357467      -0.33198235      -0.10934775       0.10616756       0.63867949      -0.87466603      -0.14260058
H        9.62212583       1.79585148       3.53498901       0.61996168      -0.36336383       0.10684466      -0.08733030      -0.01684420       0.01814819
H       13.39064811       4.25531401      14.84870969       0.08579173       0.32190212      -1.21974467      -0.06767058       0.03839767       0.01363455
H       10.52890063       1.62190415       5.14924726      -0.11851571       0.08354377      -0.49589416       0.20124441       0.10041753      -0.05099432
H       15.66179616       3.55848168      -0.68482360      -0.82687278      -0.06413929      -0.46086054      -0.08969716       0.08330937       0.45500078
H       11.08859353       2.82553604       3.86541438      -0.25740540      -0.77711513       0.31797919      -0.02759054      -0.15191241      -0.09888984
H       12.69876777       2.71889184      15.63554630      -0.14027151      -0.18944283       0.22006342      -0.06875300      -0.05760684      -0.11998261
H       11.64737368       0.93306895       2.42083165       0.57596092       0.18224756       0.67913881       0.03562735      -0.08478425      -0.07999443
H       11.41693269       4.70428149      16.25609422      -0.32832996      -0.31755528       0.21170656      -0.01056755       0.00237615       0.00540699
H       10.83341129      29.44380898       3.55519058       0.04746479       0.51071515       0.28753288      -0.14512096      -0.08029745      -0.05206739
H       14.10497349       5.57878814      -0.35382892       0.68106747       0.19272747       0.08529838       0.02629619      -0.11910490       0.00829334
H       12.52759837       0.82761806       3.96489589       0.05262958       0.16368400      -0.24157641      -0.18233299      -0.10923604      -0.07903628
H       13.74042469       4.18131575       0.57939682      -0.21984305       0.14463586       0.37880078       0.00946298      -0.04238798      -0.13436872
C       10.62509305       1.81283725       4.05012958       0.49549583       0.68701875       0.10843395       0.32653487      -0.23802316       0.41952803
C       13.22759906       3.73165620      15.82473749       0.83259980       0.47416969       1.72943793      -0.06600080      -0.05224279      -0.26941165
Pb      12.30273359      13.78446120       7.77640021      -0.01427910       0.24175569      -0.10554931      -1.16592364       0.73129153       1.72848509
Pb       8.23068430      14.02026366       8.33218474       0.37168126       0.11860987      -0.24566447      -0.99549762       1.05611100      -0.04334060
N       11.60032971       0.80163886       3.47479330      -1.49624373      -0.45745635      -0.84088592      -0.10910737       0.45182363       0.20683485
N       13.80399195       4.57699328      -0.39884203      -0.02571232      -0.41776255      -0.79560880       0.22894649       0.19810165      -0.55099308
I       14.19975593       7.48388964       6.14401226      -0.05294524       0.09212625       0.13424614      -2.83760672      -0.94572060       0.50950719
I        9.92857324      13.05604955       5.63252998       0.06405421      -0.13207878       0.08385231       0.76449390      -0.54775732       0.39695066
I       13.92535914       7.98498581       1.65801390       0.02408592       0.12494309       0.07316934       1.25007092       1.29500145       0.21518554
I       11.28543271      12.23912357       1.32622045      -0.08770914      -0.08764655       0.30492129       0.84104266       0.59043245      -0.35690653
I       15.00967286      11.24298861      -0.76093450       0.05860144      -0.19994743      -0.01211931       0.11368140       0.20051720       2.28804594
I       10.04664921       9.02868910       4.08726677      -0.03996693       0.31447053       0.14792593       0.97626395       0.09469132       2.29809089
H       10.23891928       8.46307716       9.49270858      -0.25589265       0.26889393      -1.03052437       0.13416010      -0.04978629       0.19277723
H       13.50283981      11.61694748       4.26326776      -0.29086334      -0.16707764       0.18160822       0.10939599       0.00287201      -0.14084608
H        8.84044765       9.08159238       8.45809933      -1.67826998       1.16832488      -0.66302011      -0.16073367      -0.06975592      -0.09515535
H       14.94899964      10.65076518       5.08819342      -0.15650638       0.12427263      -0.02886341       0.06216618      -0.12151227       0.34622096
H        9.80562143       7.65150072       7.94363151      -0.34327321      -0.13061203      -0.11217757      -0.06847483      -0.15917039      -0.03448285
H       15.15818143      12.55937013       4.70982729       0.02757770       0.27670035       0.66915097       0.25942560      -0.05648090      -0.09201613
H       10.80200508      10.33796700       8.02503784       0.04073967       1.92679085       0.44276361      -0.00297016      -0.10522903      -0.12098948
H       14.72019640      10.38250421       2.44537941       0.17092672       0.33706961       0.44128545      -0.08273396      -0.06973776      -0.05088734
H       10.55574977       9.50839751       6.60716994       0.25533954      -0.19449308       0.00379603      -0.12601101       0.14734862      -0.18603825
H       16.24613401      11.31163992       3.02708420      -0.61907095       0.21968867      -0.45498667       0.09128102      -0.07275461       0.19916691
H       11.81464322       9.12699154       7.79335554      -0.54458588      -0.29669586      -0.47327880       0.11308870      -0.16165286      -0.08311739
H       14.95652906      12.24659261       2.13644460      -0.11258751      -0.42045016       0.33498277       0.13030751       0.11872807       0.07530433
C        9.82033124       8.64153591       8.40775254       1.78483102      -2.42414065       2.04144749      -0.23758539       0.62211493       0.00342615
C       14.62958266      11.54520268       4.37364421       0.15639528       0.04531903      -1.15479530       0.29211326       0.05895289      -0.21546101
Pb      12.08835545       6.51958694       4.01940348      -0.40149546      -0.16786564      -0.16654242       1.92599758      -0.73366216       1.96957322
Pb      16.05730234       6.52447995       3.63058447      -0.22646116      -0.21168092       0.03319599      -0.60654161       0.25601814      -0.44394822
N       10.80668944       9.42946054       7.63382928       0.66232316      -0.31621863      -0.33227880       0.47844621      -0.10276850       0.57848729
N       15.14796152      11.37903417       2.88695049       0.70436172      -0.49946790      -0.22389328      -0.00176847      -0.43500950       0.56931769
I        6.65972613       0.23327869      10.71942774       0.02808259      -0.16221303       0.03555016      -0.24867286      -1.03465766       0.19174349
I        1.12997639       5.61051044      10.54124826       0.00180019      -0.10708364      -0.21063229      -0.47085430       2.77149917      -1.45958571
I        5.78168501       0.51167870      14.59642722       0.16544483       0.19200265       0.02257874      -0.40445797      -0.86895938       0.61088649
I        1.93306044       5.27054360      15.02580363      -0.38331291       0.05179477      -0.13950024       0.24751269       0.98225010      -0.17564484
I        5.25795234       4.04768079      12.18256786       0.02647352      -0.00928648      -0.11947778      -0.87849076       0.84105845      -0.51325770
I        3.39008230       1.91116842       0.40442836      -0.06004483      -0.15864812       0.04548375       1.96742524       1.31711923       0.72408371
H        2.86158357       2.80264218      12.57280695      -0.94678211      -1.68869481       0.30484659       0.00205469      -0.00903899       0.08324802
H        6.29413384       4.23295337       6.79881436      -0.03216266      -0.41337953      -0.41929307       0.03664086       0.01766662       0.01838151
H        1.24096689       1.74569225      12.77566953       0.09063492       0.49678605      -0.19347711      -0.02942611       0.07445949      -0.16651074
H        7.15508721       3.73935980       8.33207132       0.72656153      -0.38436679       0.14562462       0.01863988       0.03121524       0.00028970
H        2.37878509       1.89151615      14.12852545       0.25641261      -0.03628355      -0.47118665       0.19972041       0.08913656      -0.06655881
H        5.42242126       3.03930214       8.01919241       0.31995916      -0.34530275      -0.38630030       0.18357976      -0.11741947      -0.04286210
H        2.85449234       0.68065362      11.36398898       0.35149789      -0.50230402       1.01947156      -0.01844566       0.25948627       0.01741226
H        6.03513079       6.00474912       8.51894748       0.32686291       0.55244737      -0.37906939       0.03666509       0.01131967       0.07033783
H        2.08731981      29.36196720      12.78977142       0.39616874      -0.16780573       0.01839516       0.18793182       0.02646360       0.02261765
H        5.37985092       4.84432485       9.56401299       0.06921927       0.12351832      -0.19003130      -0.08800655      -0.00637543       0.04870096
H        4.02859330       0.65494242      12.69925650      -1.18176626      -0.57418729      -0.53119400      -0.10161806      -0.10923386      -0.05711352
H        4.56823283       5.24299843       8.12658742       0.00519402       0.32340061      -0.04686885       0.01910041       0.01801108       0.15332049
C        2.31660686       1.85715440      13.00692781       0.27576101       1.04665040       0.47441407       0.46056410      -0.40757838      -0.24188788
C        6.18518719       3.87976944       7.83473168      -1.27228724       2.02334963       1.09579891      -0.00684298       0.06640030      -0.09065009
Pb       5.09446394      14.32077273      -0.27541777       0.03892881      -0.31514474       0.15874003       2.23397560      -1.77297501      -0.77092908
Pb       1.19457963      14.02547504      -0.05635226       0.17446264       0.13500298      -0.10846195       0.31173409      -1.06389545      -0.39861547
N        2.98296210       0.60057283      12.43797215       0.62523723       1.60331733      -0.75730289       0.45373405      -0.79461395      -0.66530833
N        5.51886470       5.11119537       8.55398341      -0.11625632      -2.03969149       0.37385029       0.17197235      -0.08688727      -0.20664097
I        5.14970133       7.89505562      14.92818031       0.25580784       0.03408353      -0.12478846      -1.22232094      -0.23025852       1.59583736
I        1.80362751      12.91725360      14.57273536      -0.15493092       0.04261746       0.15367772      -0.25170033      -0.78451833       3.18481124
I        5.62267952       8.05197914      10.47969467      -0.22695476       0.22317066      -0.02730181      -0.24831830      -0.43672883       0.93845981
I        2.53526734      12.48647345      10.34211730       0.03208358      -0.07625615      -0.07039464       1.30148914       1.55060266       1.12581762
I        6.32812689      11.57735363       8.22399247       0.04636045       0.03331326       0.01839633       0.04951768      -1.27984292       1.98851215
I        1.55916667       9.33161550      12.83250139      -0.02539061      -0.01227360       0.09499674       1.81937725      -0.80441830       0.08541759
H        1.51489772       7.92265624      16.93181717       0.28579791       0.43308777      -0.24570330      -0.02015129       0.05415129       0.01985411
H        5.22658633      10.55736981      13.34849371      -0.12525464       0.09660057       0.11901952      -0.17671574       0.01246724       0.18276087
H        3.29240489       9.03391597       1.14995412       0.26014367       0.04975593       0.63713689       0.00232443       0.18709113       0.14716432
H        5.66179890      12.27817073      13.67871599       0.12294646      -0.11956983      -0.34389802      -0.08869459       0.13158128       0.04539841
H        2.02335645       9.41108383      -0.02422196      -0.20967420       0.09505468      -0.24917200      -0.08111212       0.11648664      -0.05953454
H        4.53611945      11.90830751      12.24127292      -0.09595402      -0.08496731       0.15886510       0.02466486       0.14539021       0.00434808
H        2.68522588      10.83890731      16.64449579      -0.35735330      -1.34286415      -0.21373526       0.00305800       0.00409251      -0.08332596
H        7.49304190      10.94708572      12.39478033      -0.32264220       0.38812371      -0.13148656      -0.12129257       0.10812022       0.09601860
H        2.27500903       9.76376329      15.35221475       0.03688629       0.11031731      -0.50585350       0.14526625       0.03340651       0.11768089
H        6.79697983      12.21331840      11.30166542       0.04353813      -0.24270761       0.30397101      -0.24650707      -0.03709820       0.07775405
H        3.54147986       9.40063581      16.39366340       0.36140529      -0.19895682       0.15957170      -0.07988547       0.13609871       0.01409861
H        6.37293476      10.56276354      11.19607479      -0.06378310       0.01513627      -0.20217291      -0.04481952      -0.10108096       0.04016532
C        3.02272090       8.96241274       0.09335576      -0.13327971       0.05056012      -0.03949905       0.23514179      -0.04057995       0.51187784
C        5.42851330      11.54527535      12.87071951      -0.07190707       0.00082166       0.10770837       0.43737703       0.32805862      -0.50298356
Pb       3.33660907       6.57418058      12.62643662       0.40491825       0.10900724      -0.04058930       1.33344727      -1.92958888      -2.91917960
Pb       7.28026253       6.49922029      12.55680674       0.18226928      -0.00248485       0.24959602       1.31621686       1.61171685      -3.08647993
N        2.57480220       9.79731614      16.36568296      -0.32597638       0.73269613       0.42090274      -0.26992928       0.03731004       0.36436254
N        6.60814889      11.33502360      11.88535129       0.50181779       0.10728296      -0.03393322      -1.05147622      -0.14786858       0.59075625
I       14.69046126       0.03826535      10.13191502      -0.10331817      -0.10464888      -0.11368078      -0.07507849       0.72109878       1.40112483
I        9.08054442       5.33974703      10.39370940       0.14321448       0.01133529      -0.00923065       0.87246846      -0.72375705       0.08797940
I       13.66074033       0.35134019      13.99803918       0.07748435      -0.03655105       0.17011171       2.10112470      -0.07567763       0.51757127
I        9.38080028       5.09194827      14.74750372       0.10757196       0.12803080      -0.07438572      -1.87559806      -0.34635546      -2.29074365
I       13.05013232       4.08079818      11.76444783       0.32527813      -0.15864473       0.02442798       1.90984901      -0.58298557      -0.47609629
I       11.64990030       1.60714755      -0.08339355      -0.33198235      -0.10934775       0.10616756       0.63867949      -0.87466603      -0.14260058
H        8.89690391       1.81646641      12.09195723       0.61996168      -0.36336383       0.10684466      -0.08733030      -0.01684420       0.01814819
H       14.11587004       4.23469908       6.29174146       0.08579173       0.32190212      -1.21974467      -0.06767058       0.03839767       0.01363455
H        9.80367871       1.64251908      13.70621548      -0.11851571       0.08354377      -0.49589416       0.20124441       0.10041753      -0.05099432
H       14.93657424       3.57909661       7.87214462      -0.82687278      -0.06413929      -0.46086054      -0.08969716       0.08330937       0.45500078
H       10.36337161       2.84615097      12.42238260      -0.25740540      -0.77711513       0.31797919      -0.02759054      -0.15191241      -0.09888984
H       13.42398970       2.69827691       7.07857807      -0.14027151      -0.18944283       0.22006342      -0.06875300      -0.05760684      -0.11998261
H       10.92215176       0.95368388      10.97779987       0.57596092       0.18224756       0.67913881       0.03562735      -0.08478425      -0.07999443
H       12.14215462       4.68366656       7.69912599      -0.32832996      -0.31755528       0.21170656      -0.01056755       0.00237615       0.00540699
H       10.10818937      29.46442391      12.11215880       0.04746479       0.51071515       0.28753288      -0.14512096      -0.08029745      -0.05206739
H       13.37975157       5.59940307       8.20313930       0.68106747       0.19272747       0.08529838       0.02629619      -0.11910490       0.00829334
H       11.80237645       0.84823299      12.52186411       0.05262958       0.16368400      -0.24157641      -0.18233299      -0.10923604      -0.07903628
H       13.01520277       4.20193068       9.13636504      -0.21984305       0.14463586       0.37880078       0.00946298      -0.04238798      -0.13436872
C        9.89987113       1.83345218      12.60709780       0.49549583       0.68701875       0.10843395       0.32653487      -0.23802316       0.41952803
C       13.95282099       3.71104127       7.26776926       0.83259980       0.47416969       1.72943793      -0.06600080      -0.05224279      -0.26941165
Pb      11.57751167      13.80507613      16.33336843      -0.01427910       0.24175569      -0.10554931      -1.16592364       0.73129153       1.72848509
Pb       8.95590622      13.99964873      -0.22478348       0.37168126       0.11860987      -0.24566447      -0.99549762       1.05611100      -0.04334060
N       10.87510779       0.82225379      12.03176152      -1.49624373      -0.45745635      -0.84088592      -0.10910737       0.45182363       0.20683485
N       13.07877003       4.59760821       8.15812619      -0.02571232      -0.41776255      -0.79560880       0.22894649       0.19810165      -0.55099308
I       13.47453401       7.50450457      14.70098048      -0.05294524       0.09212625       0.13424614      -2.83760672      -0.94572060       0.50950719
I        9.20335132      13.07666448      14.18949820       0.06405421      -0.13207878       0.08385231       0.76449390      -0.54775732       0.39695066
I       13.20013722       8.00560074      10.21498212       0.02408592       0.12494309       0.07316934       1.25007092       1.29500145       0.21518554
I       10.56021079      12.25973850       9.88318867      -0.08770914      -0.08764655       0.30492129       0.84104266       0.59043245      -0.35690653
I       14.28445094      11.26360354       7.79603372       0.05860144      -0.19994743      -0.01211931       0.11368140       0.20051720       2.28804594
I        9.32142729       9.04930403      12.64423499      -0.03996693       0.31447053       0.14792593       0.97626395       0.09469132       2.29809089
H       10.96414120       8.44246223       0.93574036      -0.25589265       0.26889393      -1.03052437       0.13416010      -0.04978629       0.19277723
H       12.77761789      11.63756241      12.82023598      -0.29086334      -0.16707764       0.18160822       0.10939599       0.00287201      -0.14084608
H        9.56566957       9.06097745      -0.09886889      -1.67826998       1.16832488      -0.66302011      -0.16073367      -0.06975592      -0.09515535
H       14.22377772      10.67138011      13.64516164      -0.15650638       0.12427263      -0.02886341       0.06216618      -0.12151227       0.34622096
H        9.08039951       7.67211565      16.50059973      -0.34327321      -0.13061203      -0.11217757      -0.06847483      -0.15917039      -0.03448285
H       14.43295951      12.57998506      13.26679551       0.02757770       0.27670035       0.66915097       0.25942560      -0.05648090      -0.09201613
H       11.52722700      10.31735207      -0.53193038       0.04073967       1.92679085       0.44276361      -0.00297016      -0.10522903      -0.12098948
H       13.99497448      10.40311914      11.00234763       0.17092672       0.33706961       0.44128545      -0.08273396      -0.06973776      -0.05088734
H        9.83052785       9.52901244      15.16413816       0.25533954      -0.19449308       0.00379603      -0.12601101       0.14734862      -0.18603825
H       15.52091209      11.33225485      11.58405242      -0.61907095       0.21968867      -0.45498667       0.09128102      -0.07275461       0.19916691
H       11.08942130       9.14760647      16.35032376      -0.54458588      -0.29669586      -0.47327880       0.11308870      -0.16165286      -0.08311739
H       14.23130714      12.26720754      10.69341282      -0.11258751      -0.42045016       0.33498277       0.13030751       0.11872807       0.07530433
C       10.54555316       8.62092098      -0.14921568       1.78483102      -2.42414065       2.04144749      -0.23758539       0.62211493       0.00342615
C       13.90436074      11.56581761      12.93061243       0.15639528       0.04531903      -1.15479530       0.29211326       0.05895289      -0.21546101
Pb      11.36313353       6.54020187      12.57637170      -0.40149546      -0.16786564      -0.16654242       1.92599758      -0.73366216       1.96957322
Pb      15.33208042       6.54509488      12.18755269      -0.22646116      -0.21168092       0.03319599      -0.60654161       0.25601814      -0.44394822