768
Lattice="38.36233378009021 -0.17091669423460434 -0.23415642229604455 0.13860846621712591 21.550492846406996 -0.023849043928523623 -0.012701609790407587 0.03213069133637567 18.81004073834508" Properties=species:S:1:pos:R:3:forces:R:3:momenta:R:3 energy=-3340.4657331602493 stress="0.0 0.0 0.0 0.0 0.0 0.0 0.0 0.0 0.0" pbc="T T T"
I       18.08615242       5.09596742       3.32618634       0.13232013      -0.18527770       0.10338662      -0.11523409       0.04783645       1.56380517
I       18.23034689       8.27112865       0.93891002      -0.26585529       0.35998538       0.26032513       0.59915413      -3.32655758       0.36679356
I        8.09874918      10.67971441       3.59036739      -0.01713816      -0.33051943      -0.18588495      -1.98855349      -0.90915493      -2.46287910
I        8.57004975       3.19542567       1.26429656       0.06278275       0.04125134      -0.16886552      -2.53206708      -0.25466139      -0.36585978
I       16.16606243       1.97297456       0.97738903      -0.18853146      -0.21221868       0.03411300      -0.92296509      -0.07056476      -1.15563364
I        0.80621054      11.92183827       3.69068412       0.09618867      -0.22375510      -0.08773338       0.34271601       0.80563017      -1.13739072
I       10.36417800       7.32321483       1.51839200       0.01392851      -0.03772025      -0.28205166       1.78062323      -0.94842481       0.53352727
I        6.74806988       6.55539167       3.60184138      -0.47603700      -0.05817297       0.10605573       0.77975209       0.49916657       1.34620801
I        2.97751235       4.59823132       1.28719644      -0.07621692       0.02997894      -0.00454697       0.51797139       0.50382310       1.20594389
I       14.29947406       9.14486118       3.40383322      -0.35253414       0.01940450      -0.04755935      -1.35013458       1.51895816       0.27187932
I        4.39216765      10.05986064       0.77951938       0.01212762      -0.26256652       0.38327693       0.80177226       0.65848697      -1.97292411
I       12.41007874       3.78188449       3.50512715       0.19201963       0.08373253       0.04634409       0.95569552       0.30354541      -1.20483532
H        5.29824991       3.66908663       2.86601814      -0.30536317       0.90930321      -0.90656100       0.00674649      -0.05947433       0.06765960
H       11.46712112      10.14400439       1.84637743       0.17431300      -0.20986627       0.19618230      -0.02929106       0.07911081       0.10848104
H        1.97153301       9.11442932       4.00631310      -0.25135357       0.28431375       0.17958964       0.13600070       0.00496200      -0.06920728
H       15.10774474       4.55541411       0.61062430       0.26564472       0.66775356       0.49139793       0.18676914       0.00447782       0.18782866
H        6.38002567       2.79910088       3.96008050       0.14942981      -0.11899537       0.56961132      -0.04453190       0.10460708      -0.02840710
H       11.00360402      11.88699999       2.18455348      -0.02920925      -0.01155979       0.16369679      -0.00421511       0.07204946      -0.01647384
H        1.12908943       7.61585733       2.93814299       0.13271556       0.19334893       0.28769809       0.22102226      -0.07584084      -0.04408281
H       15.24720154       6.39451802      -0.56793874      -0.41464534       0.55213015      -0.21600861       0.01822062       0.23271817       0.08512348
H        5.91168112       2.00957117       2.42336693       0.16411763      -0.07142093      -0.17664501       0.16648844      -0.01859023       0.14970451
H       10.65368117      11.17234712       0.57370501       0.20978939      -0.03285524       0.17509195      -0.04720332      -0.15855953      -0.04236356
H        1.68285247       7.36412599       4.82328981      -0.17241218      -0.88222908       0.43163668       0.12551339      -0.23013413      -0.34851555
H       16.17406543       6.43444612       1.41354453      -0.33799018      -0.43685391      -0.35212563       0.03111225      -0.00710978      -0.07696730
H        4.61111140       1.16225580       4.38068912      -0.02782290       0.07725086       0.01364803      -0.00647007       0.22416250       0.02305291
H       12.70559300      12.61585808       0.54193430      -0.38015736       0.17072079      -0.44972988       0.09475132      -0.00965101      -0.05246458
H        3.68392795       8.36251657       2.85540252       0.17252735      -0.19112423      -0.87269818       0.13028697       0.05848297      -0.00502418
H       13.04900772       6.20399977       0.59739438       0.29531819      -0.24962144       0.66126396       0.09958193       0.00680285      -0.09604568
H        3.60878017       1.86494526       3.25241921      -0.29638903      -0.22963675      -0.83727780       0.27881882      -0.10500819       0.00162827
H       13.02874855      10.91077441       0.23849319      -0.03812249       0.56958830      -0.10881473      -0.05739952       0.01835739       0.17670788
H        3.27727527       6.64264946       2.88457972       0.33802409      -0.03650465      -0.42373637      -0.13431741      -0.12354848       0.01326708
H       13.92097395       7.16079380       1.73586595      -0.06534523      -0.00193864       0.16000001      -0.06782954       0.08658577      -0.02218381
H        3.90436489       2.72555313       4.58947396       0.47859259      -0.31337961      -0.14466715       0.05302996       0.09140915      -0.00265438
H       13.47367042      11.63147074       1.65724509      -0.24193665      -0.03841534       0.35691700      -0.00088182       0.01856430       0.02957183
H        3.91672062       7.49513169       4.21007323       0.26264620      -0.21909747       0.09643376      -0.16113459       0.23908988       0.07263316
H       13.61504273       5.44013095       2.05727683       0.11343221       0.52578675      -0.19710919      -0.41035295      -0.03915856       0.10466190
C        5.56421911       2.68630013       3.23359750       0.34059662      -0.81798867       0.15611732      -0.31913717       0.08363587      -0.67037348
C       11.37220467      11.16621584       1.43869934      -0.43148682       0.75616760      -0.33006067       0.10499650      -0.08532200      -0.60830354
C        1.90898010       7.93657369       3.83114537       0.33737763       0.60116879      -0.96814968      -0.05562161      -0.19328212       0.23538542
C       15.16778810       5.87387243       0.63045007       0.45795036      -1.03082874       0.44665392      -0.65733122      -0.00393922      -0.48512032
Pb      38.29238849       3.29792753       1.21214997       0.20974243      -0.09210282      -0.22125800      -0.78727664       1.42182820      -1.31915965
Pb      17.18171979      10.34729295       3.35546996       0.06888571      -0.21684430       0.03851922       1.14883108      -2.68423712      -1.82446928
Pb       7.30758598       8.59424011       1.13998164       0.02807846       0.38742701       0.09935525      -0.95589748       1.30751795      -1.75741494
Pb       9.40203788       5.10035205       3.67237168       0.29773130      -0.18173444       0.01249597      -1.06752503      -1.55573409      -0.46263578
N        4.38169846       2.07147644       3.88905029      -0.46409609       0.31922981       1.14926087      -0.32864658      -0.10725190       0.26419729
N       12.69142070      11.64370886       0.93991143       0.83182282      -1.15086290       0.04884828       0.31529926      -0.16350813       0.29074400
N        3.29904910       7.55768521       3.38017340      -0.76560826       0.28218111       1.15405629      -0.08137430      -0.40854513      -0.38308855
N       13.86137103       6.19920758       1.30908041      -0.24310688       0.05610881      -0.95130243       0.20037627      -0.18469812      -0.36767406
I       18.32445254       4.87775937       8.18351378      -0.09849833      -0.05606968      -0.27282848      -1.94310670       2.15006314      -0.27367676
I       17.71974722       8.41791708       5.82238266       0.03984337       0.04579722       0.12997491      -0.05918109      -2.02484976       0.78906506
I        8.39675908      10.48429392       8.49810426      -0.02564645       0.04186292      -0.08816943      -0.03205804      -1.20382526       0.55617619
I        8.52139766       3.17883617       6.09939025       0.01964247       0.00425053       0.06085811      -0.03442960      -0.46450746      -0.83411301
I       16.06866784       2.01313674       5.54805068       0.11220738      -0.20098094       0.15797645       0.43139711      -0.04971013       0.88801920
I        0.90540300      11.94957372       8.51659430      -0.00129493       0.02176901      -0.12228643       1.08437936       1.82452921       0.47936732
I       10.28708281       7.44728852       5.90089363       0.18281620      -0.22433565       0.12528368      -0.01200516       0.14056315       1.76363350
I        6.52764916       6.40739588       8.25799529      -0.09343043      -0.24735655      -0.14142391       0.19246284       0.16478191      -0.59555006
I        3.02963072       4.50083744       5.99955987      -0.01731834       0.23640950      -0.02296551       1.77639943      -2.84946081       0.14292838
I       13.79569111       9.18212740       8.11924752      -0.21627129       0.14822064       0.00071316      -1.47445441      -1.70277005       1.27540972
I        4.40598798      10.09281657       5.90512930       0.18721102      -0.12167245      -0.00817551       1.47107687      -0.92927314      -1.69982580
I       12.52785304       3.82206040       8.42401298      -0.16597017       0.04439067      -0.27097481       0.91243974       0.66685985      -1.37934229
H        5.67803463       1.47723329       9.55869305      -0.15635604      -0.02514240      -0.48698032       0.07481072      -0.10227104      -0.01432861
H       10.67404954      10.90440303       6.28521276       0.14833612       0.07686293      -0.63558359      -0.05865128      -0.14095415      -0.10282295
H        2.09756257       8.64698467       7.36328535       0.61559767      -0.06885241      -0.42591810      -0.02988027      -0.04586393      -0.14801139
H       14.90483552       4.61913841       6.40514852       0.29761308       1.58549756      -0.63466988       0.01135550      -0.14914830       0.11328994
H        6.24399232       2.54390104       8.16819760       0.44549770       0.05871995      -0.27160776       0.10070921       0.04795361       0.19248253
H       10.67450868      11.88904475       4.74757534      -0.29430271       0.66353023      -0.22826983      -0.02480837       0.08101701       0.02690266
H        1.04396651       7.08148733       7.56236111       0.60710038       0.57972920       0.72123750       0.07748541      -0.09345483       0.01582279
H       15.74042756       6.04442050       5.25594151      -0.40481017       0.00030099       0.78767091       0.05720170       0.05974981       0.02001267
H        5.11763513       3.12091803       9.45817205       0.03076401       0.98697040       0.37587074      -0.00744486       0.03328775       0.09395810
H       11.50687646      10.31257791       4.75854152      -0.07963446      -0.10706603       0.18054756       0.20162627      -0.08988444      -0.01608788
H        1.24517766       8.44580395       8.89307365       0.04997653      -0.53575746       0.05998198       0.27675307      -0.18061843      -0.25063108
H       15.22043647       6.53719047       7.05795028      -0.01819398      -1.10836024      -0.20267630      -0.12104342       0.03503326       0.00245766
H        3.81454978       2.77021719       7.39742635       0.82437960      -1.21905049       1.08365992       0.04432195      -0.14511570      -0.06899936
H       12.29356891      12.73657928       6.29320159       0.30419870       0.95350969       0.29006459       0.07385853       0.09773353      -0.13578470
H        3.69988604       7.83588619       9.05404152      -0.11873143      -0.34101835      -0.85089246      -0.08488698       0.14096294       0.05849349
H       13.74100863       7.13686855       5.17064743       0.23963197       1.75106752      -0.94419783       0.11820831       0.12632482       0.15717994
H        3.40412021       1.54754197       8.60486527      -0.00040951       0.12332056      -0.25836065       0.09003195      -0.06624325       0.18317324
H       13.27991067      11.93722305       5.14685228       0.17712202       0.28277495      -0.59717611      -0.06153481      -0.00679229       0.02121044
H        3.53867345       6.37822722       7.85246624      -0.27826166       0.71570106       0.51211217      -0.05427658       0.23480805       0.12064657
H       12.98186588       6.42811788       6.46317030       0.13223553       0.23703293       0.04411868       0.06616611      -0.06002919       0.12154384
H        4.43060106       1.13908298       7.31130267      -0.22483862       0.07097307       0.04433841       0.09976717       0.08885907       0.13408242
H       12.93133825      11.22080821       6.63859839      -0.09314308       0.29235493      -0.56501728      -0.03542609       0.00497663       0.06274248
H        2.69696226       6.41149298       9.38863850      -0.28928141      -0.07469827      -0.03622147       0.13676032      -0.09223657      -0.18922373
H       13.26027237       5.54078898       5.09832357       0.09220724       0.65556665       0.02527631       0.07590263      -0.19645017      -0.10137661
C        5.39507169       2.28633811       8.83948314       0.51559289      -0.30289268       0.43393105       0.59056311       0.16358508      -0.02395516
C       11.23538404      11.19668497       5.35871173       0.76143930      -0.59372896       0.53358597      -0.53522413      -0.91870885      -0.20624976
C        1.80019099       7.83751868       8.05423202      -1.11389929       0.03489062      -0.15347556       0.36793953      -0.47023062      -0.13358959
C       14.97038949       5.82659667       6.16186109       1.50918452      -0.26834386       0.59757455       0.72921143      -0.21786418      -0.14993253
Pb       0.05252094       3.23828067       5.93240748      -0.27531867       0.25622114       0.16130493       0.18805207      -1.12361385       1.24385882
Pb      16.71865754      10.38268174       8.12052835       0.11245092       0.18290016      -0.03975759       0.55546188      -0.89255877       0.63599511
Pb       7.47717365       8.74069672       6.09293150      -0.38838385       0.24106938      -0.26920550       0.75362931      -0.29274878       0.01928511
Pb       9.60084335       5.11466703       8.41334130      -0.00910528      -0.04133891      -0.12002673       1.52913187       1.55906428      -0.35150887
N        4.20698562       1.92467513       7.99934329      -1.14785385       0.21529867      -0.92366916       0.09834953       0.57468838      -0.22634857
N       12.52953361      11.84282579       5.83922023      -0.65068335      -1.74826919       1.13384569       0.00951673      -0.15108312       0.12332317
N        2.99985291       7.10867281       8.59847655       0.63577483      -0.28132832       0.15701957      -0.30994907      -0.19296494       0.29165243
N       13.68036667       6.31591759       5.70299602      -1.70659155      -2.87836750       0.30396654       0.05424624       0.01758611       0.16301213
I       18.07823338       4.87999201      12.91784804       0.06503240      -0.01137265       0.01450741       1.03685936      -1.39459184      -1.00359275
I       17.96764706       8.51492517      10.34897642      -0.07689662      -0.12583825       0.16984483      -1.20767493      -0.76580848       1.79170165
I        8.34445382      10.38187775      12.76143237      -0.17084965      -0.19016838       0.50329689       0.43019884       0.57888834      -0.48069133
I        8.48502391       3.13132887      10.60448331       0.12560788       0.16137695      -0.00764954      -0.52555593      -0.54421845      -1.30072954
I       16.01320157       1.88117348      10.31917025      -0.14000015      -0.07744435       0.23177246       2.43991568      -1.70345095      -1.30852842
I        0.80256145      11.84297953      13.02838697      -0.19415319       0.03342238      -0.13019877      -0.83735668       2.56087414      -0.76536104
I       10.47810627       7.22338234      10.85283643      -0.05282348      -0.05150982      -0.16236842       1.62082527      -0.50712646       1.89522797
I        6.42909978       6.15490189      13.03351730       0.02985050       0.16907418      -0.02319316       2.32045888       0.03293454      -1.09120609
I        2.89601939       4.18670160      10.87495861       0.08030809       0.51175044      -0.05742264      -0.58019563       1.91651098      -1.43694560
I       13.89628644       9.14637120      12.96234991       0.23857737      -0.05200070       0.06032384       0.06284023       0.16262253       1.01857505
I        4.50799939       9.82450601      10.55094619      -0.25131906      -0.09762542      -0.07985448      -0.59936950       0.33262306       1.25173175
I       12.75626864       3.77865976      13.02845619      -0.47366734      -0.03291689      -0.04216192       1.22141506      -0.40795746       0.93778002
H        5.46445333       3.30642815      11.90810639      -0.26432872       0.37511455      -0.41919506       0.01217875      -0.14414628      -0.03596343
H       11.37160239      10.03856956      11.23762116       0.47102092      -0.31358749       0.33273230      -0.14776744       0.00601121       0.11342235
H        1.69553380       8.84934211      14.03924640       0.15987772      -0.83468968      -0.79459866       0.16768232      -0.00680408       0.04055391
H       14.89794155       5.06504769       9.07719765       0.29118426       0.59815068       0.42356120      -0.30064846      -0.10081593       0.06499646
H        5.98403925       2.97468552      13.59484918       0.99027592      -0.17066928       0.61686795      -0.25338525      -0.04665760       0.08785758
H       10.77571000      11.71474784      11.67313868       0.09935022      -0.12969877      -0.35313831       0.17552344       0.13868920       0.29963071
H        0.83283467       8.13621100      12.60538974       0.07313476       0.01529617      -0.09111976       0.03143376       0.04935387       0.07883576
H       15.65878741       6.78624515       9.68247708       0.55248747      -0.08305207      -0.62353568      -0.12471127       0.10377271       0.01741810
H        6.13043861       1.64130911      12.25897285       0.53533269      -0.35203293      -0.16656569      -0.01694777      -0.03113081       0.23752904
H       10.68327378      11.02598917       9.95967139      -1.26722961      -0.14984568      -0.68294925       0.00775890      -0.04744612      -0.01749306
H        1.27899357       7.11501315      14.00665051      -0.30738671      -0.32564618       0.12155466      -0.09874938       0.05008811       0.08310863
H       15.96933353       5.21875810      10.74328509      -0.05660149      -0.23915592      -0.64044476       0.18604573      -0.01167733       0.05924371
H        4.32059622       1.29351715      13.75261116      -0.12925129      -0.83845114       0.14720994      -0.04249831       0.10164742       0.10336471
H       12.39706013      12.51901652       9.82937653      -0.40729171       1.16248014      -0.11289868      -0.15432437      -0.09431915      -0.03890296
H        3.28971146       8.36778856      12.16536585      -0.29428808      -0.81699112       0.62951957       0.04267984       0.03459274       0.01812489
H       13.21253977       6.62959101      10.35447282      -0.09782121       0.29255550      -0.80428523      -0.01261546       0.12244211       0.04489153
H        3.66274819       1.65843590      12.20299611       0.11155620      -0.40122305      -0.18382556      -0.19993815      -0.11247796       0.09251717
H       13.08091658      11.09496411       9.76303150       0.03835112      -0.69193843       0.23566793      -0.00140289      -0.30305011      -0.06423421
H        2.83458527       6.71169357      12.14820217      -0.28045068       0.12829020       0.13152803      -0.06243086      -0.15334056      -0.01274850
H       14.36586173       7.00849604      11.59856738      -0.17595200      -0.50475140      -0.38623431      -0.03955465      -0.03207658      -0.05702476
H        3.51972173       2.74616005      13.43113968       0.21344922       0.96226809       0.66286087      -0.05861810       0.08215914      -0.17254911
H       13.15294764      11.98829696      11.18982508       0.16707603      -0.01756154       0.03753350       0.08694013       0.02283606       0.12243409
H        3.59525456       7.30333631      13.47600230      -0.20943422       0.25868285      -0.24639009       0.09172949      -0.04977285      -0.12174717
H       13.68440177       5.42703916      11.43193457       0.27845994       0.28944047      -0.01635968       0.21746796      -0.04492225      -0.18590805
C        5.56673927       2.51150305      12.65451914      -1.11457602       0.19121237       0.16086838       0.24861540      -0.06168358      -0.70318033
C       11.24227351      11.07517990      10.87381474       0.77243125       0.74878850       0.14869006       0.00601765       0.35803495       0.38357768
C        1.59955282       7.94081098      13.37248874      -0.61366991       0.81320254       0.97531450       0.08895395       0.58537422      -0.26684890
C       15.26371663       5.75386412       9.98884845      -0.66453107       0.14735343       0.78332174       0.47101192       0.15654619       0.23327749
Pb      38.39330848       2.93299570      10.46283949      -0.43429051       0.24796897       0.03514178       1.38685762      -0.25647043      -1.82842523
Pb      17.00127479      10.22702195      12.84152017      -0.23324324       0.11746782       0.20794796      -1.43982995       0.65252327       2.01840882
Pb       7.30051875       8.38275020      10.64391648       0.19012604       0.08525814       0.13531948      -0.98449504      -1.66339960       0.18609247
Pb       9.47456395       4.95805591      13.01058786       0.38358771       0.02739365      -0.01968629      -1.90398676      -0.52303599       1.39383653
N        4.19845362       2.02852114      13.02905243      -0.26828560      -0.17168166      -0.73920448      -0.16751567       0.51433653       0.46548789
N       12.53141696      11.70584498      10.41444615       0.34768182      -0.58870684       0.45385358      -0.56535028       0.16217691      -0.83348201
N        2.87595386       7.56046263      12.76110598       1.54092695       0.41886974      -0.79679554      -0.80878724      -0.02696470      -0.26777571
N       14.07774789       6.23678225      10.86746533      -0.13114279      -0.34045392       1.25137541      -0.44425598      -0.35309417       0.26864900
I       18.49773260       5.16819396      17.45454582      -0.24262544      -0.01651775      -0.00373421      -0.91193937      -0.60943603       0.65769681
I       17.87709595       8.52164442      15.34457889       0.08059550      -0.02317983      -0.06831524       0.43194955      -1.33086365      -0.98124673
I        8.37031186      10.49339391      17.60800451      -0.08205255      -0.23159355      -0.13868346       0.74514972       0.97893785      -1.44126331
I        8.56720786       3.22353527      15.42160778      -0.01272742      -0.07176300       0.20456676      -0.00554807       0.64151188       0.25689874
I       16.19161027       1.95022077      15.17284258      -0.12145442      -0.03678326       0.09187875       1.03856887      -1.19160111       1.91345146
I        0.83584361      11.87853160      17.67899847       0.20757496      -0.14844156       0.04161903      -0.68102683      -2.49421851      -1.39464963
I       10.38415645       7.32291306      15.24438938      -0.13916442      -0.07592146       0.03500029      -1.34689118       0.17095224      -1.56964358
I        6.42519234       6.32771145      17.63545057       0.12516630       0.11713107       0.06772985      -1.12962095      -1.45176944       2.61338394
I        3.02849745       4.50022212      15.19546248      -0.18421606       0.14606763       0.04023951      -0.70811478       0.18833698      -1.71380693
I       14.10375855       9.19110335      17.56658925      -0.32827674      -0.15372086       0.20762395       1.87167575      -1.19439728      -0.40756577
I        4.45596543       9.82382243      15.09675842      -0.07314671      -0.17015102      -0.00077973       1.40041353      -0.65653128       0.81129669
I       12.41864908       4.01565182      17.65662844       0.11220895      -0.16757072       0.01495365      -0.94748662      -0.54464425      -0.74391504
H        5.67329320       1.40350487      18.61463667      -0.09030487      -0.55510484       0.15116395      -0.08470993      -0.03905639      -0.12416697
H       10.39597604      11.36062813      15.61678965      -0.29850043      -0.39410936       0.12103748       0.22225499      -0.14227852       0.11196993
H        1.79254678       8.88645569      16.95467282      -0.03054637      -0.96094355       0.97679155      -0.09341959       0.03586801      -0.20292861
H       15.16304977       4.95649731      16.08927522      -0.19981399       0.28231593      -0.19361264       0.25241851       0.09945933      -0.08504691
H        6.07416960       2.20307651      17.02910215      -0.88466868      -0.38292202       1.09067466       0.02986560       0.06225022      -0.09519248
H       11.07128130      12.30866774      14.20338845       0.01008743      -0.60319953       0.02071136      -0.24449435      -0.21439598      -0.00592524
H        1.13571608       7.18784038      16.82441662       0.65034057       0.76129372       0.81398108       0.08716797       0.07168024       0.05556716
H       15.46994620       5.51712015      14.28486044      -0.60321848       0.28036748       0.46021214       0.01631676       0.00203228       0.16509672
H        5.39716395       3.16662373      18.39505944      -0.30583367       0.15007447       0.14161440      -0.02936641       0.06001412       0.01175669
H       11.39387174      10.44558535      14.31267315      -0.12488804       0.77919068       0.51486293       0.08176426      -0.08683384      -0.07080306
H        1.30876282       7.92824319      18.53743604      -0.38502705       0.35468068       0.02219205      -0.14638324       0.00387123       0.14704035
H       15.81011891       6.63964786      15.77377410       0.01198024      -0.06425006      -0.10121766       0.08260212       0.04951962      -0.04328022
H        3.74429524       2.66169927      16.69616999      -0.60355768       0.09880177      -0.22389477       0.10652131      -0.04545336       0.12553213
H       12.42024616      12.55627356      16.30983185      -0.18056984       0.24683136      -0.28387984       0.14126099       0.05380843      -0.03987646
H        3.63902026       7.94062798      18.36440510       0.34851694       0.49339940       0.19593160       0.06621673      -0.03586077      -0.15849081
H       13.56917952       7.20380425      14.71968085      -0.09784490      -0.04380721       0.14249838       0.10179286       0.09972034       0.27268353
H        3.27902227       1.99616002      18.24309342      -0.54012209      -0.14703443      -0.28984810       0.05886334       0.02233312      -0.11155278
H       13.31007658      11.95635384      15.03967577       0.50485294       0.10892624      -0.31887921      -0.05477266       0.16114330      -0.05784007
H        3.75819002       7.19901984      16.90521901       0.39335517      -0.26307556      -1.00850024       0.18461765       0.21162434      -0.17465650
H       13.23211032       6.57167782      16.33613097      -0.09715877      -0.03061308      -0.11390550       0.03919158       0.03748210       0.07684389
H        3.94427558       0.91655759      17.01731616      -0.36832830       0.28246424       0.02778976       0.06577359       0.10726361       0.07555465
H       12.81365579      10.97542712      16.30459284       0.60496692      -0.96563594       0.32292068       0.10492776       0.00773186       0.04211661
H        3.12332712       6.37930668      18.23310149      -0.03732779       0.13062491      -0.32704677      -0.04064967      -0.22615443      -0.15545338
H       12.95533032       5.64582818      14.83845553      -0.07112548      -0.14943227       0.04345164       0.13872463       0.11858805       0.01813199
C        5.33131516       2.16066627      17.91391962       1.99682331       1.15893780      -1.49940928      -0.63183223       0.48310939      -0.21692937
C       11.23512360      11.39740819      14.88091327       0.80596875       0.61015749      -0.28955885      -0.06309653      -0.04299538      -0.45631533
C        1.77218475       7.87666078      17.50219930      -0.66024914      -0.18386488      -2.04789698      -0.44558570       0.29360602       0.29183503
C       15.08886865       5.83499306      15.36503203       1.16253391      -0.58378517       0.17787814      -0.17061002       0.02816178       0.49618901
Pb      -0.06747848       3.39753588      15.34131071      -0.02204556       0.05748703       0.21293478      -1.49611473      -0.53704556       2.11090055
Pb      16.96936167      10.45530918      17.73668963       0.24449878      -0.07158664      -0.32429694      -1.09099698       0.42904408       0.29710190
Pb       7.33301953       8.45391854      15.27619015       0.20844304       0.35458719      -0.12614836      -0.49253650       1.15815512       2.76394071
Pb       9.54859778       5.20636649      17.75828537      -0.19090671      -0.03295466       0.04677937       2.26270886      -0.46602632       0.25626626
N        3.95563807       1.91124255      17.42147037       1.06756857      -0.50775243       0.72087007       0.15558005      -0.20901202      -0.05676790
N       12.52793183      11.73329841      15.67640296      -1.22427799       0.20902548      -0.34096790      -0.15794227      -0.40044402      -0.10634964