768
Lattice="31.343885341238796 -0.47746557187201905 -1.6062135899949226 -0.40744855527168355 29.62807268781774 -0.02279442302894619 -1.4504438450383712 0.04122985736401602 17.113936445534993" Properties=species:S:1:pos:R:3:forces:R:3:momenta:R:3 energy=-3315.637148071917 stress="0.0 0.0 0.0 0.0 0.0 0.0 0.0 0.0 0.0" pbc="T T T"
I        6.43387609       1.17748194       2.21739394       0.05843572      -0.08166770       0.04182197      -2.59994290      -1.57753703      -1.59156687
I        1.39530267       6.62536091       2.46001204      -0.66957871      -0.31781445      -0.37481882      -0.30724143      -1.28473659       2.45964122
I        6.00088096       1.54424226       5.83699626      -0.39853602      -0.28728720       0.44538685      -1.25789494      -0.31018923      -2.78553264
I        1.44571377       5.87994952       6.65409767      -0.16166418       0.24292124       0.19293321       1.16410602       2.05152036       2.10282712
I        4.92092363       4.80236581       3.93793302       0.53523110      -0.06479807       0.09000989      -3.93656453      -1.51187389       4.06143667
I        1.87349202       2.43963975       9.07813892       0.42743485       0.33052429      -0.38301264      -0.88520144      -3.21294449       1.01314088
H        1.05466481       3.97054435       4.48045162       0.56739106      -0.56029736       0.16798212       0.38266273       0.30826402      -0.21633836
H        4.73417885       6.06886616      15.67902309      -0.00182712      -0.15351659       0.10415552      -0.05318098       0.15312546       0.06308679
H        0.27028311       2.27095258       4.22845309      -1.41829982      -0.45260174      -0.12382531       0.26637674       0.25939923      -0.12286118
H        5.35554593       4.74032454      17.38577128      -0.97789292       0.49547266      -0.49906362      -0.21162831      -0.01372719       0.17520048
H        1.14269675       2.60822406       5.80289548       0.07293096       0.18837002      -0.09049450      -0.00734795       0.00022708       0.14519001
H        3.80296337       4.08459905      16.11139736      -0.05371358       0.78543081      -0.32873373       0.17226084       0.11255903       0.01372479
H        2.18760092       2.12772091       2.99452873       0.60552585      -0.09560375       0.59900328      -0.36807794       0.14655033       0.03153190
H        3.78136735       6.89096434      18.00262352       0.65989203       1.22430866      -0.80783200      -0.27997343       0.00775612       0.49099785
H        2.54673631       1.01195116       4.42074202      -0.40279142      -0.70579697       0.28857949      -0.22994404       0.06148692      -0.02047134
H        3.78323708       5.39130145      18.72788179      -1.14564372      -0.52643705       0.48201221      -0.22830060      -0.10486056       0.14802097
H        3.48327970       2.55683506       4.24257309      -0.50605512       0.22348279      -0.14583136      -0.10748256      -0.09339021       0.14177324
H        2.50642674       5.92579010      17.47601537       1.12247084      -0.17484770       0.67563233       0.05425266       0.25130020       0.03295553
C        1.15237786       2.78457211       4.72066180       1.71047911      -0.10428112      -0.13629718      -0.35734128      -0.25445252      -0.01688259
C        4.40101425       5.17549673      16.63072455       1.04515969      -1.42693446       0.33239329      -1.22424432       0.15438864       0.65638398
Pb       3.67656979      15.12311629       8.24893902       0.05537290      -0.21702153      -0.08527481      -1.79450484       1.27550092      -1.63496822
Pb      -0.24418196      14.86413837       8.58731696      -0.15788387       0.13320055       0.13119000      -0.23037517      -0.29962119      -1.03126387
N        2.45932951       2.07096719       4.07175987      -0.24123138       1.55077280      -0.51949719       0.22897423      -0.73510377       0.21496166
N        3.54681968       5.86475873      17.74506223      -0.95280322      -0.26551772      -0.17679266      -0.65525243       0.27208443       1.28628685
I        5.12032274       8.70635922       6.95524366       0.26940217      -0.28918501      -0.22017681       3.03349991      -1.25203380      -2.86384288
I        1.46094381      13.75264535       6.14274757       0.15398299       0.03003010      -0.15673499       0.32342454       2.44041275      -0.92221765
I        5.32474213       8.86853003       2.41587482      -0.01775800       0.06038549      -0.22919406       0.59726863       1.22098894      -3.66833687
I        2.28425191      12.95579512       2.06281638       0.05721765       0.17818296      -0.32519383      -1.36483122      -0.62266172       2.45002753
I        4.77924967      12.08815006      16.75005120       0.01900746      -0.03243865      -0.18244957       0.27347856       2.29140266       2.09499225
I        1.57829130      10.00559696       4.49407631      -0.15082863       0.06992768       0.14178855       1.48696174      -0.96588085      -3.06375790
H        0.79518168       8.78775028       8.20131869      -0.15308040       0.12261477      -0.09497647      -0.05934172      -0.05447398       0.27418578
H        5.61142010      11.13755254       4.49968907      -0.28601629       1.11969409      -0.18902075       0.04226767      -0.07921645       0.13538201
H        1.53467563       9.63779577       9.79496785       0.17128015      -0.50102570      -0.86237594      -0.13346078      -0.17902566      -0.20931455
H        6.41913326      12.69579021       5.12749689       0.25997353       1.16841996       1.00795378       0.02608841      -0.16616312       0.07126454
H        0.13110880      10.52201281       8.99492255      -0.31138058      -0.51554499      -0.74199375       0.14512488       0.19890654      -0.00783612
H        4.92991092      12.84740159       3.88176766       0.78459719      -0.26165284       0.91583408       0.27082633       0.30373771       0.08438738
H        2.25114000      11.44721272       8.20946757      -0.37643468       0.40206839       0.41512993      -0.33606558      -0.12201583       0.03924796
H        7.81933215      12.05012363       3.41732426      -2.10043716       0.00503629      -0.66570417       0.06556513       0.10389239       0.23509418
H        1.98336204      10.47797789       6.85857270      -0.84704789      -0.04873117       0.11437668       0.06521083       0.08680127      -0.14512470
H        6.80676530      13.22520186       2.65569875      -0.17730120      -0.82790743       0.88670137       0.00399556      -0.25017831      -0.02127208
H        3.01851886      10.01178269       7.97993645      -0.21387842       0.00478208       0.25200830       0.20821040      -0.08361712      -0.00489363
H        6.42350441      11.68856803       2.31983840       0.48625872      -0.45001884       0.69917971       0.41142794       0.06160847      -0.41896746
C        1.06780659       9.75271079       8.71749592      -0.73226339       0.94345639       1.92925086       0.29035613      -0.47186916      -0.84970895
C        5.86214831      12.26965590       4.28706418      -1.43354539      -2.22989200      -1.29266731      -0.65956646      -0.57439802      -0.69569765
Pb       3.26242452       7.20024419       4.52279089       0.20702693       0.45182647       0.23502970      -0.48041320      -0.82118172       0.09256325
Pb       7.15341389       7.54379031       4.60344539       0.11566435      -0.26985017      -0.00351900       3.31492138       2.71434212      -0.31522404
N        2.06935185      10.47150273       7.90818889       2.57723103      -0.40832540      -0.97548141       0.44804084      -0.42206072      -0.44692331
N        6.76818167      12.25064842       3.13558927       2.46123678       1.49439541      -1.31696362      -1.03454909       0.38595505       0.96824297
I       14.08111572       0.55758437       1.85222395       0.16992356       0.23681171       0.33988163       0.97552486      -0.27634904       0.39226131
I        9.03532843       6.68158736       1.94754715      -0.35445788      -0.20720586       0.08179045      -1.27151659      -0.70177740      -1.58204923
I       13.99380071       1.37095113       6.11995137      -0.20892503       0.08969624      -0.07427051       0.80755034       2.71271223       0.66103459
I        9.55072301       5.70092726       6.41312787      -0.18561285       0.32719999      -0.18888706       2.29860842      -1.26383081       1.64367324
I       13.40384114       4.64581134       3.49820334      -0.47411166       0.14232339       0.11545709       0.13343581      -1.83467772      -1.63901917
I        9.77610694       2.48939584       8.72839000      -0.22901452      -0.33286444       0.17314616      -0.82579905      -1.66185811      -0.62020750
H        9.18588300       2.31802781       3.36061971       1.60984873       0.99427441       0.92480194      -0.18993565       0.12826534      -0.10802428
H       12.50119575       4.96145765      15.60305766       0.22496722      -0.12586388      -0.05457225       0.31598570      -0.00240122      -0.09567818
H        9.55004259       1.82562379       5.37908593      -0.17137213       0.46642354       0.40734428      -0.06289224       0.09156716       0.35316365
H       13.20518934       4.33263838      17.29270367      -0.78798629       0.43561148      -0.14574612      -0.12897963      -0.04403080      -0.10443629
H       10.63243611       3.45690693       4.58485065       0.31073234      -0.06702444      -0.35733026       0.24826954       0.01358073       0.18382145
H       11.66061337       3.58559728      16.52583864      -0.34820072      -0.93285647       0.07234343       0.22178015       0.03745415       0.27008002
H       11.50768531       1.73107804       2.78047987      -0.38037233      -0.35011518       1.29520285       0.15437596      -0.08357216      -0.13590980
H       10.43282659       5.68695751      16.70465692       0.17773160      -0.59249464      -0.06115678       0.14985839       0.08879226       0.16993586
H       10.78148049       0.39929723       3.70782991      -0.72292831      -0.31785683       0.30321774      -0.12193738       0.02495617      -0.12858001
H       11.78321876       6.38917348      17.30245828       0.68291090       1.31057699       0.18666140      -0.04589664      -0.33340816       0.08706737
H       11.98774551       1.39198881       4.45698833       0.71322546       0.03288559       0.48546018      -0.06579952      -0.08010671      -0.05591577
H       11.09850346       5.14824238      18.24213973       0.01267933       0.12474190       1.00681784      -0.25445329      -0.19199012       0.39164764
C       10.06859050       2.40475215       4.33553369      -1.95336262      -3.05793811      -0.95092792       0.49933418      -0.16172661       0.13569793
C       12.24058461       4.54012476      16.64100683       0.88798063      -0.38261086      -0.85375982      -0.13827416      -0.66911061      -0.25451688
Pb      11.53053046      14.73218429       8.06457942       0.18606084       0.80932218      -0.30884265       2.05397135       0.05727439      -1.22880458
Pb       7.73688003      14.96779346       8.09557331      -0.08182782       0.54862983      -0.15360371       0.98066825      -4.22439243      -1.41689100
N       11.13473778       1.39232361       3.82499433       0.47439372       2.15088324      -1.86507291       0.99312433       0.31187906      -0.77460368
N       11.33673866       5.47433183      17.27337340      -0.66657514       0.34209767      -0.05899402       0.30792598      -0.20996833      -0.28745453
I       13.45899655       7.95311512       6.35897510      -0.27736565       0.20113408       0.22642675      -2.14812592       0.93740972      -1.01096636
I        9.63123225      13.68401415       5.60955216      -0.30323688       0.15327442       0.30946370       1.39233161       2.50823849       2.10304193
I       13.17367074       9.15719987       1.99786380      -0.33353214      -0.54143947      -0.01354128      -2.32037952      -2.16138988      -1.87750727
I       10.08084165      13.27808951       1.63378541       0.05387714      -0.12704618       0.01405576      -1.43723654      -2.16093535       2.25001588
I       12.55924303      12.21281383      16.28215869       0.04590249      -0.04661043       0.10594124      -2.92874065       2.82299667      -1.29861000
I        9.24072727       9.91697150       4.71331510       0.19790453      -0.33329924       0.08078322       2.90360272      -1.18315850      -1.73752331
H        8.02424081      10.23017237       9.88756587       0.32178239       0.43198745      -0.53134907      -0.12969000       0.12403036       0.21162221
H       12.58296280      12.26248576       3.53179013      -1.32272069       0.47669464      -0.32837881       0.06840158       0.24770462       0.35181704
H        7.63069705      10.21474790       7.84211071      -0.12548569      -0.01964212      -0.40818119       0.09276473      -0.26738523       0.08038209
H       13.10842838      10.51141636       4.03882803       0.01449555       0.71162117      -0.51166489       0.12978281      -0.13834821      -0.07494437
H        8.78529244       8.66165858       8.75767125       0.06293505       0.74130379      -0.39065176       0.04820960      -0.16727823       0.10429110
H       13.86338528      11.98066086       4.97062547       0.34422114       0.88450632       0.32762889      -0.24526444       0.22848554       0.14884242
H        9.59360877      11.71108347       8.32728769      -0.17233728       0.17106827       0.82694013       0.12636082      -0.00693681       0.30372875
H       14.30354323      11.39115833       1.98331022      -0.90881342      -0.55502650      -1.32106313      -0.07764968       0.07509082       0.30905076
H       10.54741836      10.20405644       7.33453380      -1.04824098      -0.62265011      -0.13450242       0.40064092       0.02131561       0.04859500
H       15.43647196      11.47939125       3.13787114       0.42689913      -0.23904506       0.54162911       0.00907823       0.13946314      -0.20889655
H       10.68165116      10.32180896       9.48509421      -0.41992464       0.24423644       0.10752912       0.18769027       0.01832751      -0.08802854
H       14.68090207      12.92808491       2.77918182      -0.00047221      -0.16890937      -0.78399694       0.30218199       0.08022517       0.03269876
C        8.48791663       9.89058897       8.70223507       0.01294603      -0.60831695       0.64026898      -0.28242452      -0.50662186       0.47092394
C       13.43161142      11.67205050       3.91559119       1.14222919      -2.39597591       0.43497172       0.23803145      -0.07025488      -0.19877615
Pb      11.18351257       7.17242775       4.13400481       0.25220903       0.19219438      -0.03563948       3.47257798       2.99941059      -1.10961348
Pb      15.12910692       7.23116569       3.95871390      -0.18881354       0.43164186      -0.09266366      -0.23928915      -1.00147574      -1.62194608
N        9.85577282      10.54596074       8.44078662       1.30699933      -0.66115983      -0.39881006       0.22850912       0.14592752       0.71425144
N       14.52563268      11.86133184       2.85990976       0.44369434       1.67102631       1.82926678      -1.16041419      -0.16141315       1.26797694
I        5.63439905       1.21453792      10.53233089      -0.19576396      -0.23793141      -0.02417502      -0.94027265       2.57163030      -1.08791652
I        0.02982599       6.81138994      10.37784556       0.28481250      -0.22980984       0.05738862      -2.75581667      -2.68875367      -2.20470831
I        4.70157122       1.28606104      14.85293047       0.24903043       0.27169010       0.05574472       0.82551203      -2.01108810      -0.85292181
I        0.65941900       5.96398089      14.84244948       0.42557757      -0.14779616       0.33618219      -0.82886154      -1.44681911      -5.20570946
I        4.62752266       4.80903729      12.72365086      -0.03057991      -0.09411550      -0.32308731      -3.10449232      -2.61943529      -2.11841835
I        2.45830343       2.53522582       0.62731561      -0.12280687       0.07005931      -0.19588760       2.58686910      -1.52533965       1.78113068
H        1.45172816       3.44542221      12.31458063      -0.13915552      -0.45444769      -0.34313746      -0.04042093       0.10649775       0.26358100
H        4.95654734       4.75284561       7.07997507      -0.41869620       0.20441173      -0.95585919      -0.23238151       0.29702617       0.13045198
H        0.46254421       1.81264931      12.26312855      -0.51446567       0.22893874       0.22437890      -0.07014648       0.01053916       0.00805503
H        6.62397751       5.38169951       8.06749634      -0.25666406      -0.34388052       0.15119253       0.10361437       0.16643390       0.03935416
H        1.43154635       2.54354860      13.74625163      -0.11957865      -0.90897206       2.28445190       0.00118057      -0.22236827       0.10178600
H        5.56698596       3.64815981       8.73668340      -0.28932379      -0.59183955       0.06793028      -0.16950434      -0.28075502      -0.04676168
H        2.72712634       1.71791465      11.24853470       0.29401369       0.01686113      -0.49061693       0.17825028       0.09448877       0.12701540
H        4.68834435       6.61101050       9.01542438      -0.16893481       0.32862720      -0.60170871       0.32791644      -0.33731089       0.00424242
H        2.45680479       0.45044120      12.30740823      -0.17534950       1.08612055       0.22180006       0.06093357       0.14384793       0.04945792
H        4.63066318       5.31665848      10.06964790       0.18336534      -0.20432555      -0.12779365      -0.35234614      -0.27507672      -0.15080312
H        3.52882763       1.74930118      12.83849295      -1.86153343       0.05451740      -0.88163673      -0.22451767      -0.09469885       0.39183210
H        3.42114900       5.37466562       8.86505164       1.88011757       0.38908587       0.26245532       0.05457061       0.36846673       0.10321469
C        1.39579543       2.34895669      12.69494374      -0.26306315       1.78842528      -1.44169038      -0.53011399      -0.11658095       0.56350833
C        5.44893988       4.76255568       8.15938979       1.05482355       0.72088445       0.89415901      -0.48900773      -0.73410687       0.24504761
Pb       4.16905148      14.63134086      -0.18168570      -0.44453104      -0.10730760       0.37574525       1.89158709      -4.74950574       0.21823592
Pb       0.16878675      14.80539173      -0.03279977       0.46266718      -0.26884795       0.43708479      -1.84760480      -1.93934722       0.15361971
N        2.58142545       1.54539165      12.26351479       2.53254330      -1.73143901       0.71824968      -0.45487129       0.25475384       0.43630691
N        4.51385850       5.56845365       9.04538219      -2.23781490      -0.53342195       0.21314420      -0.48172852       0.46056919       0.18151440
I        4.19338787       8.50514630      14.85440137       0.22471867       0.09437785       0.49797035       3.56160056      -1.24653709      -2.57608610
I        0.72133569      13.36393398      14.74276858       0.01913379       0.42656015      -0.06354766      -1.42982957      -0.17215631      -0.04787636
I        4.60382105       8.88750149      10.52771437       0.19471249      -0.15839899       0.26646400      -1.16955480      -0.03911789       3.37697011
I        1.63308250      13.07450971      10.40792095       0.53550105       0.31603761      -0.28341565      -3.77883162       0.92716875      -1.76838608
I        5.73020671      12.49854065       7.93257630      -0.21272119       0.03440441       0.28125171       4.11919903      -4.10948695       1.53319124
I        0.84430853      10.22423956      12.98494550       0.22570333      -0.20724518      -0.02244890       1.04241625       1.57135769       2.38361923
H        2.21595458       8.31765096      -0.19518275       0.44782048      -0.24948803      -0.37304487       0.01134366      -0.13782180       0.16198644
H        5.23278511      10.52922350      12.72478994       0.29455878       0.34306131      -0.82950126       0.00293145      -0.19828313       0.13979941
H        2.35285234       9.38993271       1.24167411      -0.06079018      -0.03019181      -0.08594639      -0.03446770       0.09302405       0.14312717
H        4.93339585      12.31873459      13.55237216      -0.23341866       0.02644876       0.40077363      -0.01198865       0.12499814       0.01700738
H        0.77282537       9.50082259       0.06825991       0.52850632      -0.48760767       0.55436091      -0.01354938      -0.10398992      -0.17227409
H        3.82192611      11.68826880      12.22699405      -0.34745034      -0.11852782       0.04729432      -0.30604102      -0.20709819      -0.03453135
H        2.56654097      11.47770067       0.05550859      -0.35571089      -0.55507309       0.13597815       0.43099513      -0.03284503       0.07865482
H        7.05984721      12.60334228      11.72057208      -0.97628950       0.14835420      -0.06190689      -0.19562134      -0.13304520      -0.07099913
H        2.20552126      11.11136083      -1.60856576      -0.41072070      -0.66974397      -1.15659775       0.00038925      -0.32700528       0.11583717
H        5.70510182      13.72575751      11.45324450      -0.26198023       0.45353361       0.26641998       0.13877530      -0.18735681      -0.38737244
H        3.79929158      10.39861517      -0.96963631      -0.54175220       0.07306678      -0.22125716      -0.09260237       0.02731499       0.15197278
H        6.03571755      12.13570279      10.33743679       0.14764662       0.72070060       1.28827783       0.30458463      -0.35898073      -0.03510830
C        1.97827056       9.33549622       0.17620133      -1.50538312       1.20536188      -0.26412779      -0.03646913      -1.49517122      -0.26365451
C        4.89010837      11.66989858      12.57344436       0.73575356       0.88702384      -0.32423838      -0.38072184      -0.67254537       1.00846651
Pb       2.59980271       7.29412928      12.54330695      -0.16590883       0.18677921      -0.03224000      -0.25959714      -0.92166576       3.01321124
Pb       6.66863127       7.28712702      12.93921963      -0.58115614       0.38006674      -0.19649868      -0.43808103      -3.28942335      -1.70233260
N        2.62988965      10.61707726      -0.65447521       2.10630465       0.66231734       1.68107726       0.72999724       1.03736846       0.67698779
N        5.94967451      12.59992872      11.48504758       0.53463483      -2.20802098      -0.68734740      -0.27127929       0.22187871      -0.08440352
I       13.71493344       0.97006527      10.63515948       0.10329145       0.17169675       0.21950990      -0.70932592       0.83301429      -1.01872412
I        8.33743166       6.24591865      10.52354994       0.19849211       0.01887867      -0.00582876       0.84945838      -0.21178650       2.39563890
I       12.56027152       1.07139868      14.81201010      -0.12859636       0.27139102      -0.36712515       0.00248051       1.59565444      -0.95793639
I        8.90002731       6.31148398      14.97028369      -0.27970094      -0.02363252      -0.04919924       2.00349239       2.15276790       1.82975964
I       11.90488038       4.70392179      12.55077716       0.19973100       0.69273990      -0.18361752      -0.14974883      -2.18058280       1.44295122
I       10.49318868       2.56272970       0.62960107      -0.03020582       0.02273412      -0.31676331      -3.03588477       1.62594742       5.48473363
H        7.35657078       2.78018159      12.68272924       0.27096838       0.03361096       0.57171574      -0.15289628       0.08727404       0.08352221
H       13.01080990       4.92928269       7.06799773      -0.21615357       0.71687916      -1.52244661      -0.06026467       0.25758182       0.16548985
H        8.69740419       3.97715341      14.01360963       0.05572521      -0.19055657      -1.27235166       0.09821874       0.39695674       0.09164443
H       13.88838254       4.50194410       8.54279670       0.51439972      -0.42159285       0.16672218       0.15501963      -0.05136314       0.13894490
H        8.57175493       4.12314962      11.72656671       0.42238064       1.11951715      -0.08662414       0.12243247      -0.12923503      -0.09063927
H       12.23070488       3.68787937       8.11111276       0.50100136       0.38578066       0.05568133      -0.08554122      -0.07496289      -0.05849701
H        8.96264639       1.66026616      11.49751462       0.34265941      -0.58346552      -0.33529318       0.14481867       0.07509742      -0.09361909
H       11.25962579       5.98342863       8.39919731       0.68270778       0.23241548       0.11889367      -0.02786528       0.12872176      -0.17751591
H        9.27685141       1.03587407      13.46342321      -0.86169814       0.78958742      -0.18239634       0.04597217      -0.13500465       0.02033017
H       12.81360230       6.61987058       9.12742019      -0.13307493      -0.01298655      -0.07130952       0.02862930      -0.40824152      -0.20313680
H       10.36082851       2.38001529      12.55449668      -0.09778636       0.63716410       0.14908133      -0.28147853       0.12279142      -0.34766105
H       11.96003904       5.17928597       9.87868580       0.09600942       0.31297891       0.35117704      -0.47317414       0.23243106       0.10599883
C        8.42933646       3.30786029      12.80391875      -1.14463486      -1.21946208       1.16730325      -0.12842655      -0.01230573      -0.85279331
C       12.90421972       4.62083815       8.07177538      -1.06130860       0.00739735       1.93136787       0.74502370      -0.67246941      -0.32116214
Pb      12.22864978      14.72779758      -0.42855051      -0.05006398       0.55066914      -0.01561404      -6.13842985      -1.97525035       2.73985572
Pb       7.99397724      14.64035078      -0.43160811       0.31571129       0.59433999       0.31666948       5.40314612       2.89945405       2.25173329
N        9.26776068       2.00429462      12.59126302       1.17047922      -0.52552375      -0.22035279      -0.06488257       0.32106137       0.40337362
N       12.19620282       5.70997847       8.92750415      -0.39402251      -1.41244978      -1.07694830       0.86333418      -0.84821744      -0.01583761
I       12.62260217       8.09739056      15.18734284      -0.30790282       0.19991380      -0.35665606      -0.97786944      -1.67830578       2.27165724
I        8.57137565      14.03172646      14.35274340      -0.07665259      -0.41052703      -0.04128815      -2.92358808       0.31088609      -2.48188195
I       12.42240331       9.00795565      10.43971100       0.06612068       0.04344080      -0.21424378      -0.34776732       1.34294202       0.89612788
I        9.60800697      13.51094118      10.18914550      -0.11495080      -0.34336702       0.57810553       1.25301372      -2.32353811      -3.13830920
I       12.94551604      11.73457772       8.03311714       0.00349075       0.33281936      -0.24321961       0.78483073      -0.48943721       0.32966205
I        8.18726885      10.20556440      12.96438915       0.20365628       0.05123852       0.05830454       0.12210329       2.53629087      -0.46650776
H        9.88580699       9.48464298       0.97097932       0.23941007      -0.02603091       0.69807185       0.08943282       0.18853453      -0.01669851
H       12.14667858      12.96956501      12.52337791       0.99419560      -0.56031300       0.07868532       0.41451576       0.04635333       0.20935275
H        8.78262394      10.06844454      -0.33886465       0.52648680      -0.37329663       0.54326716       0.28151073       0.09076173      -0.50390593
H       12.62272589      10.71014202      12.41948711      -0.09500259      -0.02536278      -0.18071791      -0.01514301       0.23522828      -0.22879470
H        9.92350489       8.69793313      -0.70900466       0.47199420       1.39406310       0.70645030      -0.08436011       0.01375653      -0.00168930
H       13.83658862      12.07141880      13.77966973      -1.17939707      -1.32789519      -0.84129129      -0.21492805      -0.13326866      -0.21890802
H       10.60444957      11.74463962      -0.11528940       0.57827826      -1.96042063       0.17842063      -0.25800841       0.15875475       0.04278006
H       13.52803336      12.30369235      10.35713832       0.96111551       0.99647066       1.12118619      -0.16122660       0.05438917      -0.15266356
H       10.39130629      10.97975569      -1.58959216       0.86340986      -0.16008282      -0.14960243       0.09547896      -0.52431723      -0.01150666
H       14.88695122      11.82034351      11.55370043      -0.48871902       0.33667681      -0.08020765       0.19983426       0.11215636      -0.33104354
H       11.78209437      10.31511677      -0.62186382      -0.94920737       1.45863346      -0.19570318      -0.28647787      -0.02887605      -0.19065179
H       14.16165757      13.58879645      11.54119620       0.27846235       0.02828038       0.14861999       0.15050655      -0.15659083      -0.00908207
C        9.82034910       9.67860156      -0.08860460      -2.02159485      -0.80193277      -1.34637045      -0.16695580       0.63661154       0.10956548
C       13.04923268      11.96016268      12.59788780       0.46842940       2.49297335       1.93375157      -1.26282438       0.17668881       0.45722129
Pb      10.43235897       7.85924335      12.48580606       0.15118501      -0.59730559       0.51861112      -1.52503188      -0.35167607      -0.98650838
Pb      14.23549316       7.32903088      12.54223091       0.09071781      -0.40160220       0.46948933      -0.76076304      -2.68227151       1.57835993