768
Lattice="38.36233378009021 -0.17091669423460434 -0.23415642229604455 0.13860846621712591 21.550492846406996 -0.023849043928523623 -0.012701609790407587 0.03213069133637567 18.81004073834508" Properties=species:S:1:pos:R:3:forces:R:3:momenta:R:3 pbc="T T T"
I       18.72130463       5.18497434       3.01496131       0.03026016       0.15086715      -0.09768351       0.29642327       0.46249192       0.76154145
I       18.43940617       8.90461206       0.77132080       0.31177413      -0.43432342      -0.08058713       0.18178201       3.38433069      -1.06521679
I        8.86560025      10.68098994       2.84318265       0.18752178       0.04868776       0.11683907       0.55950729      -0.32341241       0.55231263
I        9.56801602       3.33358978       0.65681177      -0.32283048      -0.12896075      -0.10256785       0.83649552       0.55953129      -0.90643158
I       16.75480144       2.06133102       0.60205611      -0.05631850       0.12590586       0.05720184      -0.82010993       0.86397871      -0.22402451
I        1.69778674      12.12270128       3.19461394      -0.14559365      -0.03187268       0.06109490       1.61778829       0.19231055       0.69864642
I       11.14710047       7.63023887       0.66154105      -0.30059013      -0.23173699       0.04446465       1.96600353       0.29875485      -1.07928711
I        7.11901125       6.66276631       2.82347522       0.08838396      -0.25858572       0.05505394       0.23408202       0.54518862       1.02866634
I        3.52828091       4.74266451       0.50134948       0.05426516       0.09368398       0.16877414       1.35939147      -1.05624968       1.52275577
I       14.85899613       9.36985877       3.09261743      -0.01183181       0.12486611      -0.01058853      -0.72860259      -1.19502424      -1.63852362
I        4.90615258      10.25501744       0.54760136       0.30038883      -0.02590603       0.19463885       0.20829009       0.48385933      -1.25312654
I       13.20522786       4.09660977       3.30027212      -0.06601764      -0.01273542      -0.06156151       0.13912927       3.39837144       2.19184034
H        6.19722747       3.60971625       1.92247745      -0.03204836       0.09171923      -0.08282061      -0.12302044       0.12029722       0.06541650
H       12.37734417      10.53858611       1.92805811      -0.34642141      -0.18173985       0.16119361      -0.08714791       0.06364970       0.07491219
H        2.62509242       8.70835245       4.05816392      -0.13798051       0.53646477       0.27143084      -0.11321864       0.04477194       0.09057787
H       15.59288736       5.19017550      18.34002930      -0.53133479       0.51857958       0.12628997       0.04307739      -0.06254330      -0.03702274
H        7.05420941       3.05937965       3.39836987      -0.42768733      -0.52373695      -0.76198659      -0.02068342       0.10839603      -0.00732222
H       11.68837950      12.24108547       2.13493206       0.01881108      -0.67809553      -0.35653333      -0.22350424       0.06991428      -0.22069942
H        1.98736291       8.51985375       2.30466904      -0.54509429       0.17163586      -0.64579212       0.08763278       0.06407616      -0.24626673
H       15.95307543       6.96544842      18.22985192      -0.00427620       0.39226485      -0.38545228      -0.13212419       0.10233467      -0.05652507
H        6.63232356       1.87667632       1.99369798       0.42438696      -0.33706983       0.03297117      -0.06973810      -0.01109862      -0.00652914
H       11.28008423      11.26654490       0.63039653      -0.15197369      -0.08191641       0.26286461      -0.07460329      -0.24319175      -0.23902479
H        1.88204987       7.07352592       3.47150532      -0.38306089      -0.50653325       0.54884622       0.06102015      -0.07212606       0.19514907
H       16.73201010       5.89349838       0.72683672      -0.67173972       0.26293329      -0.22548626      -0.15246091      -0.02670542       0.06909242
H        5.02857657       1.61987741       3.88349128       0.28514533       0.28404542       0.30013506       0.09350659      -0.12563324       0.07959581
H       12.94433253      12.84021460       0.05105101       0.49591172      -0.93934795       0.54218343      -0.12564833      -0.07800699       0.04930348
H        4.22427678       8.32485869       2.17978928       0.97884274       0.61544576      -0.27393531      -0.03799508       0.09899041      -0.00181088
H       13.68614324       6.79351691       0.48503594       0.32961620       0.09501844       0.69742840      -0.27158360       0.12781324      -0.06410479
H        4.33643157       2.05509126       2.47658130       0.34845574       0.42607368       0.32888961      -0.04570272      -0.07708799      -0.06204988
H       13.60516077      11.24744365       0.11973542       0.83222937      -0.15144214      -0.36470555       0.03091664       0.01773388      -0.02499097
H        3.67930541       6.72664073       2.15009602       0.44350928       0.45728766       0.04327692       0.01126661       0.04357666      -0.10178566
H       14.92807310       7.23512393       1.77360401      -0.74268796      -0.75788968      -1.02913906       0.00464720       0.04338677       0.17019486
H        4.51443898       3.28190330       3.66490348       0.37035725      -0.30928972      -0.01658264      -0.02624720      -0.16806712       0.17410009
H       13.99064771      12.37776718       1.36378666      -0.17442190      -0.23352011      -0.42521253      -0.13739310      -0.09427114      -0.07459516
H        4.37302795       7.26490018       3.51781475       1.48449641      -0.02705544       1.31183591       0.08169368      -0.17984295      -0.08475736
H       14.27984358       5.64274078       1.69239266       0.13152580       0.29773808      -0.44733751       0.05948758      -0.09515791       0.15266087
C        6.34171417       2.74659915       2.58147791      -0.48705348       0.77957464       1.04090747       0.00870643      -0.19789954       0.21145929
C       12.02663895      11.45285585       1.41613280       0.45235542       0.90548637       0.22514414       0.57933948      -0.63677184      -0.22160270
C        2.46313055       8.00386320       3.18472579       0.92854303       0.20375839       0.26519424       0.16109355       0.11253882       0.25942629
C       15.74322168       6.09606066       0.10108422       1.46235760      -1.26527860       0.45285265       0.32051132       0.09614244      -0.46175052
Pb       0.62273413       3.41499586       0.78654862       0.00720581      -0.02366587      -0.06057181       0.99168893       0.96009896      -0.97739687
Pb      17.76875810      10.78515216       3.06120031      -0.17976334       0.28503525       0.29009262      -1.39852468      -1.99045809       2.18368473
Pb       7.92464795       8.72889510       0.59901840      -0.01678695       0.29010308      -0.29364048      -1.34248881      -0.16193838       0.34453816
Pb      10.13756134       5.25805086       2.99700392       0.21423588       0.09437252       0.28425250      -2.54547439      -1.05946639       0.45526458
N        4.99707681       2.43726114       3.21577528      -0.55633932      -0.40283046      -0.79831342       0.73753950       0.25064925       0.19721556
N       13.25114578      12.00523627       0.70531944      -0.99585814       1.28221247      -0.10078269       0.30526377      -0.17050333       0.13018860
N        3.83469271       7.58799170       2.75239247      -2.82806984      -1.32394598      -1.45886753       0.35960371       0.24473881       0.68536980
N       14.57295304       6.45067749       1.03863916       0.11522282       0.51417529       0.80124027       0.40314016       0.05068418      -0.37615061
I       18.98662167       5.42717222       7.82853502      -0.09538556      -0.04222959      -0.07809716       0.19704015      -0.08796510       1.05714881
I       18.54934396       8.77469337       5.33513253       0.16353058       0.00842090      -0.01992261       0.14268211      -0.37182286      -0.28378264
I        9.16974447      10.56901671       7.57010166      -0.08391485       0.06878425       0.25020467       2.50990608       0.72666026       0.20188342
I        9.04200744       3.36541210       5.39447725       0.24674365       0.41722395       0.00953663       0.06181397       1.58638618      -0.66472558
I       16.73720518       2.35963369       5.47796577       0.35284443      -0.30692480       0.02519104       1.66011130      -0.00877206       0.16390666
I        1.66985681      12.06170628       7.79770412      -0.19037327       0.06225252       0.02182701       0.22739556       0.24604289      -0.90418920
I       11.03514693       7.50316525       5.31957353       0.06335535      -0.01665437      -0.01174093       0.04584789       0.06437988      -0.28851809
I        7.03928636       6.60364848       7.57918014       0.18604533      -0.05210100       0.07300107       1.99335581      -0.72396416      -3.67497718
I        3.66915479       5.07909632       5.40259557      -0.01991134      -0.27779273      -0.08943903       0.05021409       0.17348139      -1.70207116
I       14.80582078       9.52239970       7.87552194      -0.32086260      -0.06513705       0.03802596       0.17566872      -2.62072944       0.06243907
I        5.30322236      10.25686018       5.33530001      -0.30868536       0.07885472      -0.00226567      -0.44922611       2.29240060       0.87821778
I       13.04800856       3.89530564       7.83475238      -0.14527766       0.37042264      -0.00261212      -0.59457827       0.18179490      -2.28454945
H        6.72365203       1.80870309       8.53375380       0.67010641      -0.49007189       0.40402919      -0.09155500      -0.02150104       0.08616875
H       11.75678383      11.21626401       6.26590836      -0.46861768      -0.10176778      -0.25285097      -0.00506587       0.10920331       0.08994133
H        2.49848366       9.09754986       6.67607719       0.19632425      -0.58058334       0.90757697      -0.26213753       0.05305782       0.05866964
H       15.73153927       5.38185093       6.24329455      -0.00925305      -0.66537003       0.73178700       0.14033452       0.00828940       0.19630073
H        6.92831569       3.25446515       7.32019540      -0.47837960      -0.10763237       0.82408566       0.13123662      -0.10765937       0.09439351
H       11.56252159      12.48276301       4.91438448       0.15988671      -0.21902265      -0.10455849      -0.05211330      -0.14093290       0.07031629
H        2.16894301       7.36132787       6.56815620      -0.13601613      -0.63596350      -0.14312972      -0.02948260       0.15801308      -0.00286507
H       16.23342346       5.88956485       4.57395672       0.05721436       0.14864093       0.18305691      -0.03531619      -0.05779076      -0.00211656
H        6.05886788       3.45884979       9.04685990       0.57440124       0.75487350       0.16945451      -0.14202868       0.24194490       0.04171741
H       12.28761135      10.75817561       4.55169404      -0.10354518       0.19804965      -0.05711282       0.05980276      -0.11075491      -0.06716586
H        1.72271049       8.18336526       8.06167633      -0.87994119       0.47450133       0.72093479       0.10133750      -0.02157406       0.02229374
H       16.50757892       7.07168721       6.03948023      -0.32509606      -0.80297523      -0.37713366       0.26207688      -0.00305406      -0.13330472
H        4.55635479       3.14741708       7.05652419      -0.45728649       1.08545794      -0.52045190       0.13881005      -0.11125705      -0.04688257
H       13.49540942      13.00033953       6.17398966      -0.05585280      -0.48468176      -0.45793352      -0.03173547       0.01554065       0.07206317
H        4.04565144       8.59857774       8.56669299       0.35527118      -0.17045920       0.02471322      -0.12997951      -0.12306540       0.02392784
H       14.34048458       7.65713467       4.84549425       0.33647311       0.12416464      -0.48056685       0.10063973      -0.04348667      -0.00800578
H        4.30263504       2.19016773       8.37915587       0.00943347       0.14667033      -0.07146858       0.11145424       0.10569073      -0.19261562
H       14.23057809      12.16982119       4.90289038      -0.10185716      -0.30990301       0.29949304      -0.09874756       0.09378081      -0.11222487
H        4.45835946       7.69078569       7.19419536       1.25069791      -0.00144498      -0.91093644      -0.00982697       0.02080671      -0.18864382
H       13.90533357       6.94671975       6.30346534       0.02766769      -0.23340011      -0.17224776       0.09391436       0.04936331      -0.00026790
H        5.03196112       1.60489386       7.05712357       0.06521479      -0.90240699      -0.65328582       0.13839639       0.06735888      -0.05578003
H       13.97259579      11.42451472       6.46240622      -0.01677227      -0.20787439      -0.78438970       0.13673909       0.08172485       0.11785805
H        3.76002951       6.85723813       8.39705114      -0.26107274       0.63409794      -0.01260722       0.25533226       0.15593924      -0.13470413
H       13.84878072       6.00467488       4.84993571      -0.02619664       0.55094406       0.19477783      -0.04834846      -0.14196847      -0.01404656
C        6.31043074       2.77346147       8.17082164      -0.26070811       0.33239201      -0.86514400       0.18638902       0.45904984      -0.77177980
C       12.18061804      11.59155806       5.27688989       0.61059310      -0.14767160       0.82783109      -0.60992968      -0.09458721       0.03838866
C        2.44930373       8.14067295       7.27514243       0.63613422       0.51342344      -0.91177885       0.23223749       0.13850378      -0.40210847
C       15.83233723       6.23334082       5.60388317      -0.01886183       1.40424166      -0.57444237       0.77340219      -0.38053938      -0.09176929
Pb       0.69671961       3.61793347       5.56547281      -0.00560278      -0.14113385       0.05610882      -1.15135338      -0.53978612       1.70298355
Pb      17.66046617      10.63924636       7.77088640       0.08540343       0.47802153      -0.33094840      -0.18771502       0.73258713      -0.72711889
Pb       8.07319511       8.81116761       5.22645592      -0.01051539       0.06723420       0.13209069      -0.56845212       0.46020455       0.82311367
Pb      10.11026995       5.45048317       7.79512807       0.17745939      -0.21186755      -0.37249885       2.85269838      -0.17884572       1.02692142
N        4.97383658       2.43626302       7.62845189      -0.07725667      -0.91822133       0.53448035       0.13130452      -0.42007901       0.40474816
N       13.55929678      12.04157470       5.68726703      -0.13181741       1.02109602       0.32750134       0.46010735      -0.59910338      -0.13037183
N        3.77203739       7.80855092       7.90887754      -1.33299007      -0.25880746       0.23777756       0.68529244      -0.30546233      -0.17849069
N       14.39402328       6.75411545       5.37548603      -0.08277281      -0.76812631       0.65912930       0.02583091      -0.61192385      -0.19557573
I       18.71495383       5.20103969      12.41998168       0.03026016       0.15086715      -0.09768351       0.29642327       0.46249192       0.76154145
I       18.43305537       8.92067741      10.17634117       0.31177413      -0.43432342      -0.08058713       0.18178201       3.38433069      -1.06521679
I        8.85924945      10.69705529      12.24820302       0.18752178       0.04868776       0.11683907       0.55950729      -0.32341241       0.55231263
I        9.56166522       3.34965513      10.06183214      -0.32283048      -0.12896075      -0.10256785       0.83649552       0.55953129      -0.90643158
I       16.74845064       2.07739637      10.00707648      -0.05631850       0.12590586       0.05720184      -0.82010993       0.86397871      -0.22402451
I        1.69143594      12.13876663      12.59963431      -0.14559365      -0.03187268       0.06109490       1.61778829       0.19231055       0.69864642
I       11.14074967       7.64630422      10.06656142      -0.30059013      -0.23173699       0.04446465       1.96600353       0.29875485      -1.07928711
I        7.11266045       6.67883166      12.22849559       0.08838396      -0.25858572       0.05505394       0.23408202       0.54518862       1.02866634
I        3.52193011       4.75872986       9.90636985       0.05426516       0.09368398       0.16877414       1.35939147      -1.05624968       1.52275577
I       14.85264533       9.38592412      12.49763780      -0.01183181       0.12486611      -0.01058853      -0.72860259      -1.19502424      -1.63852362
I        4.89980178      10.27108279       9.95262173       0.30038883      -0.02590603       0.19463885       0.20829009       0.48385933      -1.25312654
I       13.19887706       4.11267512      12.70529249      -0.06601764      -0.01273542      -0.06156151       0.13912927       3.39837144       2.19184034
H        6.19087667       3.62578160      11.32749782      -0.03204836       0.09171923      -0.08282061      -0.12302044       0.12029722       0.06541650
H       12.37099337      10.55465146      11.33307848      -0.34642141      -0.18173985       0.16119361      -0.08714791       0.06364970       0.07491219
H        2.61874162       8.72441780      13.46318429      -0.13798051       0.53646477       0.27143084      -0.11321864       0.04477194       0.09057787
H       15.59923817       5.17411016       8.93500893      -0.53133479       0.51857958       0.12628997       0.04307739      -0.06254330      -0.03702274
H        7.04785861       3.07544500      12.80339024      -0.42768733      -0.52373695      -0.76198659      -0.02068342       0.10839603      -0.00732222
H       11.68202870      12.25715082      11.53995243       0.01881108      -0.67809553      -0.35653333      -0.22350424       0.06991428      -0.22069942
H        1.98101211       8.53591910      11.70968941      -0.54509429       0.17163586      -0.64579212       0.08763278       0.06407616      -0.24626673
H       15.95942624       6.94938308       8.82483155      -0.00427620       0.39226485      -0.38545228      -0.13212419       0.10233467      -0.05652507
H        6.62597276       1.89274167      11.39871835       0.42438696      -0.33706983       0.03297117      -0.06973810      -0.01109862      -0.00652914
H       11.27373343      11.28261025      10.03541690      -0.15197369      -0.08191641       0.26286461      -0.07460329      -0.24319175      -0.23902479
H        1.87569907       7.08959127      12.87652569      -0.38306089      -0.50653325       0.54884622       0.06102015      -0.07212606       0.19514907
H       16.72565930       5.90956373      10.13185709      -0.67173972       0.26293329      -0.22548626      -0.15246091      -0.02670542       0.06909242
H        5.02222577       1.63594276      13.28851165       0.28514533       0.28404542       0.30013506       0.09350659      -0.12563324       0.07959581
H       12.93798173      12.85627995       9.45607138       0.49591172      -0.93934795       0.54218343      -0.12564833      -0.07800699       0.04930348
H        4.21792598       8.34092404      11.58480965       0.97884274       0.61544576      -0.27393531      -0.03799508       0.09899041      -0.00181088
H       13.67979244       6.80958226       9.89005631       0.32961620       0.09501844       0.69742840      -0.27158360       0.12781324      -0.06410479
H        4.33008077       2.07115661      11.88160167       0.34845574       0.42607368       0.32888961      -0.04570272      -0.07708799      -0.06204988
H       13.59880997      11.26350900       9.52475579       0.83222937      -0.15144214      -0.36470555       0.03091664       0.01773388      -0.02499097
H        3.67295461       6.74270608      11.55511639       0.44350928       0.45728766       0.04327692       0.01126661       0.04357666      -0.10178566
H       14.92172230       7.25118928      11.17862438      -0.74268796      -0.75788968      -1.02913906       0.00464720       0.04338677       0.17019486
H        4.50808818       3.29796865      13.06992385       0.37035725      -0.30928972      -0.01658264      -0.02624720      -0.16806712       0.17410009
H       13.98429691      12.39383253      10.76880703      -0.17442190      -0.23352011      -0.42521253      -0.13739310      -0.09427114      -0.07459516
H        4.36667715       7.28096553      12.92283512       1.48449641      -0.02705544       1.31183591       0.08169368      -0.17984295      -0.08475736
H       14.27349278       5.65880613      11.09741303       0.13152580       0.29773808      -0.44733751       0.05948758      -0.09515791       0.15266087
C        6.33536337       2.76266450      11.98649828      -0.48705348       0.77957464       1.04090747       0.00870643      -0.19789954       0.21145929
C       12.02028815      11.46892120      10.82115317       0.45235542       0.90548637       0.22514414       0.57933948      -0.63677184      -0.22160270
C        2.45677975       8.01992855      12.58974616       0.92854303       0.20375839       0.26519424       0.16109355       0.11253882       0.25942629
C       15.73687088       6.11212601       9.50610459       1.46235760      -1.26527860       0.45285265       0.32051132       0.09614244      -0.46175052
Pb       0.61638333       3.43106121      10.19156899       0.00720581      -0.02366587      -0.06057181       0.99168893       0.96009896      -0.97739687
Pb      17.76240730      10.80121751      12.46622068      -0.17976334       0.28503525       0.29009262      -1.39852468      -1.99045809       2.18368473
Pb       7.91829715       8.74496045      10.00403877      -0.01678695       0.29010308      -0.29364048      -1.34248881      -0.16193838       0.34453816
Pb      10.13121054       5.27411621      12.40202429       0.21423588       0.09437252       0.28425250      -2.54547439      -1.05946639       0.45526458
N        4.99072601       2.45332649      12.62079565      -0.55633932      -0.40283046      -0.79831342       0.73753950       0.25064925       0.19721556
N       13.24479498      12.02130162      10.11033981      -0.99585814       1.28221247      -0.10078269       0.30526377      -0.17050333       0.13018860
N        3.82834191       7.60405705      12.15741284      -2.82806984      -1.32394598      -1.45886753       0.35960371       0.24473881       0.68536980
N       14.56660224       6.46674284      10.44365953       0.11522282       0.51417529       0.80124027       0.40314016       0.05068418      -0.37615061
I       18.98027087       5.44323757      17.23355539      -0.09538556      -0.04222959      -0.07809716       0.19704015      -0.08796510       1.05714881
I       18.54299316       8.79075872      14.74015290       0.16353058       0.00842090      -0.01992261       0.14268211      -0.37182286      -0.28378264
I        9.16339367      10.58508206      16.97512203      -0.08391485       0.06878425       0.25020467       2.50990608       0.72666026       0.20188342
I        9.03565664       3.38147745      14.79949762       0.24674365       0.41722395       0.00953663       0.06181397       1.58638618      -0.66472558
I       16.73085438       2.37569904      14.88298614       0.35284443      -0.30692480       0.02519104       1.66011130      -0.00877206       0.16390666
I        1.66350601      12.07777163      17.20272449      -0.19037327       0.06225252       0.02182701       0.22739556       0.24604289      -0.90418920
I       11.02879613       7.51923060      14.72459390       0.06335535      -0.01665437      -0.01174093       0.04584789       0.06437988      -0.28851809
I        7.03293556       6.61971383      16.98420051       0.18604533      -0.05210100       0.07300107       1.99335581      -0.72396416      -3.67497718
I        3.66280399       5.09516167      14.80761594      -0.01991134      -0.27779273      -0.08943903       0.05021409       0.17348139      -1.70207116
I       14.79946998       9.53846505      17.28054231      -0.32086260      -0.06513705       0.03802596       0.17566872      -2.62072944       0.06243907
I        5.29687156      10.27292553      14.74032038      -0.30868536       0.07885472      -0.00226567      -0.44922611       2.29240060       0.87821778
I       13.04165776       3.91137099      17.23977275      -0.14527766       0.37042264      -0.00261212      -0.59457827       0.18179490      -2.28454945
H        6.71730123       1.82476844      17.93877417       0.67010641      -0.49007189       0.40402919      -0.09155500      -0.02150104       0.08616875
H       11.75043303      11.23232936      15.67092873      -0.46861768      -0.10176778      -0.25285097      -0.00506587       0.10920331       0.08994133
H        2.49213286       9.11361521      16.08109756       0.19632425      -0.58058334       0.90757697      -0.26213753       0.05305782       0.05866964
H       15.72518847       5.39791628      15.64831492      -0.00925305      -0.66537003       0.73178700       0.14033452       0.00828940       0.19630073
H        6.92196489       3.27053050      16.72521577      -0.47837960      -0.10763237       0.82408566       0.13123662      -0.10765937       0.09439351
H       11.55617079      12.49882836      14.31940485       0.15988671      -0.21902265      -0.10455849      -0.05211330      -0.14093290       0.07031629
H        2.16259221       7.37739322      15.97317657      -0.13601613      -0.63596350      -0.14312972      -0.02948260       0.15801308      -0.00286507
H       16.22707266       5.90563020      13.97897709       0.05721436       0.14864093       0.18305691      -0.03531619      -0.05779076      -0.00211656
H        6.05251708       3.47491514      18.45188027       0.57440124       0.75487350       0.16945451      -0.14202868       0.24194490       0.04171741
H       12.28126055      10.77424096      13.95671441      -0.10354518       0.19804965      -0.05711282       0.05980276      -0.11075491      -0.06716586
H        1.71635969       8.19943061      17.46669670      -0.87994119       0.47450133       0.72093479       0.10133750      -0.02157406       0.02229374
H       16.50122812       7.08775256      15.44450060      -0.32509606      -0.80297523      -0.37713366       0.26207688      -0.00305406      -0.13330472
H        4.55000399       3.16348243      16.46154456      -0.45728649       1.08545794      -0.52045190       0.13881005      -0.11125705      -0.04688257
H       13.48905862      13.01640488      15.57901003      -0.05585280      -0.48468176      -0.45793352      -0.03173547       0.01554065       0.07206317
H        4.03930064       8.61464309      17.97171336       0.35527118      -0.17045920       0.02471322      -0.12997951      -0.12306540       0.02392784
H       14.33413378       7.67320002      14.25051462       0.33647311       0.12416464      -0.48056685       0.10063973      -0.04348667      -0.00800578
H        4.29628424       2.20623308      17.78417624       0.00943347       0.14667033      -0.07146858       0.11145424       0.10569073      -0.19261562
H       14.22422729      12.18588654      14.30791075      -0.10185716      -0.30990301       0.29949304      -0.09874756       0.09378081      -0.11222487
H        4.45200866       7.70685104      16.59921573       1.25069791      -0.00144498      -0.91093644      -0.00982697       0.02080671      -0.18864382
H       13.89898277       6.96278510      15.70848571       0.02766769      -0.23340011      -0.17224776       0.09391436       0.04936331      -0.00026790
H        5.02561032       1.62095921      16.46214394       0.06521479      -0.90240699      -0.65328582       0.13839639       0.06735888      -0.05578003
H       13.96624499      11.44058007      15.86742659      -0.01677227      -0.20787439      -0.78438970       0.13673909       0.08172485       0.11785805
H        3.75367871       6.87330348      17.80207151      -0.26107274       0.63409794      -0.01260722       0.25533226       0.15593924      -0.13470413
H       13.84242992       6.02074023      14.25495608      -0.02619664       0.55094406       0.19477783      -0.04834846      -0.14196847      -0.01404656
C        6.30407994       2.78952682      17.57584201      -0.26070811       0.33239201      -0.86514400       0.18638902       0.45904984      -0.77177980
C       12.17426724      11.60762341      14.68191026       0.61059310      -0.14767160       0.82783109      -0.60992968      -0.09458721       0.03838866
C        2.44295293       8.15673830      16.68016280       0.63613422       0.51342344      -0.91177885       0.23223749       0.13850378      -0.40210847
C       15.82598643       6.24940617      15.00890354      -0.01886183       1.40424166      -0.57444237       0.77340219      -0.38053938      -0.09176929
Pb       0.69036881       3.63399882      14.97049318      -0.00560278      -0.14113385       0.05610882      -1.15135338      -0.53978612       1.70298355
Pb      17.65411537      10.65531171      17.17590677       0.08540343       0.47802153      -0.33094840      -0.18771502       0.73258713      -0.72711889
Pb       8.06684431       8.82723296      14.63147629      -0.01051539       0.06723420       0.13209069      -0.56845212       0.46020455       0.82311367
Pb      10.10391915       5.46654852      17.20014844       0.17745939      -0.21186755      -0.37249885       2.85269838      -0.17884572       1.02692142
N        4.96748578       2.45232837      17.03347226      -0.07725667      -0.91822133       0.53448035       0.13130452      -0.42007901       0.40474816
N       13.55294598      12.05764005      15.09228740      -0.13181741       1.02109602       0.32750134       0.46010735      -0.59910338      -0.13037183