768
Lattice="38.36233378009021 -0.17091669423460434 -0.23415642229604455 0.13860846621712591 21.550492846406996 -0.023849043928523623 -0.012701609790407587 0.03213069133637567 18.81004073834508" Properties=species:S:1:pos:R:3:forces:R:3:momenta:R:3 energy=-3318.068928615197 stress="0.0 0.0 0.0 0.0 0.0 0.0 0.0 0.0 0.0" pbc="T T T"
I       18.17216668       5.25861389       3.60656691       0.03032905      -0.23176487       0.09190158       3.66896012      -1.30807643       2.24985403
I       18.16564733       8.21852745       1.07300302       0.12540288       0.08109788      -0.11193266       2.07102421      -0.87960421       0.61072794
I        8.42427134      10.38216806       3.37811767       0.02461778       0.09354434       0.33000461      -3.62062263      -2.28691406       1.58713527
I        8.67921537       3.46071135       1.01969679       0.08963326      -0.30292385       0.51630232       0.32705992      -2.82656166      -0.79815336
I       16.06408965       2.03452148       0.96383503      -0.12283062      -0.17348376       0.09354083       3.15674828      -3.62410647      -2.68113842
I        1.23808915      11.62855374       3.74918505      -0.19757537       0.26123597       0.07243276       1.58863477      -1.58842458       1.59192163
I       10.41759982       7.53002683       1.70697697       0.14097686      -0.23178783      -0.29662429       1.70505469       1.55395657      -1.73594109
I        6.64080978       6.52621820       3.64207629       0.05658083      -0.32072287       0.10177645      -1.28480726      -0.46204421      -0.37989746
I        2.94647683       4.28562883       1.65240250       0.44572276       0.13199018      -0.34439690       0.88238623       1.58919731       2.41929133
I       14.39395258       9.37743228       3.60940874      -0.15538907      -0.22807834      -0.03177090       2.50557710      -1.93661395      -2.53540985
I        4.44950557       9.84762668       1.25523505      -0.27578914      -0.12534337      -0.02696822       3.31090183       2.55435372       0.86646802
I       12.73761246       3.82459217       3.71886131      -0.24652414       0.02603914      -0.28778009       1.04065710       0.59169205       1.84231302
H        5.66769053       3.51917882       3.26012829      -0.47272503      -0.47794458       0.39101848      -0.22295192      -0.25138381       0.23338152
H       11.72220560      10.53598087       2.79644999       0.20411268      -1.21871075       1.32798367       0.23667776       0.44959282      -0.08152053
H        1.90632448       8.74144258       4.52488678       0.07762831       0.18194879      -0.09201760       0.05111854      -0.04322057      -0.03814790
H       14.72491037       4.85543506       0.82566904       0.69822672       1.24468927       0.53516498       0.14161517       0.19094242       0.14908316
H        5.74961763       2.97423677       5.12443627       1.67060103       0.44857112       1.75419144      -0.35500523      -0.29021667      -0.12760973
H       11.19239410      12.31469253       2.40548492      -0.83841453      -0.12405237       0.75510540       0.06487161      -0.11355647       0.29042692
H        1.04135571       7.68373435       3.23984128      -0.44118752       0.32965542       0.45501625       0.13650719       0.02624026       0.20610767
H       15.56010148       6.52379254       0.70647855       0.57370583      -0.29946549       0.20462453      -0.11185705       0.01449321      -0.35499062
H        6.41810425       1.83646829       3.66267521       0.01160799       0.50960776       0.01989604       0.11251293       0.10312264       0.20561219
H       10.59966424      10.73022339       1.33930656       0.77003931       0.55214277       1.28451201       0.52745598      -0.05200431       0.12264197
H        1.50738988       6.98472695       4.87880161      -0.21695667      -0.09324368       0.09381725      -0.42512018       0.02116358       0.51248907
H       15.38656122       5.57458392       2.41322232      -1.40484824       0.82754105      -1.07719234      -0.26677452       0.04792604      -0.16161406
H        3.98393494       1.02863206       4.37208453       0.43351255      -0.05628892       0.37740832       0.26539297       0.20167461       0.41582261
H       12.34945155      12.49606485       0.54686654       0.08885358      -0.38336775       0.35556829       0.07960380       0.03524429       0.56347354
H        3.27017741       8.08021965       2.70465023       0.45168480      -0.65013329       0.31071428       0.03237686       0.01412030       0.19839115
H       13.10746632       7.12098639       0.38800074       1.06903814      -0.89930287       0.17719144       0.01238428       0.08997322       0.07967872
H        3.65321155       1.95826475       2.97087187      -0.23817472       0.05345947      -0.62907879       0.19321035       0.01917616      -0.09914536
H       12.93678760      10.92823538       0.34387330      -0.63177586      -0.12710318       0.42878234       0.07630576      -0.14581564      -0.09180027
H        3.01317032       6.35122713       2.99528748      -0.33408120       0.06375978      -0.10383828      -0.13729985      -0.00723688       0.10187337
H       13.61265438       7.42623535       1.91637012       0.14434229       0.42869595       0.63953698      -0.25147771      -0.07411767      -0.37356587
H        3.51814597       2.68168085       4.54957291      -0.31341024      -0.52488788      -0.00420577       0.27433873      -0.11809300      -0.37166931
H       13.55583877      11.85147499       1.59715244      -0.43611675      -0.01887690       0.17341287       0.18135974      -0.12945003      -0.00144767
H        3.81371966       7.26823238       4.16273175       0.21651835       0.23047062      -0.41078587       0.09413749      -0.10290242       0.32259932
H       12.61403536       6.03723474       1.81305669       0.30557203      -0.63192839      -0.01784344      -0.03254033       0.08263623       0.10748833
C        5.58058905       2.65040031       4.00448683      -0.90035135      -1.41374850      -2.28504187      -0.30672891       0.54196475       0.53958493
C       11.42197163      11.24624731       2.04651395      -0.17199220       0.79438169      -3.31902324       0.10815203       0.88611489      -0.30469325
C        1.76991285       7.73387924       4.09800267      -0.08773456      -0.87220978      -0.81923407       0.50148132      -0.49329944      -0.14821632
C       14.94019654       5.85260614       1.34981440      -1.08124006      -1.79706963      -0.70508109      -0.89563307       0.70409936       0.25894907
Pb      38.50217497       3.07343520       1.16186942      -0.25945291      -0.01519346       0.37730889       1.13869364       0.53102001      -4.54440167
Pb      17.37913009      10.32987843       3.34005993      -0.02748045      -0.19938602       0.24048047       2.18627836       0.57599326       1.13613799
Pb       7.36500869       8.52738504       1.04501246      -0.07538994      -0.13272806       0.49866059       0.52482310       3.71727407       2.29262429
Pb       9.70066055       5.16899195       3.69560125      -0.18767534      -0.31290375       0.06184699       7.40130170       0.59302056      -1.91296640
N        4.09270770       2.00924236       3.95456805       0.05262420       1.59848258       0.26905167      -0.10709355       0.19499433       0.06797132
N       12.59892569      11.61909131       1.09678856       1.11140706       0.45670191      -0.98274096       0.30060202      -0.27459537       0.41522519
N        3.04715940       7.30503460       3.43721831       0.49525368       0.95806592       0.73162039      -0.23840577       0.01315539       0.27968737
N       13.48607843       6.58403971       1.33905308       0.04360125       1.09210701       0.24093789      -0.78195858      -0.72061129      -0.32253697
I       18.60706099       5.13507737       8.07618325      -0.17910175      -0.39551454       0.05898547      -2.24515254       2.41259100       0.75151843
I       18.04148682       8.39265477       5.96111146      -0.20213174       0.21310122      -0.30875169      -1.34052031       0.52420463       1.52245583
I        8.73622055      10.36428473       8.40925833      -0.10350526      -0.16806037       0.23705311      -1.91856359       1.07096062       3.01192341
I        8.78510880       3.09291983       6.18094221       0.03632973       0.01813522      -0.41223773       1.78036110      -1.48242454      -0.32966148
I       16.32498564       1.83069909       5.63925575       0.13453080      -0.00880634       0.21413469      -2.57672616      -5.30995355       0.70261361
I        0.73346596      11.51497242       8.27004581       0.57506755       0.22204874       0.23261337       2.40371695      -0.08803672      -2.13189028
I       10.76775169       7.25138494       5.78813527      -0.48636543      -0.01358010       0.20640858      -0.51839073       0.48203687      -0.04914313
I        6.55373757       6.44321924       7.97818211       0.49819598      -0.22325230       0.37286203      -2.14689393      -3.66342761       1.18388332
I        3.00029317       4.59451725       6.10098850      -0.22567418      -0.28590651      -0.02185370       1.87836804      -2.10985363       4.62453901
I       13.80030258       9.16246885       8.17675399       0.13362191      -0.23843728       0.14759264      -0.90033655      -3.77700692      -0.15328386
I        4.59083368       9.84117857       5.75729677       0.21201768      -0.14914558       0.22729287      -3.40491554       1.04471932      -3.06899179
I       12.40874823       3.38898374       8.06200841       0.44745158       0.22898349       0.21496720       1.42996351       3.55770791       0.60047391
H        5.99311716       2.08180792       9.15701859       0.60187076      -1.50305782       1.05889317      -0.02216232       0.17087639      -0.03256870
H       10.89781589      11.24390362       6.54125224      -0.22591249       0.40287612       0.41449087      -0.24274860      -0.06310245       0.25766122
H        2.17701754       8.67706383       7.57889573       0.53088682       0.40888439       0.71539095      -0.07767918      -0.20480580      -0.02552142
H       14.80885814       4.74965654       6.92285215      -0.29824766       1.28877246      -0.92153520      -0.14454570       0.21419035       0.21075787
H        5.91462315       2.81434523       7.56096867       0.84891568       0.19586871      -1.23407732      -0.15806254       0.08531486       0.31780537
H       11.25421424      11.78506369       4.70967506      -0.54384839       0.59832162       0.32794379      -0.01762815      -0.01641609      -0.17966818
H        1.69986960       7.09732554       7.37904316      -0.34706951      -0.73324761       0.28248960      -0.24894899       0.12554727      -0.07581139
H       15.68911487       5.41212868       5.54549711       0.87125843      -0.19126656      -1.08425627      -0.01710734      -0.30507953      -0.07561798
H        5.33884427       3.64242100       8.95741644      -0.18908405       1.49615012       0.87382039      -0.38744384       0.02534455      -0.01949118
H       11.57119621      10.11538224       5.31788190       0.06324796      -0.58023437      -0.23158884       0.16232472       0.17686677      -0.00098448
H        1.40749912       7.82056947       9.07266886       1.46787651      -0.30820248      -1.11755907      -0.07097657      -0.25298123      -0.10541698
H       15.62035328       6.38973917       7.00604952      -0.28475627      -0.18527020      -0.36818845       0.23209632       0.12952158      -0.14320604
H        3.52968082       2.68442869       7.44919124       0.45230072      -0.87418485       1.28687382       0.20228797       0.11604463       0.10399279
H       12.76773553      12.45047097       6.53093507       0.94857765      -0.06905817       0.02361254       0.07277561       0.07088506       0.31944335
H        4.04236250       7.81117802       9.21780541      -0.80821940      -1.10977354      -1.08964969      -0.02300381       0.04886318      -0.05209632
H       13.97990854       7.21878347       5.24638986       0.86832985       1.08065445      -0.59293126       0.24291986      -0.20481260      -0.15129656
H        3.52231282       2.18282172       9.29173190      -0.02401942       0.28991711      -0.78530760       0.18471982      -0.03298677      -0.03877719
H       13.49198816      11.93184807       5.08585802       0.07124584      -0.33292901       0.24383251       0.02978534      -0.38188541      -0.07142137
H        4.17170426       7.00987781       7.68173769      -1.06531676       0.30244568       0.69251791      -0.00689869      -0.36858602       0.17588957
H       13.25785065       6.71973889       6.54259644      -1.20534757      -0.24954982       0.47219365       0.11369593      -0.11369511      -0.37644759
H        4.04594018       1.06676195       8.04424454      -0.01127506      -0.23907235      -0.28725039      -0.43009770      -0.16578712       0.19245003
H       13.44527757      10.78602050       6.51893126      -0.61955853       2.17083699      -1.50801544       0.09294542      -0.07962664       0.08333915
H        3.44041243       6.20291634       9.00981272      -0.11446647       0.65657444      -0.60036892      -0.10349974      -0.23367075      -0.00121572
H       13.33331376       5.70889336       5.07936940       0.07877814       0.69920925       1.25640810       0.04749743       0.15896980       0.02332676
C        5.43425396       2.69971940       8.50829907      -1.35438617      -0.08980683      -0.86199125       0.09334155       0.92289642      -0.01662096
C       11.55364277      11.19372594       5.64923290       0.63080481      -1.05942337      -1.47247923      -0.12781000       0.46303579       0.08161971
C        2.12257717       7.74799305       8.16499293      -0.40665244      -0.45219479       0.32325386       0.42439906      -0.76719303       0.32608695
C       15.04772318       5.69763290       6.33224175       0.15964019      -0.40467445       1.79543185       0.70681962      -0.24116395       0.88645606
Pb      -0.05744048       2.95690696       6.27665096       0.27824462       0.37665615      -0.21865950      -1.28059752      -3.42213557      -0.47190748
Pb      16.91055829      10.25576775       8.20587827       0.20621759       0.26024083      -0.32829822      -0.48843079       1.93046412       5.03696234
Pb       7.61806456       8.56005711       5.96405317       0.08844194       0.41018492      -0.29637241      -0.73150178      -1.75286706      -1.94621442
Pb       9.79372820       4.88873021       8.36985646      -0.27140951       0.39650980      -0.25804554       0.41250955       1.61263631      -1.53125109
N        4.02550742       2.11826926       8.30373026      -0.09377171       0.47302528      -0.03869125      -0.40265487       0.07594885      -0.23638810
N       12.95692015      11.61890777       5.93209286      -0.47405616      -1.06506436       2.22471969      -1.03432209       1.11182416      -0.62151417
N        3.50565771       7.14948110       8.50838808       0.38198253       1.37139742       0.89938152       0.92690330      -0.64832872       0.35777656
N       13.83475443       6.38126937       5.78280455       0.27043595      -1.95304862      -0.60028350      -0.98712623      -0.21208047       1.03991754
I       18.22517790       5.10394785      12.77493854       0.16499639       0.00174957      -0.16422256       0.48822184       2.82199913       3.36451238
I       18.37824220       8.54434188      10.40733052      -0.19458784      -0.19203366       0.11595863       1.78797304       2.51864367       0.68148209
I        8.84729764      10.54177166      12.87347475      -0.29464177      -0.15634991      -0.21345789       3.33021747       0.97252259       0.76065577
I        8.72628838       3.18610674      10.57461439      -0.09589747      -0.10331895       0.27739079      -0.49796291       2.18426022       3.03429297
I       16.10880619       1.67343976      10.80006561       0.33575429      -0.09394248      -0.36373140       0.11346214      -1.04334080       1.16246399
I        1.24982108      11.78384529      12.77834278      -0.08896946       0.00668897       0.11460841       0.75083036       2.26891269       0.07306932
I       10.75221705       7.00506035      10.78364576       0.19493742       0.12579540       0.19115541       0.74617363       0.97524391      -0.65173283
I        6.81112616       6.49105405      13.23766469      -0.08129281      -0.29967845      -0.07242052      -1.04694890       1.18891896      -3.20269920
I        2.99879814       4.27815523      10.64810579       0.04166884       0.27247438       0.07087241       2.14795625      -0.83973512      -2.89786547
I       14.19678260       9.26151435      13.10310243      -0.27074005      -0.31932177      -0.37719541      -1.08314361       1.12920660       0.87134215
I        4.85479260       9.58015653      10.95167291       0.10241002       0.16370802      -0.33487705       3.23023830      -0.50243586      -0.73551301
I       12.71741035       3.86792863      13.07431485       0.01363888      -0.20374840      -0.11258990       1.78559826      -3.31935318       2.88908323
H        5.25488409       3.12687170      11.85063277      -0.14640092      -0.60019927       0.34033279      -0.07675111       0.13699684       0.38769472
H       11.83901317      10.94043489      12.25150915      -0.61190486      -0.02808943       0.35014082       0.29285088       0.13124936       0.05900814
H        2.49824298       8.89790117      13.83876593       0.58559388       1.35676370       0.50906451      -0.06128475      -0.02743824      -0.13957903
H       15.50620546       4.80543437       9.58256042      -0.38596569      -0.05497897       0.43846637      -0.09761754      -0.10740265       0.09168731
H        6.01067879       3.75608319      13.93090535      -1.13543042      -1.22103881      -0.76984625      -0.11372969      -0.21877857      -0.03053988
H       11.52506104      12.79726699      12.09911724      -0.31078575       0.36479279       0.50571810       0.04776150       0.54531439       0.11836827
H        1.58066077       8.38071125      12.44233042      -0.42161631      -0.19469928       0.01046144      -0.35325954      -0.21057486       0.08689842
H       15.96727834       6.51196784       9.61747491      -0.32753335      -0.09062055       0.46601731      -0.19026484      -0.05865204       0.08859719
H        6.46672200       1.64488174      12.98544880       0.54548488      -0.64340842      -0.23345122       0.09320292       0.17218979       0.08144593
H       10.52390577      11.40567513      11.00544205      -0.96064910      -0.05219116      -0.02219597      -0.03206762       0.09331657      -0.00331068
H        1.61733877       7.44846555      14.04863870      -0.55398701      -0.67663189      -0.38844913       0.26139986       0.05239709      -0.04116953
H       16.29134684       5.50486944      11.09409519      -0.51723279       0.02812779      -0.74957849      -0.08850837      -0.06754475      -0.13963647
H        4.41915871       1.03540700      13.90541446       0.35137133       0.29255818       0.35634417       0.16710674       0.50498086      -0.14083449
H       12.61313481      12.70448925       9.84326452      -0.67721428      -0.53658244      -0.60481285      -0.18783764       0.30944692       0.06275756
H        4.14654387       7.89963221      12.46413519       0.51524997       1.42804275      -0.83416289      -0.07476422       0.14121984      -0.08657826
H       13.47704283       6.20951006      10.15412611       0.03600093       0.32862058      -0.37189516      -0.20632688       0.00166770      -0.02335536
H        3.63192748       1.75657056      12.74601613      -0.39919488      -0.07358288      -1.55564357       0.15194910       0.05022880       0.36967416
H       12.69377584      10.95331455       9.47317795      -0.21214608      -0.56638510      -0.00970606       0.00460455       0.15545398       0.10836000
H        3.07045274       6.57154526      11.98265185      -0.39861852      -0.60786275       0.09295994       0.05840181      -0.20188242      -0.28662030
H       14.29613597       7.03313029      11.41151867      -0.10045219      -1.65144023      -1.17185782      -0.21274439       0.19074072      -0.03007042
H        3.73636635       2.57064386      14.14353570       0.32453486       0.20050502      -0.10531918       0.07424364      -0.27614271      -0.29683846
H       13.75866498      11.89670618      10.65347200       0.50004062      -0.55147567       0.71637646       0.19251330      -0.09426213       0.13869110
H        3.80063279       6.53683646      13.61126587       0.32148552      -0.00267468      -0.04647700       0.15126178      -0.02507175      -0.25634789
H       13.78681517       5.38180798      11.51332879       0.65849853       0.07374277      -0.12831345       0.22816394       0.24125776      -0.05421431
C        5.60290582       2.60901276      13.04673767      -0.00063459       2.37218831       0.18982376      -0.43428211      -0.64979111       1.11927025
C       11.48803333      11.73968739      11.55245190       1.75415764      -1.29319280      -1.55563099      -0.34331689       0.37955541       0.31329328
C        2.18353964       8.03934986      13.29209922      -0.84690949      -0.45557345      -0.19182725       0.62673072       0.18096902      -0.27256205
C       15.57693671       5.68473845      10.24639041       0.03598496       0.47724731       0.40670123       0.26048102      -0.11549692      -0.09858814
Pb      38.36486040       3.02525528      10.46624709      -0.05693058      -0.26016937      -0.19466054       1.95109526       1.87218047       2.41211283
Pb      16.97834923      10.18944243      12.74542226       0.63529544       0.41745354      -0.16635168      -0.42399731       3.55511436       4.00198534
Pb       7.83477095       8.17364008      10.68624176      -0.11222119       0.63042140      -0.11267664       1.69733312      -0.09214274       5.78388699
Pb       9.84106455       4.87045646      13.24930637      -0.15877141       0.21707210      -0.21605775       1.93143006      -3.30116563       2.67675499
N        4.29744188       1.98323019      13.45730999       0.77069811      -0.26083889       1.81377977      -1.08670185      -0.01772171       0.73562587
N       12.66271818      11.74590180      10.28038987       0.54493325       2.67870210       0.49897765      -0.63680926      -0.25907851       0.32022072
N        3.34537387       7.24020935      12.80895221       0.59876501      -1.24631410       1.00468162       1.28795281       2.01976862       0.28638966
N       14.23152034       6.08775577      10.85020414       0.38056606       1.14468150       0.97682705      -0.09603268      -0.06109549       1.05385171
I       18.38962216       5.19260256      17.61290614      -0.51150508       0.27875082       0.08219796      -3.04479057       2.56531888      -0.12991115
I       17.72411984       8.15964283      15.05440923       0.07818122       0.10142889      -0.07970775       4.29671695       1.26540014       0.00951593
I        8.57440278      10.36789566      17.87216250       0.37910351       0.47319271      -0.36097848       0.31953927      -0.00162035      -0.49402962
I        8.63758184       3.31752965      15.81351062       0.02210068      -0.23622023      -0.26264860      -0.38474389      -0.96483575      -0.95571552
I       15.81877956       1.71943342      14.81022666       0.71155190      -0.03719104       0.32906048       1.44484320      -4.42116304      -1.73827947
I        1.10827726      11.68666489      17.85902835       0.02426766       0.04919296      -0.12918857      -0.24609643      -0.47886636       2.48435000
I       10.69602626       7.22970617      15.24106379      -0.08464664       0.34822691      -0.14236663      -0.10469631       2.05991261      -0.39047860
I        6.84843519       6.50120775      17.55887636      -0.04620169      -0.22480418      -0.24066157       3.63940489      -0.10275705      -1.97836405
I        3.06336544       4.60118986      15.64827866       0.24511280       0.04063381      -0.07651895       1.01028062      -0.94572796      -1.50123085
I       13.96888288       9.17203802      17.79013823       0.18527754      -0.13277463      -0.15458221       2.75518003      -1.73354775       2.01701093
I        4.80030604      10.10280749      15.56622543      -0.18390843      -0.25041801      -0.12553953      -1.08772630       1.38490726      -0.03115251
I       12.90488240       3.73299931      17.58413373      -0.41784797      -0.05114703       0.35726559      -0.04875564       0.52835783       1.82665145
H        6.34730649       1.09669999      18.67737255      -0.27134073       1.09251106      -1.12525213       0.07167313      -0.01659358       0.07231418
H       11.05300527      11.14343762      15.98778545      -1.05400277      -0.00922630       1.04482489       0.08279361       0.03508622       0.20266820
H        2.43810851       8.92413913      17.03271407       0.26298996      -0.33800038       0.71710003       0.07959694      -0.13601210       0.30633176
H       14.64396251       4.49821202      16.15101466       0.49370484       1.59047249      -1.29791054      -0.01819904      -0.08014797      -0.05672029
H        6.36333368       2.80498294      17.56429768       0.96544903       0.29186322      -0.45287303       0.17775653      -0.00006087       0.03089111
H       11.29396715      12.49726886      14.74791137      -0.65804771       0.72787933      -0.31385992       0.30399007      -0.18729341      -0.12071278
H        1.96139668       7.29901042      16.13853053       0.12560307       0.40718262       1.16020030      -0.19624205      -0.34671048      -0.02571632
H       15.82734411       5.15427470      14.82554104       0.43101898      -0.32457283      -0.74708646       0.05964443      -0.00642823      -0.27042389
H        5.87686889       2.82793234      19.53936419       0.23690549       0.96840467       0.09743691       0.09025987      -0.00333101      -0.16636358
H       12.12398938      10.94431300      14.53338728      -0.49524966      -1.77467250      -1.11906977       0.19180378      -0.00412383      -0.08813052
H        1.13913299       7.75853871      17.91638996       0.03808379      -0.23043842       0.81545521      -0.14701556       0.01778716      -0.12860259
H       15.68308622       6.04420074      16.35091692       0.56071007      -0.08558660       0.12482847      -0.51595104       0.03843793       0.09531131
H        3.97221097       3.19403826      17.84310727      -0.51300840       0.18322975      -1.08246901      -0.01045584      -0.00270095       0.37028641
H       12.75536534      12.81329730      16.70983918       0.42773145       0.66947177       0.00308426      -0.02511407       0.03586495       0.01990062
H        3.56796704       7.88863825      18.76816983       0.35473229      -1.16169372      -0.20187284       0.17017017       0.00383138      -0.09478917
H       14.64427735       7.20063813      14.46962229      -0.92383332      -0.41190039       0.57946730      -0.02780952       0.21093005      -0.10030669
H        3.92008596       1.62962595      18.81799967       0.91605885       0.66528199      -0.99761200       0.36509619       0.08364060       0.21047616
H       13.60730103      12.52981534      15.17398953      -0.13652907      -0.27455427       1.42075720      -0.08923996      -0.23059413      -0.03120004
H        4.01547950       7.07632106      17.26341740       0.11925472      -0.01571462       0.86838387       0.44160431       0.17875127       0.25084929
H       13.44546388       6.92357888      15.80230788       0.55153117      -0.09468848      -0.72559766      -0.19750477      -0.29170301       0.16200174
H        4.25025474       1.43693029      17.10092042       0.56433094       0.60505358      -0.35247517      -0.03805100       0.20110929       0.03525924
H       13.30432823      11.22938389      16.44618180       1.06935169      -0.08353155      -0.17732449       0.05555800      -0.10867782       0.19791444
H        2.96013013       6.20776801      18.38427737       0.59404468       0.42951349       0.05683823      -0.27110424       0.13735655       0.00852448
H       13.36991888       5.84249806      14.42754514       0.01025994       0.20848371       0.35412715       0.14881556       0.32049981       0.11191510
C        5.90941249       2.25308132      18.44505716      -0.44828934      -2.33208615       1.48946130       0.04830499      -0.69587412       0.17612343
C       11.69601674      11.65254982      15.25901465       2.34540493       0.49975985       0.06598970      -1.28136864      -0.43188814      -0.26136144
C        2.16191468       7.81589688      17.32248127      -2.03172796       0.38568818      -3.79704267      -0.59353188       0.20792485       0.91354228
C       15.13140109       5.43698740      15.58586323       0.29080788      -1.50134179       3.39449903       0.84344646       0.50711002      -0.20710820
Pb       0.31880534       3.14370062      15.60266571      -0.20252016       0.08534073      -0.03212159      -3.97955140      -1.47995935      -2.23134449
Pb      17.19151700      10.10580773      17.46239257      -0.09443425      -0.04918482       0.39797632      -0.51050533       0.54582019      -3.18472630
Pb       7.55854892       8.95935600      15.21470506       0.39762140      -0.48107064       0.17902362      -0.62416201       1.75488849      -1.35027910
Pb      10.04976465       5.24077435      17.69921465      -0.16737195       0.32270502       0.23546468       5.48586441       3.27915295      -2.97944364
N        4.45182299       2.15587376      17.97165434      -1.43970792      -1.67724732       2.28517087       0.63590526      -0.49556909      -0.63265514
N       12.98804702      12.09798195      15.94946238      -1.59062202      -0.08182765      -1.29643352       0.58733170       0.33462675       0.55891339