768
Lattice="31.343885341238796 -0.47746557187201905 -1.6062135899949226 -0.40744855527168355 29.62807268781774 -0.02279442302894619 -1.4504438450383712 0.04122985736401602 17.113936445534993" Properties=species:S:1:pos:R:3:forces:R:3:momenta:R:3 energy=-3337.905078758281 stress="0.0 0.0 0.0 0.0 0.0 0.0 0.0 0.0 0.0" pbc="T T T"
I        6.57225863       0.99488184       2.20402704      -0.01634881       0.04449780      -0.09528673       0.74857408       0.30939454      -1.16244592
I        1.24554367       6.28033222       1.91619933       0.20033744       0.09412039       0.19876464       2.47906763       1.80994552       0.32903608
I        5.79520737       1.47721000       6.20634222      -0.36483666       0.01195567       0.05889856      -0.59727066      -0.08897140       0.46448486
I        1.27246324       5.97302363       6.23913345       0.42942738      -0.14452383       0.53732188      -0.54432374       0.52951556      -0.75289318
I        5.27601984       4.76240207       3.50317482       0.07639136       0.23500229       0.24657527       0.58974834      -0.34609797       0.70877800
I        1.95705574       2.64972830       9.15635715      -0.03854956       0.12797440       0.05232854      -0.42517830       0.53205197      -1.31307359
H        2.52280502       3.81670779       4.76821552       0.43554474      -0.06848005      -0.40884361      -0.00930621       0.09557593       0.23376072
H        4.12709936       4.90044837      15.51666080       0.05939569      -0.42819463       0.93406467       0.08809284       0.02559043      -0.02534860
H        1.03028282       2.88927278       3.59386804       0.37034097       0.25205018       0.38458851      -0.05154192       0.10975031       0.07525337
H        5.24736682       4.65788494      16.86794556       0.50774363       0.15256770       0.65166784      -0.16646760       0.18784121       0.08906740
H        1.43960392       2.24343155       5.54705930      -0.00658041      -0.03091197      -0.05676051      -0.14447706      -0.15287844       0.02617151
H        3.72309981       3.68499483      16.81119044       0.07996784       0.58868268       0.03906513       0.14356247      -0.07616377       0.00231132
H        3.08655718       1.97850334       2.84452711      -0.02038901      -0.00701707       1.01218047       0.02597850       0.04467764      -0.03162130
H        4.01359884       6.68823535      17.29182900      -0.16151236      -0.57474694       0.08512324      -0.12633913       0.04078963      -0.13563325
H        2.38208058       0.81995504       3.92989572      -0.01312925       0.22745515      -0.19981769      -0.19333825      -0.12052327       0.00083923
H        3.16691123       5.50223268      18.29647627       0.51790028       0.07309883      -0.51581956       0.00610057       0.04228564      -0.10485475
H        3.76003955       1.63632571       4.45972624       0.09434146       0.31348679       0.01773450      -0.04390868      -0.11259000      -0.02035542
H        2.53608248       5.99103405      16.75699126       0.15683878      -0.11418740      -0.21811297       0.00986549      -0.07835099      -0.31143613
C        1.92320934       2.76528050       4.48524310      -1.05825953      -0.37888058       0.13542380      -0.48713042       0.13272590       0.74970192
C        4.18877816       4.67363135      16.62348904      -0.27966560      -0.42643751      -2.26629346       0.38810365      -0.01893659       0.04731173
Pb       3.98107930      15.00664345       8.37071955      -0.38390110      -0.05463584      -0.01089649      -0.88717363      -1.63245212      -0.16584829
Pb      -0.08722123      15.10830088       8.67276576       0.25475177      -0.09801053      -0.38256149       0.47060356      -0.33673983       0.19925908
N        2.85366138       1.77085069       3.89501250       0.25115026      -0.44525612      -0.83119852      -0.00364541       0.51549412      -0.15931660
N        3.46058285       5.75813591      17.27196929      -0.68571548       0.88732987       1.29574558       0.25609406       0.61207031       0.28383611
I        5.37823465       8.60225016       6.51277567      -0.12207221      -0.15127006      -0.14288321       1.23892431      -0.51240809      -0.44657412
I        1.87261232      13.91166196       6.08868832      -0.05048253       0.05062073       0.16719267       1.25036355       2.55102748       0.27766650
I        5.16722409       8.98869533       1.88251866       0.08546689      -0.09780872       0.37753106      -2.06790627      -1.50892057      -0.16873526
I        2.77594937      13.07918683       1.78633969       0.06348362       0.10026152       0.08373290       1.82871935      -0.44765081       0.67999036
I        4.98602288      12.24974600      16.76524214       0.15919042      -0.06577445      -0.12209534       1.52785906      -0.63539738      -1.15688667
I        1.58054164      10.00969767       4.29467338      -0.02932031       0.06472425       0.19690097      -0.58317916       0.32977137      -1.41482795
H        1.20362031       8.67600079       8.04951469      -0.04355070       0.05118826       0.19674513       0.03320379      -0.01315733      -0.05943907
H        5.97460979      11.31967420       4.82689230      -0.00186324      -0.27207694       0.07870726      -0.03779505       0.19766346       0.03829781
H        1.23789840       9.59275979       9.63865405       0.07083130      -0.32687987       0.24431662       0.08288615       0.12652576       0.11223200
H        6.51192975      13.00199070       5.21224705      -0.03606849      -0.00930522       0.22803480      -0.00192102      -0.00999528      -0.08726667
H       -0.01536289       9.99456902       8.45893474      -0.60926346       0.37040528      -0.40966625      -0.03054295       0.14417581       0.08457207
H        4.97844572      12.75380154       4.26148069       0.92430691      -0.32791364       0.05800035      -0.01794687       0.11668972      -0.20165676
H        1.92014466      11.63411133       8.44737580      -0.11030531      -0.19934065      -0.19959880       0.01838401       0.00941376       0.12629168
H        7.82853447      11.98867452       3.39499877      -0.32143511       0.10223477       0.09931606       0.04311423       0.00736953      -0.21099115
H        1.82159531      10.77986043       6.94375334       0.28392687       0.19496988      -0.25671453       0.34494005      -0.10660388      -0.12417235
H        7.04989834      13.44543751       2.90276796      -0.28440924      -0.69900639       0.39461932      -0.06705675       0.05002157       0.17019564
H        2.95080757      10.33292415       8.13895212       0.44341049       0.08965589      -0.24284110      -0.00915173       0.14490461      -0.09689680
H        6.50393522      11.92076549       2.38452252      -0.12360823       0.22403594       0.33032973       0.00062635       0.03038972       0.15019992
C        1.02271266       9.64688006       8.57078594       0.92198174       0.39196518      -0.07289868       0.52766941       0.20606882      -0.35684729
C        6.01053460      12.35204269       4.48830092       0.16750560       0.71483345      -1.66939289       0.10300471       0.25059078      -0.20390955
Pb       3.42994546       7.28682986       4.17158590      -0.00998465       0.06293474      -0.22744796      -1.49958958      -1.69055922      -0.98773311
Pb       7.27761152       7.48611037       4.07269103      -0.13513073      -0.30861253      -0.29787916      -0.39946419      -1.29428478      -0.75636286
N        2.00381996      10.69832901       7.96186592      -0.86262591      -0.56307503       0.66634232       0.27476698      -0.35207671      -0.02969004
N        6.89278426      12.42697459       3.21589378      -0.57674042       0.16762841       0.34962367       0.62889536       0.03770751      -0.50075890
I       14.63217135       0.73725447       1.90499796      -0.17390619       0.08015525       0.00091172      -0.24071762       0.18789476      -3.29800520
I        9.02792343       6.12563241       1.69570850       0.07226998       0.27091948       0.22251125      -0.92237538       3.20351479       0.80300503
I       13.83695886       1.65345747       5.81965943      -0.24797168      -0.15399379       0.13329017       1.22770289      -3.40783993       1.34420111
I        9.29872454       6.15194057       6.10862605       0.03886239       0.09292134      -0.15482363      -0.80188611       0.30053326      -0.72222088
I       13.02995426       4.80865655       3.12260307      -0.08197002       0.11702097       0.08393993      -0.76110386      -0.28846494      -0.36987222
I        9.79313099       2.66275303       8.45936450      -0.08923531      -0.12787155       0.14805883       1.18884939      -1.35261135       0.72379047
H        8.67502751       2.00915700       4.09860003      -0.13412705       0.04200820       0.16076130      -0.27590331       0.10690427       0.06428123
H       11.86637912       5.29275340      15.07502393       0.35048445      -0.06155424      -0.34136406      -0.05004335       0.15890596      -0.13485166
H       10.03309604       2.81461895       5.33650297      -0.08517489       0.09070969       0.00583246       0.05678254      -0.12656838      -0.02284488
H       13.09463325       5.41454864      16.45364285      -0.87032074      -0.04005099      -0.09036699       0.07707215      -0.02750454       0.12013350
H        9.60314163       3.71178289       3.57036047       0.20202010      -0.26453132       0.15577285      -0.06526960       0.09607081      -0.00192364
H       11.80560061       4.03422659      16.34910688       0.35828032      -0.36514700       0.07666789      -0.10738704      -0.01426774      -0.02237108
H       10.89564354       1.81325501       2.64796966      -0.18242501       0.25858095      -0.12849424       0.00662868       0.05927511      -0.10184959
H       10.00905210       5.82941879      16.36562213      -0.11042687      -0.21813413      -0.13151936       0.02825109       0.15597407      -0.18771725
H       10.55746284       0.76407311       3.87007863       0.01037465      -0.55797282       0.37589510       0.00241986      -0.01444627      -0.09576851
H       11.27018499       6.87189380      16.73281757      -0.22245600       0.72802655       0.37086888       0.11770911       0.09572796      -0.00474710
H       11.75533367       1.95987515       4.09854560      -0.51133998      -0.14578396      -0.06128667       0.17695980      -0.02463012       0.19178338
H       10.88172373       5.60871587      17.83047443      -0.10569552       0.38284174       0.09890436       0.09886838       0.10742607      -0.10722932
C        9.71428663       2.63927964       4.22546167      -0.25910845       0.37212102      -0.24939989      -0.17432168       0.28301004      -0.49549283
C       12.03783488       5.09465498      16.14202379      -0.44869374      -0.18948343      -0.15498563      -0.09576645      -0.03002977      -0.07919076
Pb      11.64658333      14.98698041       7.83303705       0.25850863      -0.29550216      -0.12568049      -0.28136589      -1.61621997      -2.78737403
Pb       7.72690293      14.89424160       8.26594590       0.14251160      -0.13176939      -0.19842543       0.11535073      -0.25585537      -0.32311743
N       10.79755057       1.74537642       3.68439432       1.01337463       0.28290840      -0.28682241       0.42631494      -0.46975551      -0.21834822
N       10.94038679       5.90735342      16.82748506       1.22639057      -0.32572070       0.16421226      -0.36384360      -0.85571954       0.24662512
I       13.42122193       8.35783253       5.95374750      -0.06898878       0.04084222       0.08068731      -2.20498018      -1.18137169      -0.39667566
I        9.43369735      13.85779303       5.62808429       0.17185582       0.04253466       0.09008910       0.54301311       2.63086460       0.46724189
I       13.27337045       8.84910031       1.63749874      -0.08855129       0.41987596      -0.12931505      -0.78665922      -1.21427432      -0.83581291
I       10.76248721      12.93423747       1.37716789       0.12582656       0.31318186      -0.16420283       1.29315176       1.98163488       0.39408827
I       13.08918891      12.37442105      15.91878402      -0.03430623       0.11371774       0.19590153      -1.45152092       0.27220950      -1.62390111
I        9.17843755      10.01329882       4.04182987       0.20933341       0.01852814       0.05770319       1.40453386       0.31581889      -1.08741006
H        9.00894022      10.39358798       9.14017562      -0.18131392       0.14002175      -0.55472312      -0.00796427       0.00262300      -0.05664842
H       13.15969917      12.44178224       3.72334722      -0.41087323       0.09251152      -0.55978474       0.08094922      -0.16918103      -0.05598102
H        8.22188605      10.56705710       7.36039653       0.20131438      -0.06439326       0.42459142       0.00767250      -0.05694222       0.09062268
H       14.34820287      11.04336818       3.90219718       0.21598327      -0.22836113       0.14994715       0.01328446      -0.18533200       0.19777357
H        9.10182647       8.99823713       7.90910339       0.33532678      -0.72289508      -0.44767901      -0.14936371      -0.17150917      -0.01563220
H       14.62697405      12.72432527       4.59967421       0.30231036       0.05339931       0.43067322      -0.07516216       0.02169753       0.04992840
H       10.46773783      11.70586981       7.68617216      -0.35214156      -0.04946931      -0.30579079       0.09858190       0.05482250       0.02270356
H       14.50637757      12.15284473       1.67179187      -0.02095172      -0.83100333      -1.14796155      -0.03112351      -0.13527373      -0.30379602
H       10.35008475      10.57043249       6.34671600       0.33817280       0.12468500       0.53893555       0.14241832       0.07420170       0.01640203
H       15.98123873      12.26373054       2.47954195      -0.34413477       0.04878627      -0.09763974       0.15278133       0.14690227       0.04944927
H       11.14327930      10.20047738       7.88910131       0.74882650      -0.26735125      -0.34310747       0.09510437       0.06394009      -0.08456210
H       14.90256082      13.60384859       2.22353544       0.04517634       0.69027145       0.15052791      -0.14688514      -0.05460229      -0.11083822
C        9.09331367      10.12045175       8.00054627      -0.77955698       0.79595394       0.70365818      -0.70228000      -0.02536693       0.75756534
C       14.23721689      12.15479579       3.75060263      -0.03786355       0.54826560       0.59612488       0.49114330      -0.38348771      -0.36757894
Pb      11.25206128       7.50016833       3.76385751      -0.25843164      -0.43342879      -0.05762653       0.19834488      -1.82072234       1.88974741
Pb      15.14160069       7.23965130       3.39774757       0.15686678      -0.04179353       0.19837915       2.38904984       1.85616918       0.11878505
N       10.34935219      10.69741994       7.41251857      -0.38470478      -0.26863469       0.13716745       0.61001312      -0.29028939       0.67303281
N       14.96085782      12.58302865       2.46839011       0.24628729      -0.38701252       0.27771286       0.83421703       0.63445964       0.18709601
I        5.72048760       0.78219458      10.94001251       0.07964432       0.02382459       0.10490399       2.06741091      -0.50125020       1.42900266
I        0.15723964       6.54618301      10.81903401       0.29280790      -0.13884860      -0.40477133      -1.30608676       0.17921227      -0.59097989
I        4.94187652       1.52800990      14.99414985       0.00802233       0.17859013      -0.44548441      -0.11253907       1.83922045       0.65912662
I        0.83045725       6.13900211      14.97867413       0.07162248       0.07262852      -0.07795574      -1.76735935      -0.19872040       0.88921781
I        4.45072063       4.90650472      12.13361298      -0.11932017       0.39458515       0.01719174       0.29839499      -1.16039215      -1.80908074
I        2.75710148       2.48519857       0.33961784       0.00384316       0.10102592       0.09086992       1.22241677      -0.56388189       0.19840385
H        2.25166170       3.50211115      13.75700071       0.39163935       0.12527768       0.23468728      -0.08485270       0.05031163      -0.09253639
H        5.49037099       4.81393207       7.17047943      -0.28853952       0.13287301      -0.36863670      -0.09770144      -0.13255039      -0.13959769
H        0.63244619       2.79271040      12.83099276      -0.11400009      -0.15887132       0.00840258      -0.03388941       0.24910150      -0.20919037
H        6.37070609       5.27387658       8.67756105       0.73541500      -0.48276286       0.63097460      -0.09568580       0.11010345       0.20704387
H        1.29877505       1.79861873      14.55047234       0.14656065       0.33132800      -0.14124873       0.04649437      -0.16411991       0.17244250
H        5.16528701       3.82987386       8.58109211      -0.21138510      -1.22227235       0.55178718       0.06071429      -0.12398805      -0.01956210
H        2.45661981       1.97209317      11.61160090       0.43444775      -0.04769239       0.79903752       0.05865860       0.06147846       0.07756190
H        4.43600497       6.83069704       8.45118519       0.23839452       0.27407476      -0.67973053      -0.23144164      -0.05847593       0.18467454
H        1.79608014       0.58509669      12.45736758      -0.45995208      -0.76474663       0.12337823      -0.09371477      -0.11141183       0.13582679
H        4.23285190       5.81950669       9.72591426      -0.21827551      -0.39310196       0.40921352      -0.06130739      -0.00389668      -0.05611440
H        3.25371303       1.21474416      13.19908670       0.21401736       0.32227714      -0.47105695       0.00508088       0.09691671      -0.04385557
H        3.34727461       5.44179015       8.22037142       0.61294273       0.49705896       0.39762892      -0.06781676      -0.20073258       0.13032842
C        1.60565171       2.47649846      13.51227848      -1.02015276       0.12191924       0.19427374      -0.19765772      -0.27547140       0.48091306
C        5.41054762       4.82501910       8.27787486       0.12652881       1.73920204      -0.97971794       0.03741103       0.13274105      -0.53594721
Pb       4.70866901      14.83865647      -0.32916822      -0.16229283       0.08115594       0.35600692      -0.95754134       0.09071995       0.14928645
Pb       0.63477626      14.88206383       0.33577199       0.13765930       0.09284349      -0.12084377       0.31138440      -1.58359047      -0.03746189
N        2.33633432       1.52333653      12.62782478       0.22871846       0.03953944      -0.88478962       0.17441148       0.26311046      -0.41253475
N        4.29567178       5.81055310       8.67755309      -1.16179020      -0.59139525      -0.15030894      -0.38164741      -0.11004211      -0.05619807
I        4.57390543       8.47325158      15.13134877       0.01384551       0.09441625      -0.09806660       0.59802517      -1.21502714       0.12029604
I        0.83438748      13.98423210      14.83887375       0.00817241      -0.10618730      -0.24711630       1.39550952       1.10976711      -2.61534776
I        4.45340502       9.21811289      10.49271772      -0.03184257      -0.04548662       0.02379108      -1.73947368      -0.42915400       1.02554490
I        1.93401549      13.34755397      10.46337669       0.04552985      -0.09320926       0.08103539      -0.36872630       0.90416047      -0.72021898
I        5.72513512      12.33528906       8.19283859      -0.04855230       0.09962359      -0.02974774       1.71237559      -0.11824404      -1.47180417
I        0.56936829      10.14672013      13.19599128       0.11652524       0.13319917      -0.09251488      -2.20392346      -1.24793169       0.87919989
H        1.53213249       8.78994232      -0.09138894      -0.20245066      -0.50908029      -0.18615136       0.03851567       0.09834488       0.16462507
H        4.63252040      11.29970436      13.12903007       0.63167443       0.38940282       0.10908819      -0.02803359      -0.02353926       0.05216105
H        2.03474754       9.92156980       1.26691892      -0.10019943      -0.15117723       0.13889748       0.08005625       0.03536958       0.01692028
H        5.63417486      12.87341234      13.82164934       0.12089074      -0.43418581      -0.02049139       0.22368060       0.24789082      -0.02823266
H        0.85605384      10.49211714       0.03657586       0.38778213      -0.11833543      -0.11904269       0.03591187      -0.12662711      -0.14323750
H        4.01507785      13.04387947      12.91651622      -0.01461497       0.37939618      -0.77262761      -0.09355176       0.03950123       0.09953162
H        3.22950657      11.28411259      -0.24543222       0.20883768      -0.57915448      -0.33110140      -0.09378763       0.02090591      -0.24697060
H        6.68780411      11.90509786      11.88084703      -0.34460235      -0.22948659      -0.33055286      -0.11582183       0.05207489       0.07006234
H        2.78644031      10.32312699      -1.64439794       0.14580809      -0.18304184       0.27744384      -0.04047932       0.13776190       0.05016496
H        6.07315111      13.46163032      11.55688071      -0.12054505       0.57057428      -0.82156193       0.21324960      -0.05431362       0.02312613
H        3.77757495       9.62900554      -0.38596767       0.10195166       0.31863406      -0.29291070       0.04759114       0.07884043      -0.13771811
H        5.24251020      12.03688228      10.88867190       0.36317294       0.20919347      -0.19418549      -0.24697417      -0.09072539      -0.10891423
C        1.74939475       9.83816401       0.19401463      -0.33904269       0.32538493       0.15131216       0.60163261       0.16818039      -0.37257751
C        4.99741836      12.42349102      12.96321110      -0.53291538      -0.47889300       0.86956813       0.54196242      -0.60161630       0.60602455
Pb       2.63684371       7.72022348      12.65326348      -0.12953722      -0.50757476       0.23907902      -5.35296072      -0.03787088       0.23730214
Pb       6.40590280       7.55311194      12.57292863       0.01345766      -0.33803026      -0.04704844       0.99067890      -0.13493756       0.20538256
N        2.97675819      10.29588200      -0.60274855      -0.22743905       0.89562656       0.43894884      -0.03870854       0.13370802      -0.21347138
N        5.79160819      12.45133758      11.70379032       0.00307297      -0.44615730       1.23682596      -0.08876441       0.89074668      -0.11044051
I       13.56586549       1.11488933      10.33681442       0.05991838      -0.00042791      -0.10015012       2.31032529       0.69582502       0.13658802
I        8.20685353       6.46727554      10.26178773       0.11393138       0.03089642      -0.10764782      -1.78417596      -0.77292599       0.52288112
I       12.89927855       1.64995087      14.38260383      -0.15310266       0.00322352      -0.01072814       0.43863508      -0.00431785      -0.30873973
I        8.47219462       5.84833103      14.52592576      -0.33424139       0.08571865       0.13399968      -0.57757367      -1.81847229      -0.86387477
I       12.41311281       4.93033430      11.73775137      -0.03775605       0.04739184      -0.07069933      -0.80317336      -2.33377453      -0.42064261
I       10.45289248       2.68317977       0.17456346      -0.06267266      -0.27407705      -0.03043376      -1.22916789       1.01675528       2.03417753
H        7.95053514       2.74800890      12.01301151      -1.46346660       0.11484060      -0.28488227       0.00113874      -0.07234905       0.04729744
H       12.90404961       4.87004188       6.43191467      -0.11237769      -0.06250234      -0.12023286       0.03744387       0.13551874       0.12564519
H        8.79352514       2.81969144      13.57012572      -0.06127099       0.15511260       0.41214876       0.07579820       0.11084587      -0.03301234
H       14.05868799       5.15634437       7.79744451       0.82353564       0.00852482       0.31259861      -0.02453530      -0.25505701       0.05233258
H        9.21870512       3.96246429      12.25847978       0.30601809       0.05976577      -0.22663394       0.02662804      -0.00810722      -0.05393938
H       12.83137233       3.81189224       7.94901874      -0.28523155      -0.03135535       0.05349125       0.05349989      -0.04523687       0.09918726
H        9.84814600       1.96605482      10.88932930       0.10532895      -0.45375604       1.84318448       0.03389300       0.04941371       0.11273093
H       11.16791711       5.79014544       7.80345512      -0.86450453       0.06144499      -0.28237300      -0.24674791      -0.04743327      -0.05883378
H        9.53912722       0.93900418      12.32211864      -0.14616499       0.31444160      -0.20925101       0.01471428      -0.19229257      -0.16470377
H       12.54580930       6.80616257       7.71216907      -0.66873649      -0.09440079       0.21263353      -0.03050220      -0.09004711       0.02130078
H       10.75096388       2.05404930      12.38116338       0.25147566       0.04461165      -0.16287928      -0.03111902      -0.07454941       0.13141796
H       12.18468482       5.94529236       9.19623411      -0.04130230      -0.20982147      -0.35707713      -0.00033965      -0.02611163      -0.15486991
C        8.87747711       2.95884070      12.49126692       0.61018855      -0.53061238       0.47765122       0.06453471       0.37873069      -0.75384579
C       13.03542067       4.84122486       7.53527928      -0.71885327       0.07480358       0.08001101      -0.38262094      -0.30763270       0.09886942
Pb      12.55476046      14.88362868      -0.81234180       0.02666420      -0.05382759       0.20001849       2.02076730      -0.25389401      -2.13083591
Pb       8.58585324      14.67788233      -0.40774191      -0.03980754       0.08380208       0.23178297      -1.70983293       2.63871173       2.41911476
N        9.80534991       1.90523017      11.99381493       0.58273333       0.22346943      -1.85504084       0.60660637       0.66291488       0.16548685
N       12.12703635       5.89678604       8.12250786       1.91058436       0.17792177       0.37964606       0.32235634       0.16396496      -0.51181607
I       12.39966518       8.61170473      14.63328082      -0.00315235      -0.12789077       0.12975836      -0.62833948      -0.05326340      -2.06718544
I        8.85262978      13.75010762      14.25379843       0.02674780      -0.06103262      -0.31695832       0.38889791      -0.95220541      -3.22364490
I       12.21774336       9.08652246      10.39821948      -0.05664630       0.00299064      -0.23808178       0.98377123      -1.41062052      -1.25654875
I        9.87748088      13.25724817       9.99142411       0.08633181       0.00566359       0.13954236      -0.17547014      -1.38832184      -4.39742541
I       13.44422723      12.06607735       7.39700536       0.00533306       0.45884815       0.07914594       1.19099099      -1.61646603      -0.38405458
I        8.40935047       9.88121521      12.52938890       0.00352892       0.52289641       0.13579804      -0.64750344      -1.33181497       1.88831687
H       10.37051996       9.61701609       0.73146883      -0.31297264      -0.27160503      -0.41233764       0.02272659      -0.11749575      -0.14724302
H       12.40606893      12.92494627      12.03445546       0.44698277       0.12431726       0.23334952       0.09387948       0.02902973       0.17154919
H        9.09232357      10.05189636      -0.51415176       0.04803166       0.04196445       0.07781161       0.21137316       0.02590018       0.12313919
H       13.11523627      11.17046875      12.26867817       0.13054930       0.27607692       0.27263182       0.05061259       0.08108662      -0.11202151
H       10.00206094       8.53110053      -0.72835624       0.23143529      -0.13949865      -0.06205087       0.04464795      -0.11106840       0.05945858
H       14.02869294      12.71428693      13.09426404      -0.13139753      -0.19911124      -0.17604273       0.19776384      -0.06486717       0.03540754
H       11.27321587      11.30851854      -0.63151041       0.03344592      -0.75474142       0.08961238       0.00152488      -0.11653892      -0.02914623
H       13.70724436      11.93392712      10.12738816      -0.58575365       0.20681264      -0.23925142      -0.04668896       0.05662583       0.04876209
H       10.76868296      10.55764544      -2.11315163       0.10938207      -0.06797985       0.03631953       0.01723025      -0.05357564      -0.01354753
H       15.01548898      11.78713816      11.06984477       0.51029153       0.25169943       0.17709688       0.14934813      -0.07002009       0.05948880
H       12.09788804       9.84016790      -1.24097956      -0.16831744       0.14884461       0.22494054      -0.08202640      -0.22456908      -0.06923327
H       14.42610505      13.38465525      10.66352988      -0.17418016       0.32597491      -0.01516693       0.25620951      -0.04451826      -0.17766424
C       10.06306119       9.55401680      -0.35327237       0.71398728       0.88874276       0.57664079       0.49045023      -0.47535410      -0.01970004
C       13.38794230      12.32246037      12.18311985      -1.21054634      -0.16761924       0.14936382      -0.00570994      -0.73288729       0.17350984
Pb      10.36384033       7.29014708      12.55880678       0.28318653       0.10083892      -0.42664452      -2.66053127      -1.56339795       1.78052291
Pb      14.44608519       7.47349518      12.08592944      -0.55506634      -0.05494098       0.09433329       1.48508232      -2.59605073       0.59536051