768
Lattice="38.36233378009021 -0.17091669423460434 -0.23415642229604455 0.13860846621712591 21.550492846406996 -0.023849043928523623 -0.012701609790407587 0.03213069133637567 18.81004073834508" Properties=species:S:1:pos:R:3:forces:R:3:momenta:R:3 pbc="T T T"
I       18.72098881       5.18537680       3.01466858       0.02931549       0.14684154      -0.09672410       0.29828535       0.45087446       0.76690833
I       18.43963457       8.90372091       0.77168981       0.30736425      -0.43504244      -0.08229615       0.19410527       3.39637403      -1.07026348
I        8.86451317      10.68176562       2.84295283       0.19392255       0.04464574       0.11887418       0.53424593      -0.31683105       0.55861643
I        9.56935100       3.33294542       0.65706733      -0.31952764      -0.13163038      -0.10362344       0.86779108       0.53037142      -0.90754561
I       16.75469648       2.06160296       0.60211489      -0.05832056       0.12092605       0.05765410      -0.84126257       0.85841581      -0.22433981
I        1.69789585      12.12250268       3.19471587      -0.14362828      -0.03051531       0.05991271       1.63046960       0.19849874       0.68815095
I       11.14881620       7.62992261       0.66185724      -0.30218696      -0.23055231       0.04361501       1.96304747       0.30114637      -1.08438002
I        7.11969396       6.66392678       2.82255660       0.08278195      -0.26125595       0.05640461       0.20975893       0.56335992       1.03239570
I        3.52877038       4.74176204       0.49651418       0.05678489       0.08974147       0.18500263       1.36302127      -1.06780411       1.58252159
I       14.86016235       9.36963242       3.09491815      -0.01505051       0.13708711      -0.00506486      -0.73561750      -1.18985209      -1.63968947
I        4.90646890      10.25423144       0.55029615       0.30058443      -0.03189887       0.18483321       0.20998283       0.44895493      -1.30222187
I       13.20565518       4.09576795       3.30098107      -0.06403512       0.00330951      -0.07059570       0.13218982       3.40483553       2.19448446
H        6.24120519       3.61488366       1.95703034      -0.03422110       0.09619531      -0.08759580      -0.12347746       0.10169609       0.03395457
H       12.35870411      10.49595755       1.86271578      -0.34339911      -0.19008117       0.17949425      -0.08917777       0.06584617       0.08717343
H        2.61116695       8.70328628       4.05650513      -0.14176714       0.52470900       0.26606021      -0.10995109       0.04224270       0.09759658
H       15.56475534       5.20224431      18.30389848      -0.53715437       0.48979816       0.10253026       0.04378078      -0.07746684      -0.02302862
H        7.09261499       2.95932020       3.38268712      -0.42218576      -0.51770140      -0.75329699      -0.02738718       0.13704367      -0.00752084
H       11.75401903      12.22289492       2.24157039       0.03172476      -0.71411138      -0.40465170      -0.21852762       0.06748483      -0.23879271
H        1.97981952       8.51289095       2.29712632      -0.50668690       0.16360392      -0.61021394       0.09177443       0.07057320      -0.24562691
H       15.97931235       6.96117147      18.25719126      -0.03709645       0.34157377      -0.34382076      -0.14436168       0.08702418      -0.06735172
H        6.57950124       1.85274883       1.94365032       0.43643436      -0.37066916       0.01106114      -0.05340000      -0.03876200       0.00965011
H       11.22588804      11.38177956       0.66320222      -0.12258517      -0.07639166       0.29743813      -0.06801417      -0.24260554      -0.23045250
H        1.87766749       7.06422590       3.46348749      -0.39432146      -0.52361921       0.56209335       0.05373533      -0.08127549       0.19554035
H       16.71360334       5.82963786       0.72037688      -0.63066261       0.25127194      -0.17435723      -0.14900286      -0.00885898       0.06128265
H        4.99039662       1.62118944       3.86115528       0.28523659       0.30503658       0.28932766       0.09512952      -0.10856886       0.09972995
H       12.94790251      12.86225525       0.08329639       0.48798054      -0.95095597       0.54185076      -0.12549665      -0.08953692       0.05115871
H        4.21629597       8.32908665       2.17515246       0.97873215       0.61096820      -0.27057010      -0.03677399       0.09493115       0.00036593
H       13.70333277       6.85389720       0.48593618       0.39732649       0.06537084       0.79419632      -0.27195576       0.12450005      -0.06254960
H        4.30037533       2.14264902       2.48994828       0.38824478       0.42359338       0.36247414      -0.02906953      -0.10108282      -0.05561054
H       13.55805170      11.25307366       0.07104621       0.83370109      -0.14017503      -0.35096706       0.02301306       0.01123255      -0.02514203
H        3.68721686       6.72479123       2.15601147       0.44022853       0.48077969       0.05552139       0.00814807       0.04887555      -0.09925877
H       14.95319473       7.22461919       1.80653190      -0.74082237      -0.79542317      -1.05525674       0.01127237       0.03897821       0.15946047
H        4.55763637       3.31166270       3.70199766       0.36995907      -0.33225672      -0.03052951      -0.03825534      -0.15539896       0.15117250
H       14.01498538      12.31602861       1.34403257      -0.12920064      -0.21590291      -0.37987748      -0.13266664      -0.09626810      -0.07688708
H        4.37224767       7.28221280       3.52210330       1.44948795      -0.01772847       1.26059250       0.08530214      -0.18805246      -0.08373061
H       14.25666018       5.64568387       1.66709215       0.14963782       0.30989812      -0.45229712       0.06164578      -0.08351964       0.15837867
C        6.34835725       2.71863441       2.57442992      -0.50544986       0.82320851       1.05114340       0.01939279      -0.22312777       0.19552651
C       12.02373510      11.46579716       1.43402067       0.40002246       0.94892977       0.21616263       0.55131060      -0.57458885      -0.20628525
C        2.45592936       7.99845029       3.18005213       0.91495820       0.24412214       0.22802671       0.18274239       0.11814532       0.26342419
C       15.73858031       6.08171981       0.09800879       1.45247623      -1.16468304       0.38976617       0.31314568       0.06779006      -0.45345813
Pb       0.62272410       3.41522955       0.78660951       0.00549341      -0.02562048      -0.06358954       1.00926465       0.96267933      -0.99001957
Pb      17.76922424      10.78489100       3.06199552      -0.17933233       0.28408392       0.28960894      -1.40563578      -1.99363649       2.19148034
Pb       7.92419763       8.72956446       0.59877944      -0.01957532       0.28974158      -0.29171889      -1.35226092      -0.16831619       0.35925589
Pb      10.13751899       5.25846030       2.99655672       0.21813029       0.08914988       0.28497846      -2.53932536      -1.08501298       0.46288205
N        4.99133719       2.46103267       3.22170479      -0.59249351      -0.42859601      -0.81101929       0.72566086       0.29120580       0.17044077
N       13.24453792      12.00104291       0.69936762      -1.02750366       1.25871812      -0.15221823       0.30874967      -0.21403967       0.12913873
N        3.83236097       7.59183035       2.75214163      -2.78809792      -1.35340965      -1.42683375       0.37530277       0.21486464       0.67434298
N       14.57771245       6.45970011       1.04113798       0.03874498       0.55951187       0.73388332       0.40420009       0.07876336      -0.35824304
I       18.98622010       5.42634277       7.82761770      -0.09187643      -0.04053000      -0.07729802       0.19458922      -0.07857308       1.06196474
I       18.54970505       8.77449689       5.33605548       0.15553791       0.00510368      -0.01956583       0.11071500      -0.36909212      -0.27899174
I        9.17030596      10.56899906       7.57043085      -0.08223483       0.07262055       0.25148768       2.52367791       0.74033972       0.21894077
I        9.04134801       3.36556635       5.39486144       0.24493463       0.42024311       0.00818241       0.06912064       1.59057695      -0.67326727
I       16.73732383       2.35839562       5.47828823       0.35593198      -0.30838682       0.02501296       1.67270571      -0.01661486       0.16675945
I        1.67104407      12.06165204       7.79835042      -0.19580108       0.06196796       0.02132334       0.20917818       0.24075276      -0.90629521
I       11.03446092       7.50396850       5.31909335       0.06656004      -0.01776460      -0.01153368       0.03976784       0.05439994      -0.28609441
I        7.03854481       6.60356980       7.57882449       0.18715839      -0.05106603       0.07357523       1.98865856      -0.71641891      -3.67441413
I        3.66899677       5.08040097       5.39808988      -0.02145948      -0.26581217      -0.06329541       0.05716506       0.16923931      -1.59276582
I       14.80637293       9.52354829       7.87738732      -0.32360783      -0.07408981       0.03167860       0.16612809      -2.61689898       0.03591423
I        5.30386946      10.25678545       5.33835655      -0.31478215       0.08299780      -0.02023540      -0.45842860       2.26062347       0.82025532
I       13.04655746       3.89477788       7.83198615      -0.14331467       0.37379152      -0.00218895      -0.59535325       0.20364473      -2.28475109
H        6.75877713       1.80636343       8.48623588       0.64221143      -0.44488159       0.36434511      -0.08292400      -0.03087904       0.07513499
H       11.75988732      11.21338430       6.27492503      -0.45873215      -0.10058992      -0.26405493       0.00376076       0.09336861       0.08922765
H        2.50894972       9.10320893       6.67786868       0.19248155      -0.57961753       0.90636256      -0.26485524       0.04900190       0.05883789
H       15.74975018       5.32216913       6.15194162      -0.00493340      -0.64090877       0.73469758       0.13959123       0.00190250       0.21226816
H        6.89971105       3.33259767       7.31300392      -0.48533155      -0.11895833       0.84320314       0.11921433      -0.09744211       0.09873389
H       11.55893087      12.48914203       4.92840401       0.13841394      -0.19117733      -0.11831317      -0.06224018      -0.13044493       0.08423122
H        2.16829902       7.37090368       6.56411111      -0.14072623      -0.62879035      -0.13800571      -0.02957474       0.15169815      -0.00376534
H       16.26699274       5.99204201       4.56944486       0.05436475       0.13689362       0.17690805      -0.03879886      -0.06395134      -0.00152027
H        6.03630027       3.44131682       9.09146746       0.57016191       0.74391395       0.15856844      -0.14342497       0.24928422       0.06092480
H       12.28219608      10.76235137       4.55008809      -0.10928643       0.24953523      -0.03294863       0.06077269      -0.10029945      -0.07879415
H        1.72471242       8.19160117       8.05955149      -0.88445130       0.47578000       0.73584809       0.09629328      -0.02219898       0.02649008
H       16.46122897       7.03083757       6.11933072      -0.30582448      -0.77936263      -0.36898645       0.26204238      -0.00244720      -0.14876962
H        4.54119923       3.14051256       7.06905026      -0.46642888       1.10008756      -0.53258385       0.13573713      -0.10579669      -0.05066304
H       13.49842948      12.99291207       6.18619644      -0.05165860      -0.49719206      -0.47252987      -0.03002933       0.00553830       0.06660580
H        4.05086024       8.58970592       8.56501889       0.36037268      -0.15317661       0.03592155      -0.13285911      -0.12061468       0.02978319
H       14.32733939       7.69035104       4.89375159       0.33909564       0.13218830      -0.49291299       0.09643678      -0.03716001      -0.00666163
H        4.31361376       2.16337014       8.38057530      -0.03716758       0.12838582      -0.01206725       0.11545688       0.11029051      -0.19590481
H       14.22680636      12.17921578       4.90236826      -0.10965947      -0.31406045       0.30461421      -0.10020627       0.09350781      -0.10666995
H        4.45495610       7.67951532       7.19265134       1.24053206       0.00319151      -0.89805242      -0.00500698       0.02737898      -0.19225957
H       13.88497642       6.88725174       6.30711331       0.04061150      -0.23162755      -0.17944394       0.09061550       0.03850988       0.00011809
H        5.04494427       1.60757576       7.04806597       0.06527314      -0.90491270      -0.66161613       0.13821150       0.06659541      -0.05679411
H       13.97896241      11.41722004       6.45295675      -0.01345775      -0.21039797      -0.77394660       0.13414897       0.08469467       0.11736275
H        3.75257624       6.85352736       8.39664056      -0.26127125       0.62527013      -0.00787893       0.25672018       0.15383626      -0.13679416
H       13.87309380       6.02674005       4.80766147      -0.03160660       0.54783410       0.20154129      -0.04448857      -0.14419653      -0.01868312
C        6.30586781       2.78766848       8.16832568      -0.21643892       0.30191097      -0.84209933       0.20442998       0.45112057      -0.82069127
C       12.17931819      11.59402818       5.28268744       0.62732556      -0.23024124       0.82568289      -0.61181080      -0.06957095       0.01613730
C        2.45178658       8.14633303       7.27456468       0.64760632       0.49586786      -0.93642361       0.24290066       0.13594880      -0.40120073
C       15.83371610       6.23382274       5.59973916      -0.04231698       1.38259511      -0.57777867       0.79090545      -0.33666735      -0.09201728
Pb       0.69641755       3.61665243       5.56562636      -0.00876573      -0.14138346       0.05395022      -1.15316451      -0.53040009       1.69478192
Pb      17.66012613      10.63824107       7.77150152       0.09133406       0.48248251      -0.32956555      -0.16397237       0.75032242      -0.73423357
Pb       8.07327988       8.81173834       5.22608056      -0.01269588       0.06747916       0.13055036      -0.57827759       0.45349675       0.80412454
Pb      10.10980308       5.45121222       7.79456447       0.17709984      -0.21545647      -0.36925088       2.85303892      -0.18738620       1.04004224
N        4.97450132       2.43123757       7.62948366      -0.02268037      -0.90425496       0.49945489       0.11469535      -0.38012060       0.41177098
N       13.56091458      12.03992892       5.68880151      -0.13376649       1.04756111       0.32591988       0.46682837      -0.59406885      -0.13244838
N        3.77086028       7.80358535       7.90815968      -1.32581322      -0.25773379       0.21679857       0.69217905      -0.27725929      -0.15937581
N       14.39268287       6.75590274       5.37728251      -0.09488611      -0.79992391       0.67156134       0.02141982      -0.64093931      -0.19155165
I       18.71463801       5.20144215      12.41968895       0.02931549       0.14684154      -0.09672410       0.29828535       0.45087446       0.76690833
I       18.43328377       8.91978626      10.17671018       0.30736425      -0.43504244      -0.08229615       0.19410527       3.39637403      -1.07026348
I        8.85816237      10.69783097      12.24797320       0.19392255       0.04464574       0.11887418       0.53424593      -0.31683105       0.55861643
I        9.56300020       3.34901077      10.06208770      -0.31952764      -0.13163038      -0.10362344       0.86779108       0.53037142      -0.90754561
I       16.74834568       2.07766831      10.00713526      -0.05832056       0.12092605       0.05765410      -0.84126257       0.85841581      -0.22433981
I        1.69154505      12.13856803      12.59973624      -0.14362828      -0.03051531       0.05991271       1.63046960       0.19849874       0.68815095
I       11.14246540       7.64598796      10.06687761      -0.30218696      -0.23055231       0.04361501       1.96304747       0.30114637      -1.08438002
I        7.11334316       6.67999213      12.22757697       0.08278195      -0.26125595       0.05640461       0.20975893       0.56335992       1.03239570
I        3.52241958       4.75782739       9.90153455       0.05678489       0.08974147       0.18500263       1.36302127      -1.06780411       1.58252159
I       14.85381155       9.38569777      12.49993852      -0.01505051       0.13708711      -0.00506486      -0.73561750      -1.18985209      -1.63968947
I        4.90011810      10.27029679       9.95531652       0.30058443      -0.03189887       0.18483321       0.20998283       0.44895493      -1.30222187
I       13.19930438       4.11183330      12.70600144      -0.06403512       0.00330951      -0.07059570       0.13218982       3.40483553       2.19448446
H        6.23485439       3.63094901      11.36205071      -0.03422110       0.09619531      -0.08759580      -0.12347746       0.10169609       0.03395457
H       12.35235331      10.51202290      11.26773615      -0.34339911      -0.19008117       0.17949425      -0.08917777       0.06584617       0.08717343
H        2.60481615       8.71935163      13.46152550      -0.14176714       0.52470900       0.26606021      -0.10995109       0.04224270       0.09759658
H       15.57110615       5.18617897       8.89887811      -0.53715437       0.48979816       0.10253026       0.04378078      -0.07746684      -0.02302862
H        7.08626419       2.97538555      12.78770749      -0.42218576      -0.51770140      -0.75329699      -0.02738718       0.13704367      -0.00752084
H       11.74766823      12.23896027      11.64659076       0.03172476      -0.71411138      -0.40465170      -0.21852762       0.06748483      -0.23879271
H        1.97346872       8.52895630      11.70214669      -0.50668690       0.16360392      -0.61021394       0.09177443       0.07057320      -0.24562691
H       15.98566316       6.94510613       8.85217089      -0.03709645       0.34157377      -0.34382076      -0.14436168       0.08702418      -0.06735172
H        6.57315044       1.86881418      11.34867069       0.43643436      -0.37066916       0.01106114      -0.05340000      -0.03876200       0.00965011
H       11.21953724      11.39784491      10.06822259      -0.12258517      -0.07639166       0.29743813      -0.06801417      -0.24260554      -0.23045250
H        1.87131669       7.08029125      12.86850786      -0.39432146      -0.52361921       0.56209335       0.05373533      -0.08127549       0.19554035
H       16.70725254       5.84570321      10.12539725      -0.63066261       0.25127194      -0.17435723      -0.14900286      -0.00885898       0.06128265
H        4.98404582       1.63725479      13.26617565       0.28523659       0.30503658       0.28932766       0.09512952      -0.10856886       0.09972995
H       12.94155171      12.87832060       9.48831676       0.48798054      -0.95095597       0.54185076      -0.12549665      -0.08953692       0.05115871
H        4.20994517       8.34515200      11.58017283       0.97873215       0.61096820      -0.27057010      -0.03677399       0.09493115       0.00036593
H       13.69698197       6.86996255       9.89095655       0.39732649       0.06537084       0.79419632      -0.27195576       0.12450005      -0.06254960
H        4.29402453       2.15871437      11.89496865       0.38824478       0.42359338       0.36247414      -0.02906953      -0.10108282      -0.05561054
H       13.55170090      11.26913901       9.47606658       0.83370109      -0.14017503      -0.35096706       0.02301306       0.01123255      -0.02514203
H        3.68086606       6.74085658      11.56103184       0.44022853       0.48077969       0.05552139       0.00814807       0.04887555      -0.09925877
H       14.94684393       7.24068454      11.21155227      -0.74082237      -0.79542317      -1.05525674       0.01127237       0.03897821       0.15946047
H        4.55128557       3.32772805      13.10701803       0.36995907      -0.33225672      -0.03052951      -0.03825534      -0.15539896       0.15117250
H       14.00863458      12.33209396      10.74905294      -0.12920064      -0.21590291      -0.37987748      -0.13266664      -0.09626810      -0.07688708
H        4.36589687       7.29827815      12.92712367       1.44948795      -0.01772847       1.26059250       0.08530214      -0.18805246      -0.08373061
H       14.25030938       5.66174922      11.07211252       0.14963782       0.30989812      -0.45229712       0.06164578      -0.08351964       0.15837867
C        6.34200645       2.73469976      11.97945029      -0.50544986       0.82320851       1.05114340       0.01939279      -0.22312777       0.19552651
C       12.01738430      11.48186251      10.83904104       0.40002246       0.94892977       0.21616263       0.55131060      -0.57458885      -0.20628525
C        2.44957856       8.01451564      12.58507250       0.91495820       0.24412214       0.22802671       0.18274239       0.11814532       0.26342419
C       15.73222951       6.09778516       9.50302916       1.45247623      -1.16468304       0.38976617       0.31314568       0.06779006      -0.45345813
Pb       0.61637330       3.43129490      10.19162988       0.00549341      -0.02562048      -0.06358954       1.00926465       0.96267933      -0.99001957
Pb      17.76287344      10.80095635      12.46701589      -0.17933233       0.28408392       0.28960894      -1.40563578      -1.99363649       2.19148034
Pb       7.91784683       8.74562981      10.00379981      -0.01957532       0.28974158      -0.29171889      -1.35226092      -0.16831619       0.35925589
Pb      10.13116819       5.27452565      12.40157709       0.21813029       0.08914988       0.28497846      -2.53932536      -1.08501298       0.46288205
N        4.98498639       2.47709802      12.62672516      -0.59249351      -0.42859601      -0.81101929       0.72566086       0.29120580       0.17044077
N       13.23818712      12.01710826      10.10438799      -1.02750366       1.25871812      -0.15221823       0.30874967      -0.21403967       0.12913873
N        3.82601017       7.60789570      12.15716200      -2.78809792      -1.35340965      -1.42683375       0.37530277       0.21486464       0.67434298
N       14.57136165       6.47576546      10.44615835       0.03874498       0.55951187       0.73388332       0.40420009       0.07876336      -0.35824304
I       18.97986930       5.44240812      17.23263807      -0.09187643      -0.04053000      -0.07729802       0.19458922      -0.07857308       1.06196474
I       18.54335425       8.79056224      14.74107585       0.15553791       0.00510368      -0.01956583       0.11071500      -0.36909212      -0.27899174
I        9.16395516      10.58506441      16.97545122      -0.08223483       0.07262055       0.25148768       2.52367791       0.74033972       0.21894077
I        9.03499721       3.38163170      14.79988181       0.24493463       0.42024311       0.00818241       0.06912064       1.59057695      -0.67326727
I       16.73097303       2.37446097      14.88330860       0.35593198      -0.30838682       0.02501296       1.67270571      -0.01661486       0.16675945
I        1.66469327      12.07771739      17.20337079      -0.19580108       0.06196796       0.02132334       0.20917818       0.24075276      -0.90629521
I       11.02811012       7.52003385      14.72411372       0.06656004      -0.01776460      -0.01153368       0.03976784       0.05439994      -0.28609441
I        7.03219401       6.61963515      16.98384486       0.18715839      -0.05106603       0.07357523       1.98865856      -0.71641891      -3.67441413
I        3.66264597       5.09646632      14.80311025      -0.02145948      -0.26581217      -0.06329541       0.05716506       0.16923931      -1.59276582
I       14.80002213       9.53961364      17.28240769      -0.32360783      -0.07408981       0.03167860       0.16612809      -2.61689898       0.03591423
I        5.29751866      10.27285080      14.74337692      -0.31478215       0.08299780      -0.02023540      -0.45842860       2.26062347       0.82025532
I       13.04020666       3.91084323      17.23700652      -0.14331467       0.37379152      -0.00218895      -0.59535325       0.20364473      -2.28475109
H        6.75242633       1.82242878      17.89125625       0.64221143      -0.44488159       0.36434511      -0.08292400      -0.03087904       0.07513499
H       11.75353652      11.22944965      15.67994540      -0.45873215      -0.10058992      -0.26405493       0.00376076       0.09336861       0.08922765
H        2.50259892       9.11927428      16.08288905       0.19248155      -0.57961753       0.90636256      -0.26485524       0.04900190       0.05883789
H       15.74339938       5.33823448      15.55696199      -0.00493340      -0.64090877       0.73469758       0.13959123       0.00190250       0.21226816
H        6.89336025       3.34866302      16.71802429      -0.48533155      -0.11895833       0.84320314       0.11921433      -0.09744211       0.09873389
H       11.55258007      12.50520738      14.33342438       0.13841394      -0.19117733      -0.11831317      -0.06224018      -0.13044493       0.08423122
H        2.16194822       7.38696903      15.96913148      -0.14072623      -0.62879035      -0.13800571      -0.02957474       0.15169815      -0.00376534
H       16.26064194       6.00810736      13.97446523       0.05436475       0.13689362       0.17690805      -0.03879886      -0.06395134      -0.00152027
H        6.02994947       3.45738217      18.49648783       0.57016191       0.74391395       0.15856844      -0.14342497       0.24928422       0.06092480
H       12.27584528      10.77841672      13.95510846      -0.10928643       0.24953523      -0.03294863       0.06077269      -0.10029945      -0.07879415
H        1.71836162       8.20766652      17.46457186      -0.88445130       0.47578000       0.73584809       0.09629328      -0.02219898       0.02649008
H       16.45487817       7.04690292      15.52435109      -0.30582448      -0.77936263      -0.36898645       0.26204238      -0.00244720      -0.14876962
H        4.53484843       3.15657791      16.47407063      -0.46642888       1.10008756      -0.53258385       0.13573713      -0.10579669      -0.05066304
H       13.49207868      13.00897742      15.59121681      -0.05165860      -0.49719206      -0.47252987      -0.03002933       0.00553830       0.06660580
H        4.04450944       8.60577127      17.97003926       0.36037268      -0.15317661       0.03592155      -0.13285911      -0.12061468       0.02978319
H       14.32098859       7.70641639      14.29877196       0.33909564       0.13218830      -0.49291299       0.09643678      -0.03716001      -0.00666163
H        4.30726296       2.17943549      17.78559567      -0.03716758       0.12838582      -0.01206725       0.11545688       0.11029051      -0.19590481
H       14.22045556      12.19528113      14.30738863      -0.10965947      -0.31406045       0.30461421      -0.10020627       0.09350781      -0.10666995
H        4.44860530       7.69558067      16.59767171       1.24053206       0.00319151      -0.89805242      -0.00500698       0.02737898      -0.19225957
H       13.87862562       6.90331709      15.71213368       0.04061150      -0.23162755      -0.17944394       0.09061550       0.03850988       0.00011809
H        5.03859347       1.62364111      16.45308634       0.06527314      -0.90491270      -0.66161613       0.13821150       0.06659541      -0.05679411
H       13.97261161      11.43328539      15.85797712      -0.01345775      -0.21039797      -0.77394660       0.13414897       0.08469467       0.11736275
H        3.74622544       6.86959271      17.80166093      -0.26127125       0.62527013      -0.00787893       0.25672018       0.15383626      -0.13679416
H       13.86674300       6.04280540      14.21268184      -0.03160660       0.54783410       0.20154129      -0.04448857      -0.14419653      -0.01868312
C        6.29951701       2.80373383      17.57334605      -0.21643892       0.30191097      -0.84209933       0.20442998       0.45112057      -0.82069127
C       12.17296739      11.61009353      14.68770781       0.62732556      -0.23024124       0.82568289      -0.61181080      -0.06957095       0.01613730
C        2.44543578       8.16239838      16.67958505       0.64760632       0.49586786      -0.93642361       0.24290066       0.13594880      -0.40120073
C       15.82736530       6.24988809      15.00475953      -0.04231698       1.38259511      -0.57777867       0.79090545      -0.33666735      -0.09201728
Pb       0.69006675       3.63271778      14.97064673      -0.00876573      -0.14138346       0.05395022      -1.15316451      -0.53040009       1.69478192
Pb      17.65377533      10.65430642      17.17652189       0.09133406       0.48248251      -0.32956555      -0.16397237       0.75032242      -0.73423357
Pb       8.06692908       8.82780369      14.63110093      -0.01269588       0.06747916       0.13055036      -0.57827759       0.45349675       0.80412454
Pb      10.10345228       5.46727757      17.19958484       0.17709984      -0.21545647      -0.36925088       2.85303892      -0.18738620       1.04004224
N        4.96815052       2.44730292      17.03450403      -0.02268037      -0.90425496       0.49945489       0.11469535      -0.38012060       0.41177098
N       13.55456378      12.05599427      15.09382188      -0.13376649       1.04756111       0.32591988       0.46682837      -0.59406885      -0.13244838