768
Lattice="25.489424268572538 -0.0956594233117733 0.005584256169073863 0.09977264370270744 24.739172851202614 0.6001478684267295 -0.002024446371267937 0.5682806783236378 24.75292066089703" Properties=species:S:1:pos:R:3:forces:R:3:momenta:R:3 energy=-3337.489926437336 stress="0.0 0.0 0.0 0.0 0.0 0.0 0.0 0.0 0.0" pbc="T T T"
I        6.58518553      24.18291887       1.67121214      -0.07448549       0.04115484       0.10050931      -1.39129060       1.11563902       2.08685140
I        6.05931558      10.06109312       7.52037911       0.01908682       0.23204251       0.22918485       0.78935731      -3.40711743       0.22455070
I        5.80671703       8.09374388       3.73984640       0.11593358      -0.45487594      -0.04067324      -1.36106690      -1.22009797      -0.83459598
I        6.52551733       1.79665718       5.21207267      -0.02314590      -0.07295998      -0.07281317      -2.20974296       0.67400778      -1.32514824
I        0.16712694      10.31584744       7.60836046      -0.17371012      -0.06401857      -0.14045254      -0.71711025       1.25466484      -0.67377017
I       12.39029621      24.29095150       1.74830009       0.08114207       0.04969463      -0.01035701      -0.48985741       1.33899563      -0.69797197
I       12.40305676       1.60366053       5.27757522      -0.00650679       0.19560350      -0.17581426       0.76851179      -0.66838758      -0.43237975
I        0.34573874       7.91921501       3.68107597      -0.11204410       0.16190260       0.09720057       2.88649128       1.28072396       1.27910755
I        9.36043062      11.77422660      10.44130096       0.18630955      -0.07848837      -0.03143525       1.30625400       0.25678013       1.04064579
I        3.27883334       4.34610429       4.81581587      -0.12474041      -0.09254964      -0.00757729       0.63869803       0.97088995       0.92220102
I        3.23278151      23.96726644       3.95800288      -0.13641435      -0.23016934       0.36409212      -0.12769366       0.61867562      -1.28443554
I        9.29294751      10.61538977       4.95195561       0.10363115       0.12937106       0.11945765       0.90491741       0.38487119      -0.81025793
H        1.76277529       1.07993646      -0.09136382       0.14427474       0.06871346       0.40846269      -0.12550645       0.09259355       0.12129168
H        9.14476400       1.05265541       2.96311849       0.09263774       0.02560810      -0.14805131      -0.03457577       0.11247175       0.06939629
H       10.32970830       9.50073326       1.93789345      -0.10217426      -0.45277330      -0.12184344      -0.01383076      -0.04333231      -0.21211685
H        2.95185337       0.04003562       7.78046006      -0.17941392      -0.16140537       0.08389786       0.01445261      -0.02290945      -0.01954062
H        4.05427683       7.32281446       6.66498189      -0.44445242       0.00335576      -0.44924906       0.00306720       0.05769292       0.11233248
H       10.24455141       2.46306251       2.58120788      -0.36512935      -0.46844596      -0.07167564      -0.13451672      -0.06388045       0.02263377
H       10.30441670       2.96210237       7.97272258       0.53468372       0.50035356       0.48488375       0.00038364      -0.04876837       0.06560938
H        2.09638638       0.92317180       6.38363380      -0.17279937      -0.08941273      -0.14660367       0.00734812       0.08181579      -0.14534559
H        3.54340880       0.78530257      -0.10636229       0.30732704      -0.03439838      -0.09057845       0.02679726       0.08202926      -0.06974146
H        8.47407253       2.69482598       2.57622682      -0.02441958      -0.38180872      -0.54259092      -0.02507964      -0.13992615      -0.00712317
H        8.55061475       9.15842248       2.58783903       0.07073692      -0.28039604      -0.24246223      -0.04083133      -0.18345492      -0.20069943
H        3.91701086       0.77489525       6.43564968      -0.24008177      -0.25051218      -0.14513693       0.03698022       0.12259173      -0.05772966
H        3.78799116       2.61714701       1.58999708      -0.44665092      -0.33400723      -0.07653702      -0.02001642       0.05337631       0.01313669
H        9.46555481       8.42945218       6.31573991      -0.55914427      -0.47233857       0.96915452      -0.02465381      -0.04000723      -0.00298814
H        8.44635056       7.19785857       1.03542214      -0.84039814      -0.17062575      -0.85916869      -0.22115510       0.01822906      -0.03285286
H        2.39884016       8.66300723       2.14215568      -0.20309426      -0.08493860       0.09048496       0.14029085       0.01156618      -0.14998458
H        3.00400756       1.23661856       2.24661315      -0.11636728       0.10020744      -0.46266702      -0.06878803       0.17419912       0.04319235
H        8.54914810       7.05548528       6.96251237       0.47320691       0.41593793      -0.18227228      -0.12562277      -0.13616283      -0.04025235
H        9.63938522       7.02182686       2.26824090       0.09631547      -0.30262216       0.02186433      -0.05499779      -0.02640140       0.18900663
H        3.07708616       8.79502061       0.54884855       0.06278412       0.34553912       0.01447710      -0.08815237      -0.13605131      -0.15508542
H        2.10051091       2.61319333       1.80012471      -0.14708932       0.00331244      -0.08309942       0.11092221       0.05490248       0.05525683
H       10.19716796       1.03612051       0.66214817      -0.66336825       0.29672425       0.02732564      -0.02803705       0.08856817       0.04816677
H       10.13506395       7.50978311       0.64457105      -0.13646101      -0.43564540      -0.01758540       0.10366288       0.08328064      -0.25019722
H        4.03578304       8.34937123       1.85300038       1.19213244       0.41178747       0.78053915       0.04619452       0.09955839      -0.10663701
C        3.05144558       7.83123002       6.69425150       1.38741534       0.10554902       0.63009197      -0.54677234       0.48897854      -0.31106226
C        9.27527692       1.95523523       2.33892878       0.95683943       0.63801503       0.19591975      -0.21887112      -0.29842612      -0.47032657
C        9.41231965       2.79458673       7.41465931      -1.30083661      -0.08897323      -1.64681705      -0.24584602      -0.11958673       0.05720409
C        2.99534034       0.86146889       7.03271668       0.78045379       0.71645942       0.24880396      -0.05783427      -0.14859162       0.01531394
Pb       6.37145713       4.94021846       4.48116580      -0.09716143      -0.03413500      -0.04368314      -1.36073809       0.17760894      -1.69689991
Pb       6.12726720      11.09969157       4.45389774      -0.14540794      -0.05657824       0.01285765       0.23839964      -0.80682980      -0.97765452
Pb      25.24285222      10.98460718      10.70951040       0.12442181       0.14687242      -0.13834991      -0.24994519      -0.96608114      -2.14012424
Pb      25.22340710      11.01021180       4.58655989       0.15614174      -0.39261133      -0.10028689      -1.39487178      -2.92405114      -1.41716604
N        2.90563288       2.01636779       1.52916506       0.52802568       0.11196357      -0.43502884      -0.04147832      -0.04509990       0.30413057
N        9.38480564       7.69418820       7.10479504      -0.91970731       0.55336031      -0.76426737       0.00439490       0.45468733      -0.09033404
N        9.36400831       7.56995018       1.37976411       1.14595813       0.70781697       0.78355667       0.02993755      -0.49441603      -0.30695755
N        3.10319076       8.25585078       1.44613158      -0.91104054      -0.13844180      -0.95302574      -0.63966514      -0.08752535      -0.60111649
I        6.62249124       5.64032040       7.60047116      -0.15876400      -0.00809043      -0.23832975      -1.99001997       1.93129206       1.24048437
I        5.82412659       3.85918292       1.24647041       0.11282873       0.15425248       0.34889374      -0.14641255      -1.14946041       0.67580904
I        6.06129518       2.00798029       9.81179452       0.00447679      -0.22583639      -0.02474021      -0.20148007      -1.84150830      -0.06231053
I        6.34600637       8.53607017      24.21581700      -0.02899214      -0.07612509      -0.04721483       0.02159366       0.52027527      -1.42420512
I       -0.08860640       4.01713663       1.33040937       0.06807246      -0.13178992      -0.06230748      -1.22848204       0.65008845       2.19834159
I       12.41065256       5.82400390       7.46564073       0.04423322       0.08919291       0.03713763      -1.14658492       1.51742310       1.16697300
I       12.21266524       8.31569386      23.91196580      -0.01509816      -0.19686026       0.06218871      -1.37949890      -0.15578941       1.23297541
I        0.09354766       1.83175347       9.76547731       0.07028967      -0.19299592      -0.08055153       0.24983111      -0.57734625      -1.29151679
I        9.52814065       5.44280225       4.32725983      -0.11158861       0.03120585      -0.13926500       0.80892066      -2.52079341      -0.51842528
I        3.05402360      10.95872702      23.36475629      -0.37172076       0.00225828      -0.05996097      -1.96264915      -1.16765000       1.03801362
I        2.89261633       5.43412635      10.14715033      -0.00244339      -0.15916755      -0.09052096       0.02363122      -1.62028191      -2.32722453
I        9.33874356       5.12127942      23.67345039      -0.07675274       0.01752782      -0.09847257       1.50992219       1.91537115      -0.89679232
H        3.02163462       8.65956173       5.94680525      -0.31647568      -0.48379260       0.32514743       0.07880688      -0.07160553       0.00541708
H        9.39133110       7.33562406       9.16174644      -0.14797353      -0.08223722       0.03976357       0.08898990      -0.05854458       0.00224542
H        8.47154061       3.07278251       7.91460089       0.17614311      -0.00629267       0.50976300      -0.15211443      -0.25609570      -0.14414464
H        3.44888718       6.41873470       0.28975129       0.23000919       0.16483744      -0.29156373      -0.09874883       0.13165644       0.08805558
H        2.85176753       2.36880241      -0.53191412       0.20808130       1.54656852      -1.07471969       0.01551989      -0.10441272       0.22315045
H       10.33546842       8.71329329       8.59527889       0.02468294       0.51189029       0.37859166       0.04894677      -0.02984867       0.05746558
H        8.83410463       9.59340153       0.74473976      -0.10146929       0.13609883      -0.48413433       0.14552684      -0.17378826       0.02421482
H        3.05654375       6.29143968       2.12334227      -0.29062713      -0.44008554       0.23357863      -0.03913602       0.02489104      -0.06333830
H        2.23567653       7.09119620       6.63557011      -0.25369226       0.01465099      -0.35974231      -0.00219689       0.13201883       0.14208648
H        8.50270655       8.82458923       8.68821853       0.00534031       0.16148558      -0.07980616      -0.03143353      -0.04136338       0.13959359
H        9.35113475       3.35526907       6.42833423       0.53221184      -0.67516956       0.77248105      -0.07541318       0.00648429      -0.20406543
H        1.65641267       6.67300576       0.90595562      -0.34697833      -0.26335954      -0.22400629      -0.03097973       0.01327392      -0.04711998
H        3.05628776       7.63923861       8.79139730       0.17753010      -0.21317068       0.15603462       0.09246420      -0.36542219      -0.01255676
H        9.19896563       2.43113046       0.26636682       0.20293616      -0.66838239       0.32369327       0.21713526      -0.03944078      -0.13342719
H        9.25424512       0.75768587       8.09393322       0.16692306       0.71098681      -1.52611195      -0.10752058       0.11338856      -0.07412280
H        4.01804863       2.12483419       8.44745800       0.27924346       0.15293507       0.36527657       0.03727828      -0.06188348       0.14965163
H        2.16773327       8.93026676       8.23859052       0.02859575       0.23566412       0.06714105      -0.01875362      -0.04829791      -0.00425520
H        8.46946793       0.96161910       0.75913558      -0.11141342      -0.41246136      -0.52970059      -0.14751268      -0.02437437      -0.17329936
H       10.23666380       1.03071223       6.61950309      -0.37008582      -0.22304223       0.28711436       0.23364086       0.01764037       0.10449838
H        2.30091329       2.39369166       8.38878507       0.81653967      -0.09344349      -0.54849682       0.03939627       0.01968948       0.04585515
H        3.85870682       9.03826207       8.24173397       0.06408534      -0.02103633       0.00446378      -0.01267227       0.09174420      -0.01584377
H       10.23323443       7.15088987       7.00080977       0.66282703      -0.92038971      -0.22655370      -0.07480111       0.03963472      -0.00798867
H        8.51207316       1.12503647       6.51272061       0.48869852      -0.09373750       0.35168228       0.03687103       0.14189817      -0.13493648
H        3.34947659       2.99846282       7.12914788      -0.25929673       0.27548954      -0.27639333       0.02801068       0.09366953      -0.06806187
C        2.76268140       1.53797823       0.08558913      -0.47645570      -1.38901696       1.77560836      -0.30559798       0.04446998       0.20805576
C        9.37522182       8.20237997       8.49448591       0.50322343      -0.01929637      -0.09797157      -0.25322396      -0.68610991      -0.10169995
C        9.25606354       9.03028396       1.67379139      -0.00346402       0.71251032       0.75712544       0.39736550      -0.03948011       0.03459197
C        2.77924206       6.79876741       1.15273841       0.31334853      -0.00410657       0.46409970      -0.15278770       0.44569011       0.04927016
Pb       6.21044686      11.21553576      10.61598281      -0.08670721      -0.10139091       0.05923886       1.35313335      -1.75528820       0.88638989
Pb       6.01236280       5.15139375      10.81954585       0.16047900      -0.06120348      -0.19457777       1.14341927      -2.75687252       1.15782935
Pb      25.68223504       4.69962264       4.48483033      -0.26177825       0.13817118      -0.13455234       2.17789218      -1.02570729       0.64653539
Pb      25.21413138       4.76772348      10.54576747       0.24285529      -0.03663156      -0.06420491       2.79271130       1.18579789      -0.36188181
N        3.05007432       8.39931715       8.08996362      -0.67933206       0.19022874      -0.34181079       0.50752715       1.15104149      -0.13490134
N        9.30201672       1.56068668       0.88157279       0.04416819       0.95124629       0.75314833       0.06662456      -0.24419910      -0.45993703
N        9.35185394       1.29932321       7.13184757      -0.10024360      -0.14895544       0.94944562       0.12067142       0.59834756       0.15462823
N        3.17189486       2.19933459       7.80071684      -1.17862321      -0.50812759       0.42537630       0.07172022      -0.05322357      -0.25151438
I        6.60833507      23.91185978      13.98691707       0.03017082       0.19446524      -0.17796424      -0.07520501      -0.90400608      -1.80801962
I        5.78332876      10.42125038      20.01479959      -0.15209032      -0.01137973      -0.03829514      -1.09407384       0.21547844       1.28033432
I        5.80068731       8.19203774      15.79915429       0.00408231      -0.19999057       0.04072017       0.25200581       0.24829961      -2.29355230
I        6.52761592       1.95845233      17.44528889       0.13060173       0.21032049       0.22666172       0.32194464      -1.61156188      -0.00374780
I       -0.19496666      10.31993028      19.94305777      -0.25854020       0.16474835       0.28914188       1.48720917       0.32307740      -0.41432623
I       12.19586949      24.48932292      14.05591809      -0.01604757       0.02166465       0.04365179       0.06688642       3.17472532       0.13604947
I       12.30772633       1.93331476      17.56725435       0.03111841      -0.00118613      -0.16482362       2.04643746       0.37416274       1.21609032
I       -0.20933958       7.96285493      16.05834943      -0.08562113       0.06482895       0.01366926       1.95422315      -0.13177417      -1.20544999
I        9.31165933      11.80479916      22.99626568       0.12219233       0.18514411      -0.07642991      -0.82255057       0.66199559      -1.35805797
I        2.87454649       4.52156685      17.00251016       0.16469852       0.05867361      -0.06328752      -0.11007233       0.35004967       0.06522132
I        3.17736477      24.00085919      16.81965422      -0.27245359      -0.06346735      -0.08761605      -0.26590653       0.37502495       1.42827221
I        9.40882377      11.06442701      17.63166712      -0.45361960       0.02530518      -0.15779806       2.28910777      -0.02529006       0.95706140
H        2.23387488       0.81675450      12.22851071      -0.61741698       0.09020946      -0.35630089       0.02134026      -0.12274001      -0.16408200
H        8.67063084       0.82625218      15.04385935       0.13658247      -0.07823758       0.46219788      -0.02631159       0.06040077       0.01819742
H       10.13745747       9.42640291      14.62528110      -0.25405386      -0.06331151      -0.39180245       0.18095141       0.06267989      -0.12617145
H        2.62079959       0.32916155      20.29214238       0.47013311      -0.38218832       0.07148978       0.01503044      -0.10619666       0.18179972
H        3.62838398       7.56004235      19.01957752       0.54897217      -0.19713276      -0.14970901       0.15961975      -0.06499429       0.10739582
H       10.02414402       2.24086184      15.15502257      -0.57744615      -0.41452283      -0.05400538       0.04869263      -0.14222680       0.05864441
H       10.55916236       3.39953903      20.19057899       0.03787090      -0.07342783       0.24619867       0.19170330       0.14531882       0.00517184
H        2.28607263       0.89358578      18.55297832       0.23589391      -0.05581111      -0.23705825      -0.01017002       0.14566281       0.02214857
H        3.97491808       0.60802893      12.40957207       0.45857235      -0.21773845       0.13914499      -0.10210759       0.04024224       0.02992660
H        8.25096443       2.65597991      14.89074336      -1.02441977       0.48853278       0.05772924      -0.16177095       0.01339167       0.04721445
H        8.37463129       9.40156478      14.56039897      -0.67208280       0.22890638       0.46850886      -0.06790970       0.03067162       0.01445013
H        4.14950347       0.71520350      19.05611680      -1.39271210       0.19422617       1.01769661      -0.07914751      -0.06569391      -0.17732581
H        4.03070915       2.51426555      13.93801265      -1.14925739      -0.27992839      -0.21122165      -0.04881908       0.22524434       0.05619748
H        9.56849309       8.91903467      18.95112349      -0.02284038       0.56764594       0.02443242      -0.01460041      -0.00977517      -0.07805583
H        8.41996878       7.81897517      12.73197987      -0.06307973      -0.10507618       0.55669115      -0.06058466       0.19701954       0.08706651
H        1.76425062       8.59731818      14.68698697      -0.79259502       0.08949710       0.23303635       0.09063571       0.01139785       0.02564574
H        2.84327425       1.39258221      14.55159234      -0.03080569      -0.11483105      -0.30067298      -0.13330249      -0.06086057       0.08577205
H        8.65367492       7.57852209      19.22215245      -0.46407060      -0.38528846       0.57085188      -0.02811422       0.07381560       0.04340710
H        9.25826483       7.14232521      14.13385359      -0.36656603       0.71989276      -0.35015230      -0.15803303      -0.07842607      -0.25495940
H        2.80422444       9.48757443      13.60970556       0.06369239       0.16631276      -0.83830098      -0.13638806       0.07491006       0.15926469
H        2.28915969       2.83349166      13.77655754      -0.11348619       0.17422685      -0.13408860       0.02529080      -0.05258873      -0.13880518
H       10.16216569       1.52675755      12.88695902      -0.24014791      -0.32388499      -0.22996860       0.19673130       0.01856332       0.05341346
H       10.03461900       7.73630031      12.80178991       0.81323332       0.05986466      -0.33087032      -0.18634196       0.09620917      -0.12970120
H        3.36794601       8.60368096      15.00484656       0.24179654      -0.23862670      -0.53658598      -0.03038258      -0.03530202       0.07918831
C        2.69411628       8.11064541      19.05968491      -0.96130173       1.02018101       0.29997561       0.25020262       0.57228122      -0.06967371
C        8.98893370       1.89707541      14.67189654       1.58577242       0.05524261       0.44669869      -0.40056504       0.45663294      -0.14747132
C        9.45513015       2.96808097      19.98419202      -0.62589539       1.13945801       0.80349391       0.22770447       0.04741714      -0.03644384
C        3.03906421       0.95653291      19.40629813       0.46136389       0.22944000      -0.61436084       0.18169972      -0.20398730      -0.01459486
Pb       6.20469918       5.11742241      16.79754594      -0.26107658       0.05799192       0.24556723       1.05412071      -0.60793747       0.55694930
Pb       5.99935118      11.11854986      16.82663938       0.11557955       0.28268398       0.09824221      -0.01925909       1.92182148       0.32255975
Pb      25.21444193      11.13761128      23.21476197       0.15566785      -0.08381004      -0.07321207      -0.75154471      -1.26964367      -1.10724157
Pb      25.02070060      11.00818986      17.03254879       0.25969436      -0.10288303      -0.35073278      -2.03684476      -1.23887612      -0.36154977
N        3.04300692       2.08053402      13.74967289       1.50425860      -0.13570174      -0.98695366      -0.32693306       0.44067593      -0.32508170
N        9.40536026       8.18051975      19.67787983       1.20305838      -0.18846845      -0.69326925      -0.34467082       0.34048472       0.02567225
N        9.23454902       7.92452161      13.40266416      -0.07444156      -0.22520586      -0.40131463      -0.72365869       0.48754802      -0.21732021
N        2.66186509       8.56606660      14.16365343       0.29362823      -0.32328739       1.37033244      -1.11518605       0.27042308      -0.58059234
I        6.52071773       6.23788984      19.75012025      -0.09703430      -0.18188665       0.21685979       0.33138346      -1.08926080       2.29832174
I        5.89981239       4.08664242      13.76757475       0.00249521      -0.00537728      -0.12257604       0.19097095      -1.31881477      -1.63458354
I        5.96997548       2.46696467      22.07734145      -0.04877795      -0.33498138      -0.00478689       1.35148353       0.96826610       0.05208353
I        6.35568235       8.18665331      11.56294356      -0.02635876      -0.10815715      -0.03073723      -0.81500617      -0.70044178       0.12642686
I        0.07056949       4.04714485      13.63495711      -0.02384498       0.01981697       0.10553357       1.41838559      -1.06084500       3.03718151
I       12.32390669       6.13794100      19.81519197      -0.13366644      -0.06758386       0.08746933      -2.26620119      -1.80211684      -0.33280741
I       12.32178407       7.98499256      11.26647951      -0.05549400      -0.12855810       0.11010836      -1.03453271       0.81764130      -0.07498110
I        0.21796303       2.08852481      21.78805932      -0.24403002       0.05538288       0.21384138      -2.17751166      -1.77721294       2.42973323
I        9.30056268       5.74172684      16.28085803       0.00556857      -0.01917744       0.10814584      -0.60302363      -0.00665860      -1.35890171
I        3.11453490      10.61291905      10.93438619      -0.41315289       0.02931237       0.10710111       2.11911168      -0.62814080       0.09627737
I        2.95479216       5.54775107      22.31052726      -0.04274557       0.04142214       0.03575597       1.01659124       0.85980239       0.04585203
I        9.15503194       4.94640600      10.95668603       0.31136272      -0.19900897       0.10184830      -1.68883859      -0.63912379      -0.09850897
H        2.68838776       9.04187368      18.46763044       0.18973863      -0.57374910      -0.48779327      -0.14800183       0.12969457      -0.11475541
H        9.17039672       7.85609633      21.78011095       0.26538215       0.18979437      -0.47407991       0.19464867      -0.04728821      -0.10954238
H        8.74864502       2.98383005      20.92823961       0.16853123       0.05940946       0.14143594      -0.13656399       0.05450398      -0.18317186
H        3.63392653       7.34683439      12.70700280       0.10034653      -0.27721506      -0.42405998      -0.02453838       0.23887803      -0.14726017
H        3.42727118       2.11123860      11.52043730      -0.44677358       0.19694736       0.13382739      -0.11136652       0.10663794      -0.23022954
H        9.81625692       9.54940166      21.38643228      -0.35356062      -0.42713272      -0.39333287      -0.08707002      -0.35804862      -0.01457016
H        9.23317334      10.11322524      13.18473209       0.18153837      -0.47180610      -0.21857093       0.10938164       0.00733809       0.07739706
H        2.66580334       6.30027045      13.92901354      -0.27813378       0.46287307      -0.05649880       0.06862519       0.00688162       0.05583834
H        1.82753492       7.47145806      18.79115229       0.27886272       0.18516607       0.12221882       0.11491158      -0.02690403      -0.08910935
H        7.99879521       9.05615793      21.11349154       0.53693868      -0.09263615      -0.33095241      -0.07133931      -0.19448902      -0.04203166
H        8.92956784       3.65282713      19.13168888       0.08591087      -0.50238531      -0.52912245       0.03270004       0.13600733      -0.02619375
H        1.81766731       7.36607534      12.55814290       0.05487604      -0.38160064      -0.07122981      -0.05249974      -0.06656456       0.07324431
H        2.42134089       7.94894450      21.17506378      -0.02706070      -0.54121982       0.19498574       0.01554409      -0.15879316      -0.08042483
H        8.91832093       2.76441420      12.71391168       0.33085731       0.43505340      -0.46141537      -0.06596290       0.29171573      -0.02711693
H        9.82702998       0.98561572      20.56716415      -0.17964592      -0.30454676      -0.14368941       0.00138178       0.12313427      -0.02443406
H        3.69062789       2.45956099      20.63919741       1.52714474       0.69994224       0.75714990      -0.10586459      -0.04961111       0.14422730
H        1.62251355       9.25628372      20.47753877      -0.50838984       0.46828850       0.02351310      -0.09061196       0.07075010      -0.00683793
H        8.43572625       1.05501489      12.77315611       0.60255898       0.19925586       0.31416390      -0.03023179       0.17280541       0.11619929
H       10.36365044       1.46301879      18.94556615      -0.11453844      -0.28320340       0.29860525      -0.13206985       0.00813793       0.20704216
H        2.06664287       2.50724424      20.39495516      -0.31873863       0.32347488      -0.16563511      -0.05450635       0.02074107      -0.01285259
H        3.31269602       9.24050507      20.73674997      -0.04454454       0.22114678      -0.19273239       0.15812084      -0.18218944      -0.04332045
H       10.33129600       7.62857400      19.73463673      -0.04154458      -0.12609028      -0.18200636       0.05491633      -0.01481609       0.08432232
H        8.73390896       1.19935891      19.23185531      -1.35056337      -0.54280226      -0.59642180       0.00831928       0.27196468       0.08593515
H        3.15479860       3.02425688      19.09652147      -0.17565324       0.22701799       0.39692216       0.02183061      -0.07911062      -0.16065347
C        3.15260664       1.36735968      12.34583870       0.36319826       0.30344564       1.88953089       0.00063513       0.23767383      -0.13734013
C        9.10021390       8.69480153      21.04595907      -0.98654020       0.27550752       1.45667017       0.35014359      -0.37556353      -0.24459055
C        9.25716528       9.31262908      13.95610533       0.70034837      -0.23430821       0.68032438       0.25660872      -0.12422512       0.08127788
C        2.68074934       7.27800977      13.27825175       0.44599331       0.55865706       0.17027649       0.32747735      -0.74624182       0.51999724
Pb       6.06278269      11.51014009      23.00199970       0.22624143      -0.07457340       0.06808243      -0.32530161      -0.89712610       1.03900562
Pb       6.08996078       5.44685654      23.09885102       0.15516472       0.06864074      -0.42233784      -1.06200223       0.04885684      -0.41282133
Pb      25.15267088       4.72968925      16.74311778       0.08867532       0.12278537       0.01623823      -2.26840657       0.35951009       2.86885450
Pb      25.28111975       5.06290003      22.86632778       0.03712175       0.12806488       0.06716252       2.56474268      -0.18070446      -1.47230655
N        2.48715936       8.67912677      20.44866437       1.05259251      -0.86802276       0.13640432       0.12487037      -0.23485785      -0.03052847
N        9.13508341       1.81112556      13.16496470      -0.68688945      -0.30618941      -0.66111212      -0.10837547       0.13189523       0.15565924