768
Lattice="31.343885341238796 -0.47746557187201905 -1.6062135899949226 -0.40744855527168355 29.62807268781774 -0.02279442302894619 -1.4504438450383712 0.04122985736401602 17.113936445534993" Properties=species:S:1:pos:R:3:forces:R:3:momenta:R:3 pbc="T T T"
I        6.33087828       0.86996402       2.30429101       0.06937805       0.08299729      -0.08440944      -0.11418363      -0.29643324      -0.80001028
I        1.04852406       6.25924688       2.27572339      -0.19410716       0.20607221       0.41964262       0.99663817      -0.86091102      -2.42767409
I        5.57337577       1.44549368       6.23810635       0.08839284       0.00553025       0.17456808       2.39941706      -0.90067650      -0.33049859
I        1.07968368       6.14002049       6.70190332      -0.03097550       0.17357741      -0.34969003       0.35108965       0.82442534      -0.71527619
I        4.98302308       4.96181057       3.86606398      -0.16900501       0.03509462       0.03023475       0.33662938      -0.27024899       0.57288521
I        1.66678674       2.71028351       9.23270507      -0.04193798       0.06764092      -0.07932261       2.03599504       1.70720214       1.99287679
H        2.30336018       3.82605460       4.92067061      -0.12627147      -0.76292436       0.00551035       0.00500414       0.03663761       0.02319021
H        4.07493902       5.36515757      15.73115966       0.28839209       0.04634491      -0.05720794      -0.03292608       0.14529421      -0.06532166
H        0.87907660       2.77268510       4.64194513      -0.81375342      -0.24146140      -0.62629169      -0.08572858      -0.13518904      -0.09943479
H        6.42055791       5.20912216       0.22409502       0.20039309       0.02408021      -0.20604056       0.10702028      -0.18356382       0.00438858
H        1.87698675       2.47493210       6.03998814       0.34704676      -0.29239708       0.33445617      -0.03874854      -0.01850993      -0.06611094
H        5.15154041       3.95749788      -0.24255633       0.38826382       1.04152518      -0.22897952      -0.14356589       0.11923510       0.10724960
H        2.69114623       2.20834491       3.17724326       0.09771561      -0.35298031      -1.43955973       0.05619577      -0.15824650       0.10463146
H        4.84865770       6.88164504       0.51353023      -0.39899491      -0.03398703      -0.12854394      -0.04685485      -0.11461162      -0.06765143
H        2.24775377       0.82770260       4.17734824       0.80806300       1.16768313      -0.43102059      -0.29049092      -0.09092968      -0.02370348
H        4.11974522       5.53132034       1.30952034       0.00157038      -0.10538986       0.29487556       0.14462505      -0.08067626       0.11693952
H        3.73848429       1.72910815       4.47342883      -1.22900845      -0.09825886      -0.11072628      -0.01548635      -0.15232361      -0.02183628
H        2.10530921       5.94988738      16.76986142       0.05104161       0.34926533       0.24890586      -0.19572295       0.12804027      -0.18535488
C        1.89894027       2.76282143       4.98174781       0.78170227       1.30996495       0.34309699      -0.01981825      -0.28801581      -0.27574382
C        4.02065991       5.09608158      16.79193621      -0.49089805      -1.57035131       0.30550620      -0.11965940      -0.47743612      -0.22974022
Pb       3.33866703      15.03976445       8.41121781       0.09792301      -0.02342544       0.07424734       0.02525908       4.66312773      -2.16053622
Pb      -0.69219970      15.12495591       8.71492547       0.22947676      -0.07102664       0.14203930       0.03906456       2.02897956      -0.02193284
N        2.71031636       1.81741346       4.13934186       0.03967230      -0.89099716       1.92153370      -0.03417186       0.18886771       0.09512404
N        4.41542586       5.89539631       0.33645936       0.08483615      -0.00215405      -0.12271614       0.36640291       0.52815158       0.20809749
I        5.09010289       8.47421673       6.78893891      -0.16156182       0.14946085      -0.03743745      -0.94663787       1.61854635      -2.55071028
I        1.14622600      13.92644781       6.32922486      -0.01763805       0.05812043      -0.28735053      -0.35875948       1.75024160       1.81111408
I        4.89895414       8.91510195       2.03684749      -0.03241298       0.14413559       0.21489463      -2.70348729       2.40674838      -0.93371412
I        2.12539156      13.41335518       1.83957350       0.04644944      -0.27558289       0.39012091       2.65472654       0.68443908      -0.54671702
I        5.79648714      12.24628652      -0.28218256       0.04268993      -0.04347825      -0.06101717      -0.21800293       1.54671945       0.07133263
I        1.00810733      10.06844679       4.86196358       0.00601025       0.26791008      -0.23054832       0.88030787       1.17964534       0.88460695
H        0.70871597       8.42439910       8.78111114       0.27788437       0.16264653       0.18093099       0.09814395       0.12752391       0.02168067
H        5.19147384      10.73769041       4.35307707      -0.02920588      -0.83759465       0.57861031       0.02918162      -0.05822804      -0.09650732
H        0.72897760       9.75846543      10.11292811      -0.22699064      -0.04127122      -0.68606632      -0.09099993      -0.03062146       0.00909573
H        5.58553848      12.31786898       5.34308637       0.09953615       0.28701664       0.42927483      -0.08593981      -0.02983455       0.06690141
H       -0.47076173       9.81463804       8.58169420       0.80060855      -0.24899691       0.50722571       0.04033011       0.03266098       0.07364895
H        4.33559064      12.29308658       3.95002608      -0.35444281       0.10081798       0.05405804       0.06835920      -0.02991990      -0.05150491
H        1.62260732      11.42205942       8.39212225      -0.54815557      -0.59254159      -0.00087042       0.03089881      -0.01299780      -0.12322699
H        7.31307031      11.92796900       3.47373223      -0.91862513       0.26452780       0.21305266       0.13138278      -0.02074910       0.11857881
H        1.31918523      10.19761639       7.15690689       0.39679819       0.18991538       0.21467102       0.10701353       0.08918436      -0.03352234
H        6.44592736      13.29513628       3.06516440      -0.26275548       1.10310995      -0.08602871       0.03531084       0.00245262      -0.05861249
H        2.58786963      10.05076093       8.39533514      -0.92978041       0.24480139      -0.22941517       0.14897495      -0.06312727       0.05179771
H        6.12719110      11.82254402       2.29232827      -0.04197480       0.35498463       0.25370775       0.04782916      -0.13093488       0.09145620
C        0.57867081       9.52842602       8.99801135      -0.70919097       0.60276934       0.42325755       0.45024029      -0.06330202       0.08139330
C        5.27495944      11.87663588       4.33375463       0.60963722       0.76808170      -1.30301075       0.81138583      -0.15673704       0.15729682
Pb       3.11049647       7.56793761       4.42955680      -0.30465577      -0.37646092       0.00480426      -0.38377149       0.14584637      -2.21391468
Pb       6.89495421       7.50890973       4.35617292      -0.10056266      -0.10161134      -0.00069965       2.47443985       0.44378350       3.34964762
N        1.57354558      10.36101135       8.21032569       1.07483731      -0.14646769      -0.25357522      -0.44882534      -0.41327441       0.47776548
N        6.33707458      12.28680083       3.25325023       0.88426451      -2.04884057      -0.04387063      -0.02876715      -0.46149004      -0.46861949
I       14.07410801       0.94727923       1.86626784       0.04873161       0.08877510       0.11246362       1.11040687      -0.27668653       1.00279507
I        8.53081955       6.44018511       1.97921348       0.17915293      -0.30160822      -0.30060771       0.41002869       2.06056904      -0.03638268
I       13.04301679       1.26964408       6.03390077      -0.24087774       0.20221046      -0.32317888       0.97363377       0.41770323      -0.69432169
I        8.83088489       5.97434578       6.41992003       0.01844822      -0.04727461       0.10139893      -0.52802044      -1.63168980       0.48647785
I       12.64132977       4.78112313       3.71321934       0.07361094      -0.17779848      -0.02682440       1.42503172      -0.83380806      -0.32328346
I        9.52858976       2.36597962       8.73172448      -0.11625925       0.03091014       0.10190855      -1.74631705       1.26314578       0.89155918
H        8.12889161       2.56427002       4.24637698      -0.30816882       0.04872850      -0.27682186      -0.10912818      -0.19570713      -0.20480236
H       11.97327866       4.93404197      15.66705669       0.00556371       0.24076448      -0.23063115       0.07307410      -0.00559928       0.01264940
H        9.35861691       2.72682963       5.55096521       0.09305346       0.03941712      -0.68882300      -0.09367351      -0.00178609       0.20135124
H       14.48563407       5.06310009       0.00795000       0.00728879      -0.37052748      -0.08672228      -0.13392933       0.14789966      -0.07521416
H        9.57735854       3.70751815       4.00182657      -0.35503378      -1.17690625       0.14981676      -0.05732204      -0.08367031       0.07774222
H       13.27234381       3.61084752      -0.19975506       0.30139450       0.92370117       0.17924700      -0.12210166      -0.16946791       0.02088084
H        9.98791020       1.69437984       2.77732756      -0.06519182      -0.25441502      -0.28300375       0.16282736      -0.02381047       0.09027837
H       11.50367317       5.50889618      -0.03536532       0.29076304       0.04177570      -0.25658392       0.01349984       0.09056011      -0.03325613
H        9.69267473       0.59967715       4.09187684      -0.28932430       0.68971832      -0.09265440      -0.17562861      -0.05559601       0.04226410
H       12.74409268       6.60002288       0.35944789       0.04882777       0.09453424      -0.14233341       0.00410750       0.06653134       0.16469629
H       10.93215436       1.68708584       4.13350884       0.51216209      -0.13221431       0.00746395      -0.11608883       0.04012084      -0.12409869
H       12.40505175       5.22967370       1.34272900       0.04933370       0.38835790      -0.18923428      -0.03253318       0.02883208       0.07726868
C        9.19876673       2.72137514       4.43068890       0.31299466       0.46517328       0.79337736      -0.75351785       0.39593288       0.18368451
C       13.47912179       4.72595234      -0.37262640       0.03044545      -0.71616284      -0.25933759       0.38273263      -0.64372294       0.48577123
Pb      11.12686113      14.56830724       8.19791325       0.04355200       0.22624945       0.07164235       0.04071135      -1.67612383       1.76570938
Pb       7.30264282      14.60902799       8.37586006      -0.42307703       0.34175083       0.02779370      -0.20816897      -2.24597147       1.15231221
N        9.96594610       1.58024933       3.80693391       0.19536076       0.35326651       0.34852159      -1.12775869      -0.17564429      -0.50125725
N       12.47554337       5.58447253       0.33074117      -0.81083729      -0.57815946       0.68851082      -0.08494267       0.08065867      -0.20467918
I       12.82531063       8.28230462       6.35169454       0.04109742      -0.05509095      -0.09033079      -0.37590431       4.43628955       2.14415095
I        8.95630504      13.55845211       5.93750270       0.08031580      -0.03915042      -0.06121579      -1.93661249       0.16022745       0.46802123
I       12.46065482       8.89708113       1.94415125       0.12618629       0.10847765      -0.06230504      -1.86320296      -0.03730615       0.25589384
I        9.92413970      13.09754478       1.93531401       0.00308090      -0.08879478      -0.05054724      -0.66071273      -0.29273008      -0.49937740
I       13.91839602      12.13542623      -0.46610220      -0.06269923      -0.23632743      -0.13422916      -3.13897632       1.99588517      -0.47765162
I        8.94655578       9.94331606       4.45568664      -0.01701144       0.19690875       0.05616875       0.08899828      -0.98718821      -1.02162465
H        8.15171541       9.71531495       9.57722730       0.17267196      -0.47420336       0.91651539       0.07772277       0.06580168      -0.05465337
H       12.14237307      12.31907491       3.92774405      -0.53176121       0.14862441      -0.55261661       0.29417082      -0.12462050       0.00736129
H        7.34290084       9.94055870       7.98771733      -0.00444923       0.11722505      -0.19089354      -0.08087728       0.00388576       0.17229949
H       13.43943727      11.26755709       4.63620546      -0.14251834      -0.10775718       0.44923498       0.02634754       0.10137492       0.04884417
H        8.50020971       8.55202576       8.13293604      -0.02605031      -0.59468654       0.08607538      -0.10408638      -0.06523496      -0.25737844
H       13.41917030      13.13286138       4.91545641       0.07774294      -0.35977300      -0.06580893      -0.02145348      -0.22456446       0.10810180
H        9.37170939      11.33850979       8.48389064       0.01881166       1.40531544       0.72659439       0.11905068      -0.09402936       0.00717774
H       13.79872415      11.84738234       2.23416437      -0.07066452      -0.35763142      -0.36051533      -0.10138745      -0.02709443       0.13605979
H        9.60277782      10.50402794       7.05908448      -0.15661205      -0.28973176       0.11410153       0.03906051      -0.10960624       0.05566585
H       15.07303787      12.06825059       3.26716907       0.48836573      -0.28266756       0.17787701      -0.11170874       0.18007578      -0.04614675
H       10.34259234      10.00621434       8.53909486      -0.14873526       0.16293823      -0.11791647      -0.03622207       0.14872890       0.07683511
H       14.22539964      13.35320126       2.68393111      -0.07616633       0.75903815      -0.14426776       0.03260467      -0.24052771       0.07547483
C        8.28545964       9.57157500       8.48584121      -0.45811975       0.79458329      -0.70064051      -0.06748296       0.17239610       0.88444851
C       13.20405142      12.27251898       4.21957763       1.10653161       0.06892161       0.00110465       0.88936869      -0.45029571      -0.49672970
Pb      10.65206407       7.21966560       4.17017140       0.26565370       0.15169521       0.11916201      -2.49328730       0.07531475       1.51289566
Pb      14.67990676       7.38657080       3.77841036       0.15439011      -0.34717497       0.11109883       1.11651752       0.71283300      -0.81756407
N        9.46010989      10.41427169       8.11029707       0.71889873      -1.13458119      -0.90562827       1.36421798      -0.12040147      -0.03939936
N       14.13836479      12.39357947       3.03016776      -0.84055150      -0.01629895       0.57876774      -0.19638271      -0.15941936      -0.17363424
I        5.60565636       0.89057895      10.86125923       0.06937805       0.08299729      -0.08440944      -0.11418363      -0.29643324      -0.80001028
I        0.32330214       6.27986181      10.83269161      -0.19410716       0.20607221       0.41964262       0.99663817      -0.86091102      -2.42767409
I        4.84815385       1.46610861      14.79507457       0.08839284       0.00553025       0.17456808       2.39941706      -0.90067650      -0.33049859
I        0.35446176       6.16063542      15.25887154      -0.03097550       0.17357741      -0.34969003       0.35108965       0.82442534      -0.71527619
I        4.25780116       4.98242550      12.42303220      -0.16900501       0.03509462       0.03023475       0.33662938      -0.27024899       0.57288521
I        2.39200866       2.68966858       0.67573685      -0.04193798       0.06764092      -0.07932261       2.03599504       1.70720214       1.99287679
H        1.57813826       3.84666953      13.47763883      -0.12627147      -0.76292436       0.00551035       0.00500414       0.03663761       0.02319021
H        4.80016095       5.34454264       7.17419143       0.28839209       0.04634491      -0.05720794      -0.03292608       0.14529421      -0.06532166
H        0.15385468       2.79330003      13.19891335      -0.81375342      -0.24146140      -0.62629169      -0.08572858      -0.13518904      -0.09943479
H        5.69533599       5.22973709       8.78106324       0.20039309       0.02408021      -0.20604056       0.10702028      -0.18356382       0.00438858
H        1.15176483       2.49554703      14.59695636       0.34704676      -0.29239708       0.33445617      -0.03874854      -0.01850993      -0.06611094
H        4.42631849       3.97811281       8.31441189       0.38826382       1.04152518      -0.22897952      -0.14356589       0.11923510       0.10724960
H        1.96592431       2.22895984      11.73421148       0.09771561      -0.35298031      -1.43955973       0.05619577      -0.15824650       0.10463146
H        4.12343578       6.90225997       9.07049845      -0.39899491      -0.03398703      -0.12854394      -0.04685485      -0.11461162      -0.06765143
H        1.52253185       0.84831753      12.73431646       0.80806300       1.16768313      -0.43102059      -0.29049092      -0.09092968      -0.02370348
H        3.39452330       5.55193527       9.86648856       0.00157038      -0.10538986       0.29487556       0.14462505      -0.08067626       0.11693952
H        3.01326237       1.74972308      13.03039705      -1.22900845      -0.09825886      -0.11072628      -0.01548635      -0.15232361      -0.02183628
H        2.83053114       5.92927245       8.21289319       0.05104161       0.34926533       0.24890586      -0.19572295       0.12804027      -0.18535488
C        1.17371835       2.78343636      13.53871603       0.78170227       1.30996495       0.34309699      -0.01981825      -0.28801581      -0.27574382
C        4.74588184       5.07546665       8.23496798      -0.49089805      -1.57035131       0.30550620      -0.11965940      -0.47743612      -0.22974022
Pb       4.06388895      15.01914952      -0.14575041       0.09792301      -0.02342544       0.07424734       0.02525908       4.66312773      -2.16053622
Pb       0.03302222      15.10434098       0.15795725       0.22947676      -0.07102664       0.14203930       0.03906456       2.02897956      -0.02193284
N        1.98509444       1.83802839      12.69631008       0.03967230      -0.89099716       1.92153370      -0.03417186       0.18886771       0.09512404
N        3.69020394       5.91601124       8.89342758       0.08483615      -0.00215405      -0.12271614       0.36640291       0.52815158       0.20809749
I        4.36488097       8.49483166      15.34590713      -0.16156182       0.14946085      -0.03743745      -0.94663787       1.61854635      -2.55071028
I        0.42100408      13.94706274      14.88619308      -0.01763805       0.05812043      -0.28735053      -0.35875948       1.75024160       1.81111408
I        4.17373222       8.93571688      10.59381571      -0.03241298       0.14413559       0.21489463      -2.70348729       2.40674838      -0.93371412
I        1.40016964      13.43397011      10.39654172       0.04644944      -0.27558289       0.39012091       2.65472654       0.68443908      -0.54671702
I        5.07126522      12.26690145       8.27478566       0.04268993      -0.04347825      -0.06101717      -0.21800293       1.54671945       0.07133263
I        0.28288541      10.08906172      13.41893180       0.00601025       0.26791008      -0.23054832       0.88030787       1.17964534       0.88460695
H        1.43393789       8.40378417       0.22414292       0.27788437       0.16264653       0.18093099       0.09814395       0.12752391       0.02168067
H        4.46625192      10.75830534      12.91004529      -0.02920588      -0.83759465       0.57861031       0.02918162      -0.05822804      -0.09650732
H        1.45419952       9.73785050       1.55595989      -0.22699064      -0.04127122      -0.68606632      -0.09099993      -0.03062146       0.00909573
H        4.86031656      12.33848391      13.90005459       0.09953615       0.28701664       0.42927483      -0.08593981      -0.02983455       0.06690141
H        0.25446019       9.79402311       0.02472598       0.80060855      -0.24899691       0.50722571       0.04033011       0.03266098       0.07364895
H        3.61036872      12.31370151      12.50699430      -0.35444281       0.10081798       0.05405804       0.06835920      -0.02991990      -0.05150491
H        0.89738540      11.44267435      16.94909047      -0.54815557      -0.59254159      -0.00087042       0.03089881      -0.01299780      -0.12322699
H        6.58784839      11.94858393      12.03070045      -0.91862513       0.26452780       0.21305266       0.13138278      -0.02074910       0.11857881
H        0.59396331      10.21823132      15.71387511       0.39679819       0.18991538       0.21467102       0.10701353       0.08918436      -0.03352234
H        5.72070544      13.31575121      11.62213262      -0.26275548       1.10310995      -0.08602871       0.03531084       0.00245262      -0.05861249
H        3.31309155      10.03014600      -0.16163308      -0.92978041       0.24480139      -0.22941517       0.14897495      -0.06312727       0.05179771
H        5.40196918      11.84315895      10.84929649      -0.04197480       0.35498463       0.25370775       0.04782916      -0.13093488       0.09145620
C        1.30389273       9.50781109       0.44104313      -0.70919097       0.60276934       0.42325755       0.45024029      -0.06330202       0.08139330
C        4.54973752      11.89725081      12.89072285       0.60963722       0.76808170      -1.30301075       0.81138583      -0.15673704       0.15729682
Pb       2.38527455       7.58855254      12.98652502      -0.30465577      -0.37646092       0.00480426      -0.38377149       0.14584637      -2.21391468
Pb       6.16973229       7.52952466      12.91314114      -0.10056266      -0.10161134      -0.00069965       2.47443985       0.44378350       3.34964762
N        0.84832366      10.38162628      16.76729391       1.07483731      -0.14646769      -0.25357522      -0.44882534      -0.41327441       0.47776548
N        5.61185266      12.30741576      11.81021845       0.88426451      -2.04884057      -0.04387063      -0.02876715      -0.46149004      -0.46861949
I       13.34888609       0.96789416      10.42323606       0.04873161       0.08877510       0.11246362       1.11040687      -0.27668653       1.00279507
I        7.80559763       6.46080004      10.53618170       0.17915293      -0.30160822      -0.30060771       0.41002869       2.06056904      -0.03638268
I       12.31779487       1.29025901      14.59086899      -0.24087774       0.20221046      -0.32317888       0.97363377       0.41770323      -0.69432169
I        8.10566297       5.99496071      14.97688825       0.01844822      -0.04727461       0.10139893      -0.52802044      -1.63168980       0.48647785
I       11.91610785       4.80173806      12.27018756       0.07361094      -0.17779848      -0.02682440       1.42503172      -0.83380806      -0.32328346
I       10.25381168       2.34536469       0.17475626      -0.11625925       0.03091014       0.10190855      -1.74631705       1.26314578       0.89155918
H        7.40366969       2.58488495      12.80334520      -0.30816882       0.04872850      -0.27682186      -0.10912818      -0.19570713      -0.20480236
H       12.69850059       4.91342704       7.11008846       0.00556371       0.24076448      -0.23063115       0.07307410      -0.00559928       0.01264940
H        8.63339499       2.74744456      14.10793343       0.09305346       0.03941712      -0.68882300      -0.09367351      -0.00178609       0.20135124
H       13.76041215       5.08371502       8.56491822       0.00728879      -0.37052748      -0.08672228      -0.13392933       0.14789966      -0.07521416
H        8.85213662       3.72813308      12.55879479      -0.35503378      -1.17690625       0.14981676      -0.05732204      -0.08367031       0.07774222
H       12.54712189       3.63146245       8.35721316       0.30139450       0.92370117       0.17924700      -0.12210166      -0.16946791       0.02088084
H        9.26268828       1.71499477      11.33429578      -0.06519182      -0.25441502      -0.28300375       0.16282736      -0.02381047       0.09027837
H       10.77845125       5.52951111       8.52160290       0.29076304       0.04177570      -0.25658392       0.01349984       0.09056011      -0.03325613
H        8.96745281       0.62029208      12.64884506      -0.28932430       0.68971832      -0.09265440      -0.17562861      -0.05559601       0.04226410
H       12.01887076       6.62063781       8.91641611       0.04882777       0.09453424      -0.14233341       0.00410750       0.06653134       0.16469629
H       10.20693244       1.70770077      12.69047706       0.51216209      -0.13221431       0.00746395      -0.11608883       0.04012084      -0.12409869
H       11.67982983       5.25028863       9.89969722       0.04933370       0.38835790      -0.18923428      -0.03253318       0.02883208       0.07726868
C        8.47354481       2.74199007      12.98765712       0.31299466       0.46517328       0.79337736      -0.75351785       0.39593288       0.18368451
C       12.75389987       4.74656727       8.18434182       0.03044545      -0.71616284      -0.25933759       0.38273263      -0.64372294       0.48577123
Pb      11.85208305      14.54769231      -0.35905497       0.04355200       0.22624945       0.07164235       0.04071135      -1.67612383       1.76570938
Pb       8.02786474      14.58841306      -0.18110816      -0.42307703       0.34175083       0.02779370      -0.20816897      -2.24597147       1.15231221
N        9.24072418       1.60086426      12.36390213       0.19536076       0.35326651       0.34852159      -1.12775869      -0.17564429      -0.50125725
N       11.75032145       5.60508746       8.88770939      -0.81083729      -0.57815946       0.68851082      -0.08494267       0.08065867      -0.20467918
I       12.10008871       8.30291955      14.90866276       0.04109742      -0.05509095      -0.09033079      -0.37590431       4.43628955       2.14415095
I        8.23108312      13.57906704      14.49447092       0.08031580      -0.03915042      -0.06121579      -1.93661249       0.16022745       0.46802123
I       11.73543290       8.91769606      10.50111947       0.12618629       0.10847765      -0.06230504      -1.86320296      -0.03730615       0.25589384
I        9.19891778      13.11815971      10.49228223       0.00308090      -0.08879478      -0.05054724      -0.66071273      -0.29273008      -0.49937740
I       13.19317410      12.15604116       8.09086602      -0.06269923      -0.23632743      -0.13422916      -3.13897632       1.99588517      -0.47765162
I        8.22133386       9.96393099      13.01265486      -0.01701144       0.19690875       0.05616875       0.08899828      -0.98718821      -1.02162465
H        8.87693733       9.69470002       1.02025908       0.17267196      -0.47420336       0.91651539       0.07772277       0.06580168      -0.05465337
H       11.41715115      12.33968984      12.48471227      -0.53176121       0.14862441      -0.55261661       0.29417082      -0.12462050       0.00736129
H        6.61767892       9.96117363      16.54468555      -0.00444923       0.11722505      -0.19089354      -0.08087728       0.00388576       0.17229949
H       12.71421535      11.28817202      13.19317368      -0.14251834      -0.10775718       0.44923498       0.02634754       0.10137492       0.04884417
H        9.22543163       8.53141083      -0.42403218      -0.02605031      -0.59468654       0.08607538      -0.10408638      -0.06523496      -0.25737844
H       12.69394838      13.15347631      13.47242463       0.07774294      -0.35977300      -0.06580893      -0.02145348      -0.22456446       0.10810180
H       10.09693131      11.31789486      -0.07307758       0.01881166       1.40531544       0.72659439       0.11905068      -0.09402936       0.00717774
H       13.07350223      11.86799727      10.79113259      -0.07066452      -0.35763142      -0.36051533      -0.10138745      -0.02709443       0.13605979
H        8.87755590      10.52464287      15.61605270      -0.15661205      -0.28973176       0.11410153       0.03906051      -0.10960624       0.05566585
H       14.34781595      12.08886552      11.82413729       0.48836573      -0.28266756       0.17787701      -0.11170874       0.18007578      -0.04614675
H       11.06781426       9.98559941      -0.01787336      -0.14873526       0.16293823      -0.11791647      -0.03622207       0.14872890       0.07683511
H       13.50017772      13.37381619      11.24089933      -0.07616633       0.75903815      -0.14426776       0.03260467      -0.24052771       0.07547483
C        9.01068156       9.55096007      -0.07112701      -0.45811975       0.79458329      -0.70064051      -0.06748296       0.17239610       0.88444851
C       12.47882950      12.29313391      12.77654585       1.10653161       0.06892161       0.00110465       0.88936869      -0.45029571      -0.49672970
Pb       9.92684215       7.24028053      12.72713962       0.26565370       0.15169521       0.11916201      -2.49328730       0.07531475       1.51289566
Pb      13.95468484       7.40718573      12.33537858       0.15439011      -0.34717497       0.11109883       1.11651752       0.71283300      -0.81756407