768
Lattice="38.36233378009021 -0.17091669423460434 -0.23415642229604455 0.13860846621712591 21.550492846406996 -0.023849043928523623 -0.012701609790407587 0.03213069133637567 18.81004073834508" Properties=species:S:1:pos:R:3:forces:R:3:momenta:R:3 pbc="T T T"
I       17.49642765       4.37677548       2.70816340       0.04669222       0.03272555       0.13832797       0.44151025      -0.03913989      -1.62785030
I       17.35293082       7.78987422       0.43211598      -0.22431870       0.27559657      -0.08023755      -2.17943900       1.02298157       0.29900312
I        7.43383953       9.71251371       2.87550789       0.03613671       0.04340840      -0.21720020       1.40480221       1.15629290       0.39021404
I        7.58501681       2.62997502       0.33577434       0.24293599       0.03723327       0.26734805      -0.52027317       2.26324806       1.24715058
I       15.36634477       1.26308883       0.79416245       0.02184159      -0.12382317      -0.19479827       0.69142031      -0.24917980      -1.77776265
I        0.36413251      11.09687982       2.88972581      -0.49758090      -0.18824950      -0.03623593      -0.00935526      -0.87208742       0.26735326
I        9.65680456       6.53960029       0.37945302       0.07582979       0.17103382      -0.00465055       0.30282522       1.31966520       1.37236199
I        5.66430581       5.74354925       2.95341679      -0.02803873      -0.05550161      -0.01291026       0.01504944      -1.58934782      -0.53800158
I        2.27576356       3.80626769       0.59878895      -0.13203435      -0.05813593      -0.13301422      -0.66952558       0.70794038       1.22347274
I       13.15203051       8.68518305       3.05260930       0.33587720      -0.14747201      -0.19236050      -1.12379023      -1.28047262      -0.39164071
I        3.56401361       9.05743019       0.36800252       0.20045581       0.02989229      -0.03920285      -0.54894198      -0.27219916       1.23803513
I       11.72045635       3.08578412       2.91850170      -0.09558394      -0.04727711       0.01931545      -2.16992855       1.56097228       0.69769340
H        4.79857348       2.91731861       2.25742999      -0.00546402      -0.23472716       0.24970972       0.11169746      -0.00723591       0.05251370
H       10.52452361       9.83533724       1.66637259      -0.10528533      -0.25215148       0.29970500      -0.01841177       0.00739113      -0.26806705
H        1.16680178       8.14319128       4.09428161       0.29426352       0.07046602       0.05847637      -0.26902680       0.04597463      -0.12341772
H       14.43850925       4.22911851       0.13151317      -0.09026802      -0.30767041      -0.45388535       0.06794862      -0.24154829       0.07177257
H        5.48163483       1.66990112       3.54284373      -0.17094521       0.07923583      -0.41954031       0.15996969       0.09060765       0.04116737
H        9.99617643      11.55438121       1.34052002      -0.25672315       0.35635999       0.07076571      -0.04962990       0.12164863      -0.00499239
H        0.05440919       7.67235096       2.77883879      -0.61927933      -0.10553165      -0.49486199       0.08831822      -0.05984565       0.25260286
H       14.79166437       6.00093151      18.68316563       0.98215410       0.78415011      -0.58075548       0.00782440       0.23920136       0.04053752
H        5.08997967       1.11109647       1.80598711      -0.16933815       0.32303320       0.17859909      -0.09520731       0.04526855       0.10130373
H        9.95316094      10.24793724      -0.02127611      -0.12707479       0.37976622       0.47870851       0.03735822      -0.04251265      -0.12136071
H        0.53240105       6.51563174       4.08408093      -0.61283753      -0.95451677       0.54692412       0.07067882      -0.02510520      -0.05556278
H       15.06536956       5.14809744       1.48276178       0.83811724       0.13200292       0.65290236       0.19900280      -0.09945612       0.00145394
H        3.29958064       0.32388682       3.23715115       0.22325083      -0.00458409      -0.02726194       0.12754575       0.04040499       0.01701617
H       11.92482790      11.82451593      18.71000355       0.21508909      -0.03424058      -0.09849922       0.06936779       0.07047360       0.07911470
H        2.23519816       7.60232791       1.86033479       0.61762925       0.11695397       0.16566367       0.00558550       0.17676988      -0.22897360
H       12.50250407       5.84038836       0.09328235       0.39471743       0.08182499       0.21347214      -0.00411232      -0.02280249       0.02347361
H        2.64743319       1.73513683       2.19559121       0.02403017       0.02040312       0.26735398       0.08552652      -0.03970767       0.00114999
H       12.17608990      10.11772963      18.69828110       0.39472302      -0.20719816      -0.54221597       0.07902581       0.00081864      -0.08576705
H        1.83854734       6.01804033       1.94763382      -0.46585728      -0.47525433       0.03784943      -0.16486798       0.10850002       0.00709586
H       13.05028775       6.52868498       1.54302358       0.08456251      -0.31115557      -0.26095846      -0.09020236       0.01023842      -0.10864299
H        3.15700762       2.01406603       3.95706925      -0.06688891       0.05291239      -0.38887724       0.19253918      -0.12039982      -0.01829496
H       12.60212462      10.95119029       1.23939425      -0.54068622       0.05387606      -0.40270534       0.06690513       0.07782873      -0.10281005
H        2.88919143       6.57562936       3.11461175       0.37463477       0.14339254       0.35336328       0.08550850      -0.17924716       0.04722825
H       12.53255198       4.88255659       1.45399961       0.52317115       0.39554051      -0.10674624       0.02576283      -0.17081000       0.23407176
C        4.77545591       1.82550999       2.62540602       1.12627894      -0.19999832      -0.10168052       0.05129115      -0.03137468       0.04991282
C       10.46100852      10.64779038       0.91879564       0.48763166      -0.71074365      -0.80979822      -0.17216153       0.40214835      -0.06822504
C        0.85494472       7.30021693       3.44979297       0.25772644       0.63761513       0.02796429       0.06743754       0.35970605       0.46342861
C       14.49913295       5.22976041       0.57478729      -2.17656539      -0.34094838       0.37589425      -0.08335965       0.11919520      -0.58443275
Pb      37.69669739       2.29098728       0.26377819      -0.12215984       0.18449127       0.13426072       0.74043976       0.58415491      -0.28160989
Pb      16.29474700       9.67275938       2.72088729       0.05967263       0.05654695       0.24103026      -0.07789545      -1.08178962      -0.34728561
Pb       6.61192355       7.74478023       0.53252776      -0.29520271       0.27667425      -0.04804006       2.60095835       1.33034662      -1.92837785
Pb       8.72526209       4.40287213       2.83095366      -0.02900521      -0.20823864      -0.01930844       0.74973950      -0.80334567      -1.55783299
N        3.41148297       1.43982175       3.01572696      -0.79789004      -0.25152212       0.25618846      -0.03542576      -0.37621703       0.29341907
N       11.88588321      10.90051598       0.45849969       0.04079114       0.45162037       0.82605941       0.04482225       0.48606877      -0.33372396
N        2.00528817       6.82979028       2.57250328       0.29703880       0.46677236      -0.56016954       0.37534513      -0.14815319       0.21568602
N       13.08309300       5.65416260       0.94671968      -0.61686398      -0.36916536      -0.11909793      -0.13502773       0.21729966      -0.44974375
I       17.27736613       4.10227675       7.47852832       0.05323948       0.11872189      -0.06552340      -0.69953361      -2.14404572      -1.46040603
I       17.17592925       7.96356748       5.36404503       0.06440645       0.01508729      -0.12585480      -1.45412323      -0.77852178       3.09700385
I        7.41514743       9.90690228       7.61692716       0.13015101      -0.20998052       0.03932167       0.22823913      -0.28839220       0.83046369
I        7.87037975       2.41782508       5.01090199       0.10299800       0.25848103       0.39116325       0.46012877       1.77552591       0.20225736
I       15.18610138       1.17373470       5.10946842       0.36086656      -0.03510273      -0.07234067       1.46815965      -0.03548682      -0.80746001
I        0.12095709      11.22195451       7.59783053       0.09738021      -0.22838441      -0.10329435      -1.72863508       0.10021401      -0.14160219
I        9.63735227       6.54500556       5.12839292      -0.03432705       0.15795358      -0.02750056      -0.18711231      -0.24823069       2.36642908
I        5.84351558       5.61043480       7.40656575       0.08212072      -0.08995929       0.19048078       0.79918792      -0.71687877       1.51492225
I        2.07152062       3.90155432       5.17834720       0.13894340      -0.11083165       0.15606692       0.73184048       0.32236681       0.25701505
I       13.29040236       8.44300599       7.59950103       0.11920139       0.17050923       0.10912532       1.02027984       0.09908221       1.30416825
I        3.52149560       9.12528468       5.24914740       0.14056960       0.08306470      -0.07251344       0.96431946      -3.06580149      -1.16125567
I       11.99504260       2.99646154       7.52160718      -0.28538679       0.12311220       0.13119491      -1.69299367      -1.50987199      -0.47681172
H        5.27148013       0.95191992       8.63286383      -0.70283447      -0.12378769      -0.18657274       0.05109996      -0.06861423       0.09999008
H        9.89904684      10.32859562       5.76995998       0.22642941       0.22531868       0.10558002      -0.25490619      -0.11857557       0.13020250
H        0.90178024       7.98727090       6.96583635      -0.14168240      -0.30030871       0.34621451      -0.14135653       0.11944129       0.06139509
H       14.57825842       4.54928792       6.27137240      -0.41023519      -0.32409628       0.01911343      -0.25209863      -0.05659236      -0.00510742
H        5.47532266       1.65736478       7.02020950       0.37745207       0.36142026      -0.32038530       0.06971886      -0.19257199      -0.02707743
H       10.15040870      11.13216294       4.18517986      -0.08705396      -0.03308822      -0.07138122       0.11861072      -0.01518818      -0.00897948
H        0.07484754       6.36578603       7.22838113      -0.09309155      -0.10123181      -0.03461343       0.30310425       0.03157785      -0.05668945
H       15.13925379       5.21405937       4.72298355       0.43994424       0.26111888      -0.25722850      -0.00795501       0.04433989      -0.22504597
H        4.72273887       2.68260415       8.36417088       0.30985393      -0.56039096      -0.38672950      -0.28218813      -0.07291126       0.04073036
H       10.63558703       9.42027723       4.46813977       0.27880322      -0.88322998      -0.75181064      -0.00655983      -0.14122103      -0.20523471
H        0.64682269       7.37246524       8.83185898       0.20208073       0.04720850      -0.24959285      -0.19195816      -0.08435886       0.01437661
H       14.77392712       6.32012395       6.17266838       0.42299639       0.08618404      -0.41116392       0.21471886      -0.21518063       0.09583538
H        3.00742599       2.04751427       6.77824752       0.71115391      -0.68907279       1.00814356      -0.14694326       0.08846107      -0.06080655
H       11.92365061      11.83902050       5.75668201      -0.17053570      -0.24787868      -0.16881976      -0.04971302      -0.01123660      -0.01478219
H        3.25695291       7.17987499       7.85743939       0.10503083       0.06303937       0.59191456      -0.06925700       0.07089692      -0.11444878
H       13.03924465       6.37934412       4.24914014      -0.05796694      -1.20170830       0.59695598      -0.02650709      -0.09243023       0.12248527
H        2.78589683       1.14035469       8.18801318      -0.43989524       0.32113140       0.74903861      -0.13724417      -0.07427700      -0.15842241
H       12.56475985      10.98116265       4.45494406      -0.12652456      -0.33916443       0.35895111       0.18275851      -0.08947977       0.03322447
H        2.69032392       6.05711161       6.47184153      -0.35566466       0.17964348       0.16944514       0.03272431      -0.15456845       0.05719601
H       12.44172508       6.02781607       5.82166166       0.52546333      -0.40041261      -0.19619742       0.11402126       0.11346442       0.14677963
H        3.31964550       0.38107368       6.90301346       0.80654800       0.06748570      -0.12215787       0.10562711       0.18777523      -0.10772454
H       12.31855423      10.23169064       5.96974328       0.71604529      -0.60288417       0.25809604       0.03631461       0.05672145       0.01016836
H        2.43889707       5.61983319       8.21834675       0.24571024       0.58765881       0.00209829       0.28802022       0.22406630       0.06732300
H       12.69940201       4.60607743       4.75665567      -0.23049886       0.89676861      -0.06617895       0.17777290      -0.07906048       0.10468367
C        4.82492292       1.65720713       7.90367461      -0.55277959       0.63781799       0.27369406      -0.15835725       0.08375789       0.11510568
C       10.56649120      10.40316223       4.89132633      -0.33831074       1.07186486       0.62389274      -0.60830949      -0.33489327       0.06006727
C        0.89060239       7.09714652       7.65190860       0.75893130       0.13365353      -0.19685147      -0.81503921       0.46647177       0.56575671
C       14.50817936       5.42310999       5.57509893      -0.33323756       0.30247735       1.05263064      -0.45737916       0.32122189       0.23032215
Pb      37.57333559       2.32065068       4.80765510      -0.24645416       0.08202105       0.15890249      -2.07031135       0.05971376      -3.42362639
Pb      16.34288993       9.97616792       7.51677821      -0.44524419      -0.21985306       0.16398917      -2.73342852      -1.26833721       1.94636600
Pb       6.53279899       7.91343365       5.33391567      -0.09386661       0.12015908      -0.08284240       1.79852485       1.40662327      -2.04607154
Pb       8.97227085       4.43266131       7.53586903      -0.05137517      -0.48582622      -0.33503152       0.77569960      -1.77983478       1.21358650
N        3.44340284       1.29998639       7.43449591      -0.57397671       0.09224191      -1.16178439      -0.70765401       0.01101402      -0.22898896
N       11.92970722      10.88628563       5.28319912      -0.59339011       0.87614128      -0.17176522      -0.47222785       0.25663117       0.58287003
N        2.43210383       6.45779386       7.55420311      -0.57366342      -0.57543309      -0.64197986      -0.33156169       0.78080612       0.15561499
N       13.08711201       5.61773555       5.08272239      -0.42768438       0.35691877      -0.73076865       0.30801872      -0.23692343      -0.03115983
I       17.49007685       4.39284083      12.11318377       0.04669222       0.03272555       0.13832797       0.44151025      -0.03913989      -1.62785030
I       17.34658002       7.80593957       9.83713635      -0.22431870       0.27559657      -0.08023755      -2.17943900       1.02298157       0.29900312
I        7.42748873       9.72857906      12.28052826       0.03613671       0.04340840      -0.21720020       1.40480221       1.15629290       0.39021404
I        7.57866601       2.64604037       9.74079471       0.24293599       0.03723327       0.26734805      -0.52027317       2.26324806       1.24715058
I       15.35999397       1.27915418      10.19918282       0.02184159      -0.12382317      -0.19479827       0.69142031      -0.24917980      -1.77776265
I        0.35778171      11.11294517      12.29474618      -0.49758090      -0.18824950      -0.03623593      -0.00935526      -0.87208742       0.26735326
I        9.65045376       6.55566564       9.78447339       0.07582979       0.17103382      -0.00465055       0.30282522       1.31966520       1.37236199
I        5.65795501       5.75961460      12.35843716      -0.02803873      -0.05550161      -0.01291026       0.01504944      -1.58934782      -0.53800158
I        2.26941276       3.82233304      10.00380932      -0.13203435      -0.05813593      -0.13301422      -0.66952558       0.70794038       1.22347274
I       13.14567971       8.70124840      12.45762967       0.33587720      -0.14747201      -0.19236050      -1.12379023      -1.28047262      -0.39164071
I        3.55766281       9.07349554       9.77302289       0.20045581       0.02989229      -0.03920285      -0.54894198      -0.27219916       1.23803513
I       11.71410555       3.10184947      12.32352207      -0.09558394      -0.04727711       0.01931545      -2.16992855       1.56097228       0.69769340
H        4.79222268       2.93338396      11.66245036      -0.00546402      -0.23472716       0.24970972       0.11169746      -0.00723591       0.05251370
H       10.51817281       9.85140259      11.07139296      -0.10528533      -0.25215148       0.29970500      -0.01841177       0.00739113      -0.26806705
H        1.16045098       8.15925663      13.49930198       0.29426352       0.07046602       0.05847637      -0.26902680       0.04597463      -0.12341772
H       14.43215845       4.24518386       9.53653354      -0.09026802      -0.30767041      -0.45388535       0.06794862      -0.24154829       0.07177257
H        5.47528403       1.68596647      12.94786410      -0.17094521       0.07923583      -0.41954031       0.15996969       0.09060765       0.04116737
H        9.98982563      11.57044656      10.74554039      -0.25672315       0.35635999       0.07076571      -0.04962990       0.12164863      -0.00499239
H        0.04805839       7.68841631      12.18385916      -0.61927933      -0.10553165      -0.49486199       0.08831822      -0.05984565       0.25260286
H       14.79801518       5.98486617       9.27814526       0.98215410       0.78415011      -0.58075548       0.00782440       0.23920136       0.04053752
H        5.08362887       1.12716182      11.21100748      -0.16933815       0.32303320       0.17859909      -0.09520731       0.04526855       0.10130373
H        9.94681014      10.26400259       9.38374426      -0.12707479       0.37976622       0.47870851       0.03735822      -0.04251265      -0.12136071
H        0.52605025       6.53169709      13.48910130      -0.61283753      -0.95451677       0.54692412       0.07067882      -0.02510520      -0.05556278
H       15.05901876       5.16416279      10.88778215       0.83811724       0.13200292       0.65290236       0.19900280      -0.09945612       0.00145394
H        3.29322984       0.33995217      12.64217152       0.22325083      -0.00458409      -0.02726194       0.12754575       0.04040499       0.01701617
H       11.93117871      11.80845059       9.30498318       0.21508909      -0.03424058      -0.09849922       0.06936779       0.07047360       0.07911470
H        2.22884736       7.61839326      11.26535516       0.61762925       0.11695397       0.16566367       0.00558550       0.17676988      -0.22897360
H       12.49615327       5.85645371       9.49830272       0.39471743       0.08182499       0.21347214      -0.00411232      -0.02280249       0.02347361
H        2.64108239       1.75120218      11.60061158       0.02403017       0.02040312       0.26735398       0.08552652      -0.03970767       0.00114999
H       12.18244071      10.10166429       9.29326073       0.39472302      -0.20719816      -0.54221597       0.07902581       0.00081864      -0.08576705
H        1.83219654       6.03410568      11.35265419      -0.46585728      -0.47525433       0.03784943      -0.16486798       0.10850002       0.00709586
H       13.04393695       6.54475033      10.94804395       0.08456251      -0.31115557      -0.26095846      -0.09020236       0.01023842      -0.10864299
H        3.15065682       2.03013138      13.36208962      -0.06688891       0.05291239      -0.38887724       0.19253918      -0.12039982      -0.01829496
H       12.59577382      10.96725564      10.64441462      -0.54068622       0.05387606      -0.40270534       0.06690513       0.07782873      -0.10281005
H        2.88284063       6.59169471      12.51963212       0.37463477       0.14339254       0.35336328       0.08550850      -0.17924716       0.04722825
H       12.52620118       4.89862194      10.85901998       0.52317115       0.39554051      -0.10674624       0.02576283      -0.17081000       0.23407176
C        4.76910511       1.84157534      12.03042639       1.12627894      -0.19999832      -0.10168052       0.05129115      -0.03137468       0.04991282
C       10.45465772      10.66385573      10.32381601       0.48763166      -0.71074365      -0.80979822      -0.17216153       0.40214835      -0.06822504
C        0.84859392       7.31628228      12.85481334       0.25772644       0.63761513       0.02796429       0.06743754       0.35970605       0.46342861
C       14.49278215       5.24582576       9.97980766      -2.17656539      -0.34094838       0.37589425      -0.08335965       0.11919520      -0.58443275
Pb      37.69034659       2.30705262       9.66879856      -0.12215984       0.18449127       0.13426072       0.74043976       0.58415491      -0.28160989
Pb      16.28839620       9.68882473      12.12590766       0.05967263       0.05654695       0.24103026      -0.07789545      -1.08178962      -0.34728561
Pb       6.60557275       7.76084558       9.93754813      -0.29520271       0.27667425      -0.04804006       2.60095835       1.33034662      -1.92837785
Pb       8.71891129       4.41893748      12.23597403      -0.02900521      -0.20823864      -0.01930844       0.74973950      -0.80334567      -1.55783299
N        3.40513217       1.45588710      12.42074733      -0.79789004      -0.25152212       0.25618846      -0.03542576      -0.37621703       0.29341907
N       11.87953241      10.91658133       9.86352006       0.04079114       0.45162037       0.82605941       0.04482225       0.48606877      -0.33372396
N        1.99893737       6.84585563      11.97752365       0.29703880       0.46677236      -0.56016954       0.37534513      -0.14815319       0.21568602
N       13.07674220       5.67022795      10.35174005      -0.61686398      -0.36916536      -0.11909793      -0.13502773       0.21729966      -0.44974375
I       17.27101533       4.11834210      16.88354869       0.05323948       0.11872189      -0.06552340      -0.69953361      -2.14404572      -1.46040603
I       17.16957845       7.97963283      14.76906540       0.06440645       0.01508729      -0.12585480      -1.45412323      -0.77852178       3.09700385
I        7.40879663       9.92296763      17.02194753       0.13015101      -0.20998052       0.03932167       0.22823913      -0.28839220       0.83046369
I        7.86402895       2.43389043      14.41592236       0.10299800       0.25848103       0.39116325       0.46012877       1.77552591       0.20225736
I       15.17975058       1.18980005      14.51448879       0.36086656      -0.03510273      -0.07234067       1.46815965      -0.03548682      -0.80746001
I        0.11460629      11.23801986      17.00285090       0.09738021      -0.22838441      -0.10329435      -1.72863508       0.10021401      -0.14160219
I        9.63100147       6.56107091      14.53341329      -0.03432705       0.15795358      -0.02750056      -0.18711231      -0.24823069       2.36642908
I        5.83716478       5.62650015      16.81158612       0.08212072      -0.08995929       0.19048078       0.79918792      -0.71687877       1.51492225
I        2.06516982       3.91761967      14.58336757       0.13894340      -0.11083165       0.15606692       0.73184048       0.32236681       0.25701505
I       13.28405156       8.45907134      17.00452140       0.11920139       0.17050923       0.10912532       1.02027984       0.09908221       1.30416825
I        3.51514480       9.14135003      14.65416777       0.14056960       0.08306470      -0.07251344       0.96431946      -3.06580149      -1.16125567
I       11.98869180       3.01252689      16.92662755      -0.28538679       0.12311220       0.13119491      -1.69299367      -1.50987199      -0.47681172
H        5.26512933       0.96798527      18.03788420      -0.70283447      -0.12378769      -0.18657274       0.05109996      -0.06861423       0.09999008
H        9.89269604      10.34466097      15.17498035       0.22642941       0.22531868       0.10558002      -0.25490619      -0.11857557       0.13020250
H        0.89542944       8.00333625      16.37085672      -0.14168240      -0.30030871       0.34621451      -0.14135653       0.11944129       0.06139509
H       14.57190762       4.56535327      15.67639277      -0.41023519      -0.32409628       0.01911343      -0.25209863      -0.05659236      -0.00510742
H        5.46897186       1.67343013      16.42522987       0.37745207       0.36142026      -0.32038530       0.06971886      -0.19257199      -0.02707743
H       10.14405790      11.14822829      13.59020023      -0.08705396      -0.03308822      -0.07138122       0.11861072      -0.01518818      -0.00897948
H        0.06849674       6.38185138      16.63340150      -0.09309155      -0.10123181      -0.03461343       0.30310425       0.03157785      -0.05668945
H       15.13290299       5.23012472      14.12800392       0.43994424       0.26111888      -0.25722850      -0.00795501       0.04433989      -0.22504597
H        4.71638807       2.69866950      17.76919125       0.30985393      -0.56039096      -0.38672950      -0.28218813      -0.07291126       0.04073036
H       10.62923623       9.43634258      13.87316014       0.27880322      -0.88322998      -0.75181064      -0.00655983      -0.14122103      -0.20523471
H        0.64047189       7.38853059      18.23687935       0.20208073       0.04720850      -0.24959285      -0.19195816      -0.08435886       0.01437661
H       14.76757632       6.33618930      15.57768875       0.42299639       0.08618404      -0.41116392       0.21471886      -0.21518063       0.09583538
H        3.00107519       2.06357962      16.18326789       0.71115391      -0.68907279       1.00814356      -0.14694326       0.08846107      -0.06080655
H       11.91729981      11.85508585      15.16170238      -0.17053570      -0.24787868      -0.16881976      -0.04971302      -0.01123660      -0.01478219
H        3.25060211       7.19594034      17.26245976       0.10503083       0.06303937       0.59191456      -0.06925700       0.07089692      -0.11444878
H       13.03289385       6.39540947      13.65416051      -0.05796694      -1.20170830       0.59695598      -0.02650709      -0.09243023       0.12248527
H        2.77954603       1.15642004      17.59303355      -0.43989524       0.32113140       0.74903861      -0.13724417      -0.07427700      -0.15842241
H       12.55840905      10.99722800      13.85996443      -0.12652456      -0.33916443       0.35895111       0.18275851      -0.08947977       0.03322447
H        2.68397312       6.07317696      15.87686190      -0.35566466       0.17964348       0.16944514       0.03272431      -0.15456845       0.05719601
H       12.43537428       6.04388142      15.22668203       0.52546333      -0.40041261      -0.19619742       0.11402126       0.11346442       0.14677963
H        3.31329470       0.39713903      16.30803383       0.80654800       0.06748570      -0.12215787       0.10562711       0.18777523      -0.10772454
H       12.31220343      10.24775599      15.37476365       0.71604529      -0.60288417       0.25809604       0.03631461       0.05672145       0.01016836
H        2.43254627       5.63589854      17.62336712       0.24571024       0.58765881       0.00209829       0.28802022       0.22406630       0.06732300
H       12.69305121       4.62214278      14.16167604      -0.23049886       0.89676861      -0.06617895       0.17777290      -0.07906048       0.10468367
C        4.81857212       1.67327248      17.30869498      -0.55277959       0.63781799       0.27369406      -0.15835725       0.08375789       0.11510568
C       10.56014040      10.41922758      14.29634670      -0.33831074       1.07186486       0.62389274      -0.60830949      -0.33489327       0.06006727
C        0.88425159       7.11321187      17.05692897       0.75893130       0.13365353      -0.19685147      -0.81503921       0.46647177       0.56575671
C       14.50182856       5.43917534      14.98011930      -0.33323756       0.30247735       1.05263064      -0.45737916       0.32122189       0.23032215
Pb      37.56698479       2.33671602      14.21267547      -0.24645416       0.08202105       0.15890249      -2.07031135       0.05971376      -3.42362639
Pb      16.33653913       9.99223327      16.92179858      -0.44524419      -0.21985306       0.16398917      -2.73342852      -1.26833721       1.94636600
Pb       6.52644819       7.92949900      14.73893604      -0.09386661       0.12015908      -0.08284240       1.79852485       1.40662327      -2.04607154
Pb       8.96592005       4.44872666      16.94088940      -0.05137517      -0.48582622      -0.33503152       0.77569960      -1.77983478       1.21358650
N        3.43705204       1.31605174      16.83951628      -0.57397671       0.09224191      -1.16178439      -0.70765401       0.01101402      -0.22898896
N       11.92335642      10.90235098      14.68821949      -0.59339011       0.87614128      -0.17176522      -0.47222785       0.25663117       0.58287003