768
Lattice="31.343885341238796 -0.47746557187201905 -1.6062135899949226 -0.40744855527168355 29.62807268781774 -0.02279442302894619 -1.4504438450383712 0.04122985736401602 17.113936445534993" Properties=species:S:1:pos:R:3:forces:R:3:momenta:R:3 energy=-3338.193412048089 stress="0.0 0.0 0.0 0.0 0.0 0.0 0.0 0.0 0.0" pbc="T T T"
I        6.83925386       0.66534766       2.11216416      -0.01554866      -0.23197328      -0.06071422      -1.68605805      -1.85727978      -1.66254759
I        1.11572468       6.14735293       2.25984800       0.11354658      -0.06826993      -0.12496629       2.74455340       1.90995217      -0.99332211
I        5.79076360       1.33926730       6.14022088      -0.05901764      -0.14526572       0.27605391       0.58485681      -2.20325043      -1.21180241
I        1.46571966       6.18405175       6.75227778      -0.09363036      -0.09036959      -0.19370676      -1.31945527       0.10489185      -0.88993276
I        5.26507399       4.86448335       3.60820174      -0.25491191      -0.36155347       0.14761728      -1.70164346      -0.51625347      -1.16684053
I        2.18363821       2.43646469       8.98937349      -0.03863511      -0.16022927       0.03810396      -0.00508661       0.33319718      -0.32025817
H        2.48211063       3.55532172       4.27125607       0.15340347       0.51242012      -0.04421166       0.00489024      -0.08499928       0.00857969
H        4.23224102       5.01871116      15.40708188       0.03860415      -0.36443069       0.61347216       0.01973117      -0.07602366       0.07745724
H        1.10137527       2.44401759       4.14274657      -0.81036275       0.11659549       0.05108322       0.08137259       0.09536953       0.09140762
H        5.51171817       5.09382698      16.74986437      -0.10695118      -0.31818435      -0.09968386      -0.03993602       0.09246198      -0.34324075
H        2.03273090       2.53742197       5.73878215      -0.40996071       0.54977927      -0.91793480       0.04530116       0.18101602       0.07510773
H        4.18398773       3.76690414      16.82809008       0.23139148      -0.32217631      -0.28349108      -0.13261002       0.03657908      -0.07063405
H        3.00980428       1.40010431       3.15820982      -0.21040937       0.02813710      -0.21345029      -0.04874119       0.02379797       0.06679608
H        3.83489775       6.71056950      17.48364120       0.15530638      -0.35838707      -0.38516909      -0.10903890       0.01291712      -0.10785230
H        2.61570538       0.56171213       4.63144760       0.08642548       0.30387206      -0.11189290       0.06928869      -0.15498090      -0.00474165
H        3.41314762       5.30855145      18.33833693       0.02702203      -0.08759507      -0.33400944       0.12773949       0.06718442      -0.19652392
H        3.92841733       1.62857040       4.54444731      -0.30060552      -0.05245620       0.15986459      -0.06423222       0.13201025      -0.04890822
H        2.56549937       5.75321074      16.91520243      -0.14735753      -0.22431053      -0.18000200      -0.10749691      -0.15237604       0.14517154
C        2.05840779       2.62024408       4.61185382       0.38694007      -0.65125987       1.62612972       0.06948359       0.30495652      -0.46986783
C        4.45356092       4.78374219      16.49395365      -0.79796490       1.71840876       0.22437245      -0.08369368      -0.46230934      -0.43140752
Pb       3.78819032      14.88054706       8.57950843      -0.20665282      -0.27685545      -0.28470563      -0.27632903       1.01205570       1.93409963
Pb      -0.43647829      14.90149766       8.50250219       0.03937531      -0.13214002       0.37253688       0.61652532      -0.02278423       1.04966127
N        2.93932393       1.49107906       4.20886806       0.95837943      -0.65949818      -0.76681842      -0.14337676       0.30088812       0.39359245
N        3.50883313       5.68445787      17.33278300       0.55805699       0.01232478       0.54246812      -0.75800279       0.41191376      -0.74433511
I        5.28376164       8.29401062       6.55381233       0.12671542       0.18262692       0.23041375       1.58515930       1.02513363       0.63619526
I        1.41003415      13.98779433       6.18731225       0.19275097      -0.06683679       0.16509354       0.41997693      -0.17870791      -0.35579628
I        5.09457339       8.92545282       2.14601927      -0.02509880       0.08014838      -0.14386659       1.25302830      -1.54850213      -0.74730324
I        2.49024354      13.19497991       2.14826109       0.20560414      -0.04263792      -0.09831579      -0.01935028      -1.24702406      -1.69005471
I        4.73276185      12.26376310      16.64301310       0.00688848      -0.14178616       0.14546447       1.26319317       1.28700416      -1.68036422
I        1.40950150      10.14728668       4.66233906       0.01136533      -0.25476682       0.11419384       0.10152403      -3.36179441      -0.49985678
H        0.78661200       8.58979956       8.42748581       0.29033544      -0.40388925      -0.33440028      -0.14204221      -0.21121473      -0.04694200
H        5.87941044      10.82636984       4.44882576       0.04288043       0.00586644       0.09569819       0.09649805       0.05252856      -0.10159264
H        1.21958376       9.21010429      10.11860747      -0.03009006       0.34858721      -0.99002914      -0.13220961      -0.03310783      -0.04266774
H        6.39091707      12.41331817       5.35206701       0.19001672      -0.18774388      -0.30209037      -0.13031512       0.18696592       0.17494407
H        0.12068548      10.19379946       8.94354808      -0.39517563       0.01550698       0.20239944      -0.07820914       0.08142126       0.19074077
H        4.96450918      12.42550836       4.26941920      -1.16404045       0.34081132      -0.69174927       0.00106026      -0.04805310      -0.01494090
H        2.25977390      11.19167371       8.77486249      -0.45991846       1.51533330       0.84456692      -0.03521251      -0.23642470       0.08363295
H        7.74794565      11.90537473       3.25503474      -0.29717984      -0.31805484      -0.23901792      -0.10014401      -0.27288801       0.13213605
H        2.05370608      10.29325261       7.40795584      -0.12092652       0.02012792      -0.26645250      -0.03862204       0.03215419      -0.12582555
H        6.87032535      13.37105112       2.93788156      -0.11806209      -0.60526894       0.61044039      -0.09980934       0.18656177       0.10934092
H        3.04570633       9.79004582       8.66180361      -0.72683207       0.22782654      -0.26510547       0.20677176       0.04647944      -0.07021163
H        6.31863106      11.97979934       2.23472844       0.19656694      -0.78585176      -0.39704848       0.19986983       0.09201668       0.14526329
C        0.99926805       9.51055044       9.02269707      -0.57273184       0.42456754       1.24183110      -0.23098439      -0.34449681      -0.18184949
C        5.94255658      11.97809764       4.37468221       1.29306540      -0.19956743       0.59034303      -0.04877263      -0.10151191      -0.49689272
Pb       3.30240939       7.36092737       4.37449163      -0.27288002       0.09405916      -0.12514031       1.60807413       0.85651495       1.11348474
Pb       7.17263901       7.27443158       4.04570495       0.01260142       0.19899227      -0.05765620      -1.36291351      -1.33129991       0.60809233
N        2.12087687      10.25783647       8.44040458       1.93944642      -2.08121734      -0.76774991      -0.60424157      -0.41785268      -0.15072724
N        6.78619163      12.30180287       3.13425322      -0.23770946       1.71531256       0.35642801       0.52272497       0.84923809      -0.76466365
I       14.43961025       0.82159998       1.61979985       0.05184867      -0.21022944      -0.21096803      -1.28083799       0.34003750      -0.95055855
I        8.87051622       6.16105415       1.65700919       0.02794979      -0.12619942      -0.12773184       1.04936820       0.00208480       1.35150865
I       13.62702634       1.26310159       5.53257349       0.05712154      -0.02401967       0.06421134       0.40059014       1.38055013       0.61133735
I        9.04233101       5.86493016       6.03955870       0.10766482      -0.24056237       0.12652059      -2.33426313      -0.28649391       0.54294823
I       12.78890641       4.67100503       3.14953854       0.46405079      -0.07276440      -0.05200451      -1.05644353       1.69483377       1.78508555
I        9.74423193       2.37630397       8.38562774      -0.08624959      -0.16890522       0.12611825       2.39931653      -3.08438808      -1.38390722
H        8.88924619       2.51163510       3.70612208      -0.20132042      -0.14388380       0.03885543      -0.01520192      -0.03775851       0.16711184
H       12.59588567       4.61881773      15.02644995       0.02234134      -0.59322668       1.51375609       0.16504813      -0.05503634       0.21435608
H        9.98767959       2.21080379       5.11091347       0.11627822      -0.09636193       0.75805892      -0.25507790      -0.13748144       0.23159909
H       13.50433846       4.23875383      16.60312926      -0.63135857       0.22963903      -0.08734919      -0.26550452      -0.08009679      -0.24337944
H       10.49778204       3.38155006       3.78884096      -0.44416277      -1.24433011       0.51478958       0.23231865      -0.05046883       0.08855603
H       11.88856439       3.45491131      16.31638554      -0.27394452      -0.10307845      -0.01974796       0.07963381       0.18368629       0.01512262
H       10.50580919       1.31635965       2.24794932       0.01975101       0.46958807      -0.01577667      -0.04638298       0.08769265       0.15465878
H       10.73843829       5.58670991      16.56907099      -0.65516081      -0.02714805      -1.15470580       0.18281740      -0.30193508       0.26947795
H       10.29526133       0.33370900       3.57858691      -0.57678174      -0.09887984       0.28532352      -0.16214647      -0.06690063       0.04956037
H       12.18145734       6.47792948      16.46019258       0.07187724       0.24469632      -0.43577853      -0.07758822       0.18619682       0.09656336
H       11.60010807       1.26747367       3.51706434       1.04989519       0.21485391       0.23810695       0.09060724      -0.10136636      -0.09731958
H       11.76968812       5.55469779      17.79805537       0.24679825      -0.10768622      -0.37715942      -0.05278733       0.04779011       0.03693807
C        9.94142733       2.40950228       4.05964731       0.35337733       1.28113730      -1.60025398       0.46626705       0.10824781       0.35829500
C       12.47480267       4.37280910      16.14685057       0.50327257       0.79057734      -1.83460470      -0.60952023       0.40858604       0.08787807
Pb      11.49496394      14.63351736       7.81261150       0.39808796      -0.01801531       0.04920504       0.04990815      -0.88596438      -1.24509671
Pb       7.74810749      14.60082173       8.08331216      -0.22917736      -0.03529467       0.03574004       2.28135915      -0.05572300      -0.88756794
N       10.60468471       1.27928800       3.29854375      -0.30783265      -0.22301193      -0.08103480      -0.30780306      -0.29734651       0.41217922
N       11.75917335       5.56857846      16.72495228       0.70065611      -0.49730431       2.36083851      -0.24634820      -0.64872234      -0.06599452
I       13.09648376       7.97671856       6.19074443       0.02444610       0.15451541      -0.28395952       1.09616585      -1.32378047       0.53135750
I        9.46776619      13.63085001       5.44532112       0.01182439       0.00760453       0.17574138      -2.42404979      -0.07171415      -3.52384617
I       12.74572553       8.63094121       1.47805795       0.11204987       0.10393312       0.08353545      -1.51944747       0.86073675      -1.39748903
I       10.45388180      13.20861800       1.37569753      -0.08392188      -0.43037205       0.52080114       1.36906256      -1.38407343      -1.60667509
I       12.76745265      11.97695484      16.36731668      -0.20735743      -0.19062299      -0.15711590       2.66409763      -0.21469102       0.87056429
I        9.15372532       9.79294861       4.09585329       0.18386209       0.17898326       0.13734914       4.14246095       1.03926709       1.30083187
H        9.02504624       9.59995004       9.36142316      -0.03629383      -0.22900571      -0.53936545      -0.12172938      -0.05335361      -0.00288908
H       12.39415105      12.08721740       3.67132926       0.61636006      -0.24777998       0.34511641       0.08088332       0.05511918      -0.03671544
H        8.11601917       9.92752684       7.86718440      -0.65366319       0.70849453      -0.44032353       0.11655041       0.00526309       0.07547262
H       13.36620824      10.63173347       4.26966465      -0.17058131       0.29994841      -0.15015734      -0.01133508      -0.08777094       0.12316289
H        9.11175685       8.49248217       7.90047323       0.18411645      -0.61718842      -0.12426855      -0.14280180       0.08063855       0.11650215
H       13.77932287      12.25263089       4.83584040       0.58435393       1.14082222       0.89761625       0.18314687       0.04807874       0.14555489
H       10.13844204      11.29512175       8.02231339       0.00545699       0.24338237       0.26938800      -0.06076732       0.07617962       0.22310035
H       14.00161588      11.30230216       1.97424051       0.03535002       0.19322382       0.51901249       0.07580134      -0.01054922      -0.00663949
H       10.30441375      10.19883976       6.72763811      -0.13617994       0.16257660      -0.48794998      -0.15314336       0.01696747      -0.07387711
H       15.26283483      11.45605329       3.04196879       0.15566642       0.09142657       0.04965010       0.21206625       0.07272045       0.01937242
H       11.08993611       9.92658584       8.17077449       1.12704423      -0.60515490       0.50743356       0.25241513      -0.00658413      -0.09437374
H       14.45985037      12.85787218       2.40744575      -0.19846248      -0.99201800       0.90497509       0.02768349       0.10755191      -0.01649305
C        9.03847203       9.51695156       8.23772854       0.54457763       0.07160535       1.41030809       0.08650992       0.62262855       0.33328672
C       13.39603689      11.71732372       4.00415296      -0.55672316      -0.98369966      -2.05225750      -0.17550628       0.03344472      -0.12067008
Pb      11.02027558       7.04377621       3.75865733      -0.05461582       0.30663192       0.11056494       1.16577589      -0.78900174      -1.59270902
Pb      15.05220279       7.15916717       3.65604418      -0.36876459       0.04614896       0.02258599      -0.05506933      -0.30039334       2.72538744
N       10.22407133      10.28270415       7.76640454      -1.24260556       0.15038114      -0.93073602      -0.41852505      -0.14384260      -0.02338172
N       14.33855623      11.85600067       2.80482176      -0.46111245       0.42225759      -0.46883256      -0.39699551       0.35771976      -0.08128428
I        5.81106878       0.79759749      10.70760156       0.22339716       0.01101644       0.07610895      -0.01404465       0.81660217       0.69652407
I        0.38106678       6.01423374      10.82372151      -0.07479256       0.16374939       0.17703491      -2.51653627       1.27979642      -0.99096790
I        5.12722685       1.65437120      14.89313258       0.03059653      -0.28558438       0.08090186      -0.34458403       0.16153535      -0.12390832
I        0.60870265       6.02032331      15.15933908       0.02076156      -0.00585347      -0.09806031       0.61194813      -2.28950345       0.00071869
I        4.74277090       4.72241438      12.32020524      -0.31559259       0.39647661      -0.10329609      -1.17787877      -0.29363831       3.21835931
I        2.78217489       2.37125763       0.48732162       0.06565655       0.03309668       0.25906780       1.34101899       1.16676270      -1.25551707
H        1.59563025       3.71686976      12.54826102      -0.02398085      -0.88273161       0.28471590      -0.04317782      -0.08264768      -0.13392465
H        5.01568626       4.84393831       6.83935608      -0.11965569       0.29639622      -0.42585307       0.01499856      -0.08624258      -0.01916878
H        0.47703735       2.20366759      13.23962194      -0.44182131      -0.08861171      -0.29194305      -0.12280484       0.12583423       0.16041794
H        6.34400234       5.06407278       8.08039740       0.35448561      -0.11127985       0.17857351       0.20374913       0.03251231      -0.06410948
H        1.98712198       2.79681462      14.32589871      -0.02728835       0.32454939      -0.48788385       0.30663806       0.13223869       0.05060265
H        5.11185233       3.67679588       8.24765444      -0.11779783      -0.22125932       0.16686033      -0.12473574       0.09134474       0.11354692
H        2.44495440       1.75009342      11.52628382      -0.18281926      -0.07896374       0.46403613       0.08234382      -0.07174412      -0.07987617
H        4.66391213       6.61840755       8.54778526      -0.08470358      -0.06799350      -0.00683677       0.06555870      -0.06867381      -0.07703038
H        2.08773086       0.72393909      12.82132100       0.03574532      -0.38336461       0.20422946       0.01238134      -0.03319322      -0.14174890
H        4.35266922       5.47201242       9.74911940       0.34054023      -0.29974691      -0.34860758      -0.15701388       0.19931423      -0.00312334
H        3.46277619       1.68927028      12.85243751      -0.29896819       0.20577495       0.33482310      -0.05843287       0.02902091      -0.16673066
H        3.41412722       5.57254198       8.37442317      -0.95328430      -0.02158562      -0.38472809      -0.08582046       0.22060392       0.04391995
C        1.57821996       2.67242890      13.20646513       0.49238277       0.77194218       0.97055865       0.20408038       0.12563277       0.21476883
C        5.26730988       4.74116576       7.91673988       0.12199028      -0.27706345       0.43333443      -0.58595485      -0.29347441       0.05276937
Pb       4.40988769      14.82932264      -0.17628202      -0.13457123      -0.19816469      -0.14879798       0.45781411       1.51414458       1.00359188
Pb       0.52654419      14.89757044       0.43911625      -0.45455873      -0.05816224      -0.33050851      -1.26453508       1.00225701      -1.06953862
N        2.45060659       1.65670204      12.58203187       0.34489221       0.17455625      -1.55323945       0.23901303      -0.60525488       0.75451375
N        4.36989693       5.62860785       8.70831138       0.56846150       0.63700150       0.62731138       0.45620534      -0.62489532       0.44140126
I        4.48771411       8.36260735      15.15617665      -0.05482659       0.09508345      -0.02371171       0.58114969       1.20848128      -0.43864436
I        0.40510055      13.81244515      14.91950554       0.32999530      -0.06592089      -0.16553433       0.19547577      -0.62296898      -0.27000322
I        4.57516412       8.94237492      10.83413453      -0.19081773       0.05133482      -0.22464840      -0.56426660      -0.00039711       1.21495333
I        1.82551735      13.16906227      10.39842530      -0.20646954       0.02879512       0.22408714      -2.50951090       1.51375107       1.57697712
I        5.50388305      12.11940872       8.35604428       0.07237067       0.09079128      -0.18112953       0.21662686      -1.23092990      -1.70373116
I        0.63734433       9.86774984      13.38303489       0.04547095       0.15083487      -0.17601070      -0.61460670       2.43520126      -1.67725910
H        1.24896199       8.51693192      -0.26919394       0.27934989       0.63036374       0.29813508      -0.07179341       0.14248040       0.07463444
H        4.85975641      11.21673131      13.30151427      -0.22388012       1.51399722      -0.32936924      -0.06929262       0.04212135       0.09644997
H        2.07525709       9.03463481       1.51611028      -0.19471057      -0.33215049       0.01334751       0.22620164      -0.06088712       0.21376277
H        5.42872364      12.91362639      13.78589847      -0.32917799       0.19571940       0.41423774      -0.04029271       0.05322282      -0.17294359
H        0.54149135      10.09696872       0.79021163       0.26949096       0.26684895      -0.33238356       0.07422653      -0.01802795       0.03022043
H        4.01554455      12.72055316      12.57611920       0.06136244       0.05305907       0.33617411      -0.04712146      -0.00412132       0.13948445
H        2.81005176      11.11788819       0.31624186      -0.37825813       0.57834113       0.43338341      -0.00170252       0.04173771      -0.04833327
H        6.87299354      11.79892419      12.14984596      -0.85136768       0.50733761       0.11255906      -0.04250271       0.09369032       0.12900058
H        2.39611765      10.46562312      -1.19125145      -0.29579197      -0.05784074      -0.80529709       0.02932933      -0.06525312      -0.16195894
H        6.25799820      13.25532730      11.43588280      -0.38442040      -0.17822197       0.62335266       0.17747097       0.13111584       0.13251005
H        3.53927155       9.70268045      -0.21649415      -0.26947528      -0.07325585       0.08735029      -0.02076770       0.10384329      -0.13937689
H        5.61819806      11.76144772      11.09679291      -0.21665199       0.00567758      -0.29670495       0.19846562       0.02865195       0.01036584
C        1.53547443       9.40745042       0.48615160       0.22057472      -0.12773895       0.28126606      -1.36372060      -1.08784936       0.01888076
C        4.96472689      12.32435290      12.99265885       0.51238104      -1.40757427      -0.08720165      -0.52121336      -0.40504237       0.10343755
Pb       2.57847296       7.33631978      12.79809046       0.07090304      -0.32078180       0.16253879      -0.11621663       0.89229973      -0.26248276
Pb       6.52903651       7.41369436      12.78379973       0.08102990      -0.36171753       0.03864393      -1.65638408      -2.32577369       0.15842777
N        2.60234927      10.23144079      -0.19690959       0.46704117      -0.67830014       0.05747261       0.02889975      -0.09279350       0.05699901
N        5.96783705      12.32520862      11.88664672       1.43894242      -0.68107539      -0.81831066       0.36206302       0.09153428      -0.55605372
I       13.89867257       0.82147515      10.16408933      -0.05585407      -0.21477166      -0.23687967      -0.02904869       0.78329382      -1.00627194
I        8.28694947       6.22144611      10.41089000       0.01210141      -0.01947890      -0.12316494       1.55157396      -0.20934735      -1.06399300
I       13.06448220       1.08623324      14.16563269      -0.19259006       0.26704449      -0.21931596       1.03224169       0.21436981      -0.21311986
I        8.72064163       5.99256295      14.70901802      -0.01563434      -0.06073668       0.09624691      -1.38261992      -2.50982871       0.95753842
I       12.19023805       4.70241057      11.76334355       0.23969805      -0.04519086       0.05994145      -0.57450670      -0.44926545       1.82449994
I       10.53761280       2.27582729      -0.03618807      -0.00467077       0.00865672      -0.16670982       0.45103655       0.21273750       1.36107815
H        8.26285400       2.45712154      11.95204410      -0.95725386      -0.22311397      -0.52694927      -0.03004891      -0.06438348       0.17644443
H       12.80976339       4.83832305       6.50582086       0.08644295      -0.29832842       0.16653580       0.16046811      -0.03036194      -0.05246893
H        8.94575633       2.13573373      13.62277653      -0.12558656       0.20601532      -0.12197500      -0.00711202      -0.09694259       0.18945496
H       13.82411786       4.88841472       7.99379007       1.35908254       0.15123478       0.28380602       0.05787748      -0.07848616       0.09603519
H        9.58941703       3.59214623      12.64463144       0.14329650      -0.23185417      -0.32503483      -0.10812506       0.03699487      -0.04847653
H       12.62375257       3.57817620       7.85517356       0.02791115      -0.04442777      -0.30056035       0.02470249      -0.07706194       0.12326457
H       10.24584288       1.60889251      10.96429650       0.20480587       0.55536487      -0.07566831       0.07642861      -0.02210957      -0.08728494
H       10.81402713       5.23409833       8.01696214       0.31315800      -0.04198699       0.05772517       0.14638907       0.03323346      -0.17679082
H        9.91683959       0.62634629      12.21193388       0.39266892       0.14195164       0.36586709      -0.31882422       0.01748676       0.15980978
H       11.93644847       6.57159795       7.99332517       0.00895361      -0.64499066       0.02745624       0.16808285       0.02437368       0.01660132
H       11.16346672       1.80386349      12.41855340      -0.36063235      -0.28741265      -0.12677107       0.03497608      -0.09334950      -0.01711061
H       11.97530355       5.38419496       9.30349215      -0.21386763       0.10578609       0.18512749      -0.09013750      -0.04628361      -0.01979712
C        9.18026964       2.51013629      12.54622935       0.38717695       0.80019089       1.73470311      -0.18239533       0.21636144       0.09446909
C       12.87054448       4.62676693       7.58378562      -1.57221676       0.39666214      -0.19290992       0.17930715       0.43650665       0.14673086
Pb      12.38826349      14.56789840      -0.67397854      -0.09626188       0.23592984      -0.17440589      -2.05153288      -0.23781989       0.63527035
Pb       8.41344646      14.71738233      -0.37831237      -0.39102862       0.09182035      -0.21281728       1.47523329      -1.50898727       0.55072396
N       10.20603864       1.61230347      12.01152832       0.22286103      -0.94995851      -0.98605331       0.00179761      -0.18927279       0.24684081
N       11.83287464       5.51010810       8.26702979       0.08283828       0.18397516      -0.17872079       0.04601905       0.35219420       0.15953596
I       12.75563066       8.32297301      14.60865813      -0.07844781      -0.03627194      -0.09830658       1.02892639      -1.28400800      -0.06987548
I        8.52721194      13.68680049      14.31446920       0.26991988      -0.09244595      -0.33557306      -1.29552700      -1.66510080       0.28281513
I       12.32146882       8.60312530       9.97939468       0.19590436       0.13986113       0.31183585       1.79851598       1.00851208       0.53195324
I        9.67004832      12.90381584       9.90198688       0.00739529      -0.01441009       0.34862250       0.06654575       1.35166910       0.93390405
I       13.37820162      11.96428065       7.70628504       0.02428364      -0.00024045      -0.06782717       2.22324474      -0.15633724      -2.57590713
I        8.54833427       9.82368157      12.69268585       0.08529565       0.45064883       0.21210909      -0.75125346       0.22370757       1.81214541
H        8.77417893       9.75419274       0.75729579      -0.18600362      -0.40922539      -0.15309703       0.13554715       0.10011625      -0.02730661
H       11.51842687      12.10774880      12.18130558       0.35844420      -0.60774430      -0.06966535      -0.10615259      -0.01006538      -0.11625846
H        8.20398362       9.80773774      -1.14566529      -0.20185081       0.36047429      -0.34731653      -0.12387578      -0.02299707       0.12234649
H       12.80379530      11.17318677      13.35953240       0.04020568       0.68778697      -0.24236997       0.03293429       0.13683149      -0.05448694
H        9.43619632       8.39776036      -0.61500585      -0.24056464      -0.47834209       0.18663797      -0.12164838      -0.12363625      -0.05897121
H       12.74891046      13.20014666      13.07738655       0.19593534      -0.68882713      -0.09137864       0.07368892      -0.01868461       0.08322954
H       10.07766559      11.29408703      -0.43919000       0.42271286       0.50128439       0.02624589      -0.14242051       0.00437018       0.12904640
H       13.24068893      10.98313451      10.85378367      -0.14730439       0.16369851      -0.46722027       0.16891950       0.11848794      -0.03793456
H       10.86270739      10.04691949      -1.68600550       0.08558149      -0.04378482      -0.39245323      -0.19607989       0.01642965       0.15308730
H       14.48712767      11.69897776      11.77932043      -0.24543914       0.26132959      -0.20324250       0.02779038      -0.00260939       0.11501136
H       11.28114001       9.99107800       0.29418858      -0.35713600       0.08829684      -0.23129143      -0.10138871      -0.15012358       0.11203036
H       13.55171499      12.80375797      10.72859232      -0.35222691      -0.47815600       0.23841051       0.16800038      -0.11281128       0.11970633
C        9.08045306       9.47817452      -0.39408340       1.44955251       0.38861019       0.23836431      -0.44200741      -0.15100214       0.27287313
C       12.58631022      12.06809732      12.60172885      -0.08593732       1.09717113      -0.41821735      -0.28900169       0.37003093       0.45540455
Pb      10.48788532       7.31043008      12.42206488       0.02696805      -0.08672833      -0.01501097      -1.57303471      -0.15282913      -2.16962762
Pb      14.44653844       7.09593889      12.22906551       0.06230602       0.01270141      -0.13679453      -1.45901407       0.45722198      -0.66365519