768
Lattice="38.36233378009021 -0.17091669423460434 -0.23415642229604455 0.13860846621712591 21.550492846406996 -0.023849043928523623 -0.012701609790407587 0.03213069133637567 18.81004073834508" Properties=species:S:1:pos:R:3:forces:R:3:momenta:R:3 energy=-3316.5580929709845 stress="0.0 0.0 0.0 0.0 0.0 0.0 0.0 0.0 0.0" pbc="T T T"
I       18.30301895       4.81212113       3.54388205      -0.11501727       0.25218474       0.08566994      -1.47319121      -1.60950894      -0.22947263
I       18.23096703       8.63857297       1.19764910      -0.22357184       0.16999033      -0.38172209       2.04272108      -0.93723313       1.30102041
I        8.39664537      10.67947123       3.11465133      -0.20987517      -0.29036219       0.33775958      -0.33012503      -0.85330017      -2.47637702
I        8.63035160       3.24915749       0.72798651      -0.08502744      -0.14519043       0.42406887       1.96577366       0.25211240       2.44681528
I       15.77951108       1.74088137       1.48127164       0.60389510       0.03270745      -0.04219395      -4.16964469      -0.96664023       4.17881052
I        0.83582459      11.87865808       3.73438710       0.28295882       0.18498039      -0.44776880      -1.74300355      -1.74015795       1.04439949
I       10.05247496       7.23156244       0.95997154       0.33256341       0.25833077      -0.00003264       4.21371330       5.37367727       1.71864133
I        6.62193128       6.56603643       3.61567830      -0.16209123      -0.24957607      -0.08389275      -2.14733068       2.36289775       0.89189329
I        2.99304912       4.81764877       1.36470324      -0.09264138      -0.50919653      -0.24043987      -1.66820927      -0.12380018       0.20451632
I       13.91181369       9.27494141       3.31043215       0.13421365      -0.08582552      -0.01125677       0.31141637       1.43524019       2.16761733
I        3.98162633       9.66966163       1.24519155       0.09972342       0.55824010      -0.12234974      -1.14611211       1.09912489      -0.24155729
I       12.38177112       3.93136808       3.17192886       0.09168172      -0.50510980       0.06047655       1.19780873       3.72798353      -2.99542151
H        5.50800583       3.44536751       2.39273101      -0.46688422       1.46895927      -0.62798569       0.24226409       0.09708370      -0.03647526
H       11.36375104       9.88322828       1.65875800      -0.42720330       1.15725954      -1.00750722      -0.03300624       0.14614026      -0.18087873
H        1.86376625       8.63824130       4.25500598      -0.44091051      -0.10537076      -0.05878902       0.01682530      -0.32438694       0.25799731
H       15.26388337       5.10932289       0.16059348       0.11556783       0.94813499       0.30811278       0.24823564      -0.04171864       0.30433522
H        6.66464575       2.58144139       3.50422064      -0.29022152       0.08000039       0.39389624      -0.02887861       0.15268456      -0.05129481
H       10.89860039      11.67976591       1.69555142       0.01135909      -1.06518887      -0.79021714      -0.25824579       0.01809899      -0.27784455
H        1.25331218       7.78348752       2.68482958       0.44791939       0.08884928       0.71662854      -0.13702847       0.05345495       0.35476596
H       15.40208091       7.07319196       0.06621663      -0.15806061      -0.92524749       0.29515466       0.10718883       0.09784447      -0.09183909
H        6.00697547       1.82992277       2.01567154       0.30092827      -0.51389818      -0.26386102      -0.15246263      -0.07070961       0.08186201
H       10.76350602      10.76601305       0.08967827      -0.53755635      -0.20327633      -0.40126328       0.08178930      -0.01960336       0.07102058
H        1.38406070       6.84461044       4.24687367      -0.15460533       0.60844706      -0.03540815      -0.08159392       0.15564452       0.11308109
H       15.89209655       6.11976689       1.56571790       0.21032232      -0.05544754      -0.22330068      -0.08136919       0.16740193       0.22586928
H        4.81346974       1.01760020       4.03851415      -0.12986277       1.23620731       0.16621788      -0.27551442       0.12610681       0.08416406
H       12.87574305      12.29766475       0.37734582      -0.45041581      -0.05078542       0.22325113      -0.15154579      -0.35112107       0.19944261
H        3.78072249       8.02680477       2.91577833       0.07699590       0.51138465      -0.75204343       0.03608309       0.09119531       0.11688086
H       13.11156023       6.55627816       0.49019230       0.45778447       0.01808167       0.17791508      -0.08024175       0.11279495       0.02415349
H        3.74459144       1.69323132       2.97746017       0.21546766       0.51810031      -0.18278421       0.07462915       0.21776070      -0.20011706
H       13.03066114      10.65088202      -0.02626363       0.98628578      -0.67777995      -0.24316207      -0.06068323       0.21471339       0.04778889
H        3.21272343       6.41812758       2.74650192       0.25936088       0.50184811       0.27104426       0.07066858       0.11503356      -0.25655059
H       13.84966782       7.17936669       1.85910771      -0.54608804      -0.53416331       0.13765916       0.09471510      -0.08656177       0.13782407
H        4.24989993       2.69367036       4.20970277      -0.82427895       0.24992463       1.00574350       0.33683240      -0.21432320      -0.07852667
H       13.38648850      11.17093904       1.59677855       0.57131534      -0.07923098       0.69382585       0.19706327       0.20820761       0.09467527
H        3.82791014       7.02797336       4.21235406      -0.55843640      -0.07102211       0.15840356      -0.45546619      -0.09309707      -0.08957758
H       13.31786532       5.51534063       1.68486322       0.05205076      -0.89249224       1.25876679       0.23343921       0.02809437      -0.05669634
C        5.73707901       2.52138226       2.84224329       1.24025441      -1.26605276      -0.29160301      -0.25877855       0.52310567      -1.12770116
C       11.29547569      10.84462422       1.04085066       1.07437708       0.94920508       2.42604353       1.06150877      -0.11926619      -0.05031529
C        1.80113778       7.70037915       3.67998872       0.86725160      -0.65748150      -0.24632815       0.55432760      -0.71596890       0.94793803
C       15.19884981       6.12467691       0.69129432      -0.34078075      -0.35825254      -0.07373389       0.32797212      -0.60899228       1.82490143
Pb      38.35884942       3.40984224       0.92748762       0.19507700      -0.37901707       0.42154336      -0.78491389       3.15547407       6.34428522
Pb      16.86205854      10.58756465       3.23731346       0.42864448       0.00865621       0.04680292      -6.81935555      -1.71323716      -1.85277308
Pb       6.99885214       8.72484227       1.16765464       0.19417358      -0.13168047      -0.59138890       0.38162325      -3.18463582      -0.06604584
Pb       9.47461649       5.14395553       3.15769040       0.00646237       0.05704712       0.41595605      -0.03949660       1.59314815      -5.56860885
N        4.57873307       1.97849779       3.57235537      -0.11837805      -1.67761565       0.12063496      -0.25417505       1.05755350       0.11347391
N       12.74511044      11.27884786       0.76132653      -1.14679404       0.55500170      -1.03034689       0.20514940      -0.17384323       0.67282445
N        3.24865364       7.27829070       3.38424669      -0.63191781      -0.74316635       0.48771081       0.31066278      -0.27279371      -0.31088896
N       13.78430730       6.31478194       1.25332844       0.13892695       1.95669483      -2.09065028       0.08589134       0.51813672       0.62408299
I       18.15674003       5.12106425       7.95193911       0.05163419       0.10233200       0.39329150      -0.25104108       0.26542236       0.10493831
I       18.08546172       8.95774996       5.70066059      -0.20390793      -0.14484412       0.09339807       1.01491105      -1.07961144      -1.21060498
I        8.50118588      10.76606491       8.01180702      -0.12762829      -0.05139005       0.31528264       0.76073962       1.66819158       1.81439533
I        8.72981732       3.13776486       5.73673402      -0.19496122      -0.12585719      -0.43809072       1.07751885      -4.10850706       2.27979149
I       16.64049519       1.94233760       5.62022666      -0.75969515      -0.13174800       0.18568244      -1.71232285      -1.80347700      -2.44641712
I        0.90823962      11.81792893       8.29439899      -0.26129224      -0.03425268      -0.10584751      -1.80090443      -0.23958002      -1.31868065
I       10.60047163       7.38002964       5.66301906      -0.38414289      -0.39349504      -0.08455029      -2.55026724       1.20427201      -1.10886738
I        6.47072826       6.57034372       7.92033599       0.05570255       0.08916847       0.00001244       0.10875027       0.30389576       1.09751186
I        3.06527529       4.72897318       5.87387131      -0.18459251      -0.04669563      -0.47502844      -0.14218191      -3.43986868      -0.97186236
I       13.82001444       9.41526105       7.49902585       0.01343263      -0.10582046       0.28236749       0.76741832       0.11098562       0.84187802
I        4.57695325       9.70573046       6.17996910      -0.20865245       0.35703784      -0.33050147      -0.88134784      -0.26980480      -1.40273344
I       12.39263103       3.91930803       8.38098229       0.04082442       0.05899674      -0.03972230      -3.07602978      -2.11478798      -0.07509113
H        5.90074535       1.32023297       8.29201416       0.59738640      -1.00945689       0.55163571      -0.06805580       0.10551538      -0.25871927
H       10.40732085      11.70603533       6.10275019       0.76090028       0.18433322      -1.40191951      -0.40749942       0.03654599       0.28257547
H        1.78469891       8.88386974       7.49913592      -0.26965982      -0.55246167       0.03564487      -0.01957536       0.29452333       0.12935060
H       15.32007084       4.95793105       6.75400351      -0.54583381       0.53340621      -0.32878488      -0.10539695       0.04327918       0.04766056
H        6.22795882       2.53985908       6.98157835       0.17279109      -0.09493052      -0.22584519      -0.24140014      -0.03426260      -0.22632997
H       10.87078598      12.22809393       4.25928340       0.08603182      -0.53012027       0.33400945       0.11815444      -0.49417236      -0.15251941
H        1.63215157       6.99222426       7.27879488      -0.18154911      -0.38119938      -0.71010592       0.00486378      -0.02718715      -0.02942764
H       15.91341709       5.51486563       5.06219383      -1.11381923       0.48615734       1.52227202       0.14651075      -0.17486504      -0.25621359
H        5.74245837       3.12704624       8.66407746       0.32360058      -0.18028068      -0.26181343      -0.09690460      -0.02248079      -0.54301447
H       11.18164513      10.39425043       4.85536677      -0.38818598       0.20675621       0.08236076       0.27414419      -0.06616084      -0.37776778
H        0.85758378       7.83015181       8.75760943       1.83818744      -0.48052703      -1.52082547       0.00364795      -0.02620698       0.08424343
H       15.57842631       6.87324286       6.38554255      -0.55417333      -1.45935074      -0.97880199       0.29179123      -0.27426773      -0.10538587
H        3.88417854       3.15191169       6.81115383      -0.23990534       0.09094055      -0.12083474      -0.05337638      -0.04111242       0.08592051
H       12.67473140      12.92112528       5.92350205      -0.52281323      -0.68695554       0.02592507      -0.08302386      -0.15403687      -0.10020987
H        3.37617879       8.49234502       9.27257209       0.06282744       0.24701996      -0.27845461      -0.11751958      -0.15753970       0.07893854
H       13.72977176       6.85487717       4.78364424       0.60765195       1.17035565      -0.63061603      -0.15449775      -0.06110251      -0.08233350
H        3.43147676       2.30256271       8.22215579      -0.43417253       0.03323782       0.56655026      -0.25198622       0.04458789      -0.31970153
H       13.33190584      11.72988342       4.87969722       0.02706729       0.24980911      -1.56493559      -0.08253551      -0.05945488       0.05155667
H        3.93256862       7.76281408       7.84809226       0.39510342      -0.48802876      -0.10276970      -0.05003867       0.17302469       0.21032424
H       13.00159633       6.16087234       6.02417579       0.19570392      -0.43379362       0.02443049       0.09734794      -0.24435797       0.14844202
H        4.00795075       1.37677897       6.97445870      -0.46569793      -0.69197019      -0.81043078       0.08705728      -0.04379863      -0.01730356
H       12.84359076      11.16443316       6.29941167      -0.42270386       0.19195751       0.37106453      -0.18488098      -0.25901816      -0.11941551
H        3.21635791       6.76602675       9.15715637       0.23802575       0.57520380      -1.20123902       0.10117096       0.11355298      -0.06432421
H       13.52348777       5.20189320       4.67617688      -0.11872544       0.07890941       0.48058109       0.05596449       0.08721840       0.07627460
C        5.63798685       2.29673082       7.86205963      -1.78111351       1.82228092       0.43694292       0.47181828       0.89706571       0.23705987
C       11.12061115      11.52045653       5.14144297      -0.09959625       0.29254283       0.81940196       0.94729479       0.46021334      -0.71645763
C        1.78207566       7.84882535       7.96535949      -1.34099623       1.58013558       1.95110104      -0.55130076      -0.60913585       1.29641064
C       15.24356885       5.79585772       5.96474085       0.25297932       1.80265304      -1.28084338       0.70128290       0.44282078      -0.13959088
Pb      -0.05548940       3.30344842       6.01622670       0.39018291       0.27800359      -0.31251060      -0.13707261       0.24186073       2.40112647
Pb      16.83294838      10.84844649       8.01840536       0.12666772      -0.33354769      -0.18681284      -0.67186628      -3.02566903      -1.93534044
Pb       7.58173379       8.80446641       5.72127854       0.28827600      -0.03813299       0.04770019       2.07068491       2.28753734       0.60874354
Pb       9.29503204       5.00483881       7.98942407       0.35516782       0.31990807      -0.08462362       1.06334821      -1.76694827      -0.13855538
N        4.10338426       2.29316497       7.43614668       1.81925805      -0.37182299       0.42037732       0.36284501       0.07134960       0.73552455
N       12.51551437      11.87501566       5.56413418       0.64649249       0.04070901       1.29890997      -0.58414326      -1.28090803      -0.27759920
N        3.16266220       7.69424928       8.57935562      -0.81729039      -0.64692601       1.58536081       0.93551880      -1.19924216      -0.27396961
N       13.78120955       6.01665563       5.33894302       1.36215365      -1.79402853       1.35469388      -0.18637146       0.40404171      -0.01399316
I       18.00225608       5.64826416      13.11985513       0.10777088      -0.59088096      -0.38036409       1.04742055       4.22734192      -1.29256971
I       17.64996001       8.82283777      10.21652824       0.34516780      -0.25637242       0.11698595      -3.26872304      -2.93475008      -1.42607094
I        8.12340483      10.71837440      12.53137267       0.32927756       0.21396708       0.25813768       0.66680743      -0.58634433      -1.69138173
I        8.33569746       3.21107022      10.39941730       0.19255297       0.12095691       0.14344884      -2.38275231       0.25887097      -4.37857048
I       16.04046121       2.07596856      10.72270864       0.17141168       0.25155805      -0.19866611      -3.49084285      -0.72688951      -1.59484875
I        0.64829477      11.75817836      13.02677088      -0.09406806       0.37228033      -0.26323649       1.90974039       0.09304241       1.62016767
I       10.24499540       7.38468580      10.06918213       0.01293871       0.11626316       0.26699442      -0.35323925      -0.53860108       2.04137125
I        6.72350306       6.55419492      12.87161798      -0.28983161      -0.05323315      -0.40148639       1.17256185      -1.35166503      -0.81135270
I        2.74105939       4.37435366      10.14023156       0.28623416       0.17356521       0.18029662      -0.85144871      -0.88373702      -0.09925705
I       14.11092927       9.73371944      12.43622104       0.21029429      -0.11483893       0.02359569      -0.97852968       0.00891457       0.89564425
I        4.35801495      10.38497847      10.37040365       0.08922861      -0.24598579       0.06594102       2.61626881      -3.19500086      -0.54782946
I       13.05233989       4.25613020      12.98875491      -0.77205081      -0.31732976      -0.12181005       2.94339351       2.19096487       2.06604508
H        5.22430163       3.57809786      12.10454855      -0.17459002      -0.01137547      -0.23066688       0.11336542      -0.30641348      -0.21247671
H       11.06769821      10.10266469      10.87438687       0.61830879      -0.47348595       0.56094795      -0.06152021      -0.15384987       0.21800959
H        2.30423444       9.16834712      13.04463755      -0.60393313       0.99783554       0.61409692       0.14905100       0.19982330       0.02593219
H       15.04050732       5.56021402       8.89933849      -0.37261735      -0.08919785       1.19145133      -0.14001792       0.08555544      -0.01649772
H        5.93963661       2.48768586      13.29681649       1.08169869       0.04414499       1.46825372      -0.25622747       0.05520876       0.03047172
H       11.25433714      12.02468093      11.75112255      -0.16407794      -0.37393092      -0.46511168       0.07724872       0.21074245      -0.12719776
H        0.98279991       8.12429344      11.98975103       0.46898968       0.83196340      -0.48864194      -0.10659782      -0.03219514      -0.07650892
H       15.04258424       7.35898220       8.77035909      -0.20996636       0.05097359       0.23128421      -0.19860442      -0.03404321       0.09996958
H        5.90906042       1.95103293      11.51040143       0.27186719      -0.29487703      -0.11886125       0.11438761       0.24068738       0.29117367
H       10.44877921      11.67417631       9.89109735      -1.23501394       0.09568537      -0.73724493       0.14677374       0.16348749      -0.13211487
H        1.40467969       7.59478454      13.51597929       0.12467930      -0.79983703       1.22190242      -0.01523343       0.18027608      -0.20760136
H       16.19866735       6.57467116      10.07895737       0.79555841      -1.10280621       2.08210842       0.00556966       0.21169054      -0.14560420
H        4.29539895       0.82652498      13.09099939       0.00544477      -0.93483118       0.74305471       0.06432895      -0.10504820      -0.06936015
H       12.60621187      12.46192122       9.73902081       0.47795611       0.78253928      -0.16593704      -0.06878216       0.00149688      -0.10919502
H        3.41179232       8.02056732      11.26592920       0.39861183       0.75567134      -0.60109592      -0.15240987      -0.19784348      -0.13091972
H       12.88274574       6.75414382      10.02026380       0.10174846      -0.29694132       0.23964632       0.29374348       0.03250912       0.08059272
H        3.43860575       1.46369940      11.87253557       0.56590312       0.69036069       0.07264473      -0.22295367      -0.27632795       0.00204610
H       12.71136059      10.70208671       9.30192437      -0.25469457       0.98459677       0.19354751       0.02356677       0.24669856      -0.12976037
H        2.74313856       6.45097065      11.76629650       0.62111870       0.45433898       0.43629869       0.20733123      -0.06308109      -0.10068179
H       13.90964670       7.49102175      11.18023602      -0.09697101      -1.45392576      -0.44089520      -0.28240234       0.04409326      -0.09682848
H        3.56432700       2.32143981      13.43788979      -0.02078072      -0.69877623      -0.94131868      -0.34859083      -0.05749451      -0.19665699
H       13.47758147      11.21417724      10.78619956       0.78416756       0.85384264       1.04928214      -0.07991102      -0.18392030      -0.04859688
H        3.83997230       7.51230045      12.81826072      -0.18882174      -0.37427462      -0.24089528       0.00875456       0.15356860      -0.07774872
H       13.74217954       5.63470221      11.20667348      -0.36581306       0.70534896       0.25528574      -0.03062554       0.10394409      -0.02962164
C        5.38969070       2.47707144      12.38539144      -1.45405479       0.07395267      -1.78906539       0.94757503      -0.46913449       0.29897829
C       11.24607516      11.31431616      10.71314785      -0.07181531       0.78369134       0.90693763      -0.09268088       1.00509605       0.58904037
C        1.87256877       8.18149205      12.71657917      -0.56396888      -0.63446481      -0.51841641       0.11988561       0.64425207       0.94588927
C       15.09490361       6.43656395       9.58697141      -1.09087989       2.06612478      -3.16514156      -0.36156669      -0.38548088      -0.18494128
Pb      38.08006005       3.23511184      10.21919705      -0.19911307      -0.07767095       0.20347994       2.05157304      -1.97651182      -1.84926527
Pb      17.25873108      10.74558615      12.69716693      -0.07580020      -0.38402853       0.10109052       1.69652252       2.97360929      -1.39120113
Pb       7.43512363       8.84485228      10.41297066      -0.15311879      -0.13519518      -0.52054573       1.87938334      -3.57506111      -3.01890702
Pb       9.55571170       5.12607785      12.62539565       0.77703631       0.29216755      -0.01407831       1.04361012      -1.06920439      -1.66936513
N        4.07248731       1.73068445      12.65851709      -0.21015017       1.09816255       0.70523758       0.48907529      -0.03585996       1.15906634
N       12.60398166      11.50483352      10.12675993       0.04455994      -2.54007606      -1.47598263      -1.90212992       0.75061494      -0.60295462
N        3.03957401       7.47689906      12.09883864      -0.20915217      -1.51880933      -0.06013805       1.23367703      -0.89250656       0.13688770
N       13.80676768       6.59029903      10.57986352       1.41675718       0.19959447      -0.33709646      -0.39079151       0.30502698       0.68904715
I       18.13284797       5.06873935      17.92783993       0.20092089      -0.24802366       0.03533515      -1.42575627       0.67656826      -0.90235403
I       17.80708781       8.54021343      15.09527697       0.00728183       0.30534680       0.11826971       0.38338760      -0.03468677       3.64729964
I        7.95552922      10.66749659      17.60388514       0.10706559      -0.23961238      -0.22664024       0.87433868       0.88130911       0.98359492
I        8.51336554       3.55176962      14.85542728      -0.28584337      -0.50696912       0.12014711       0.51964855      -0.29209163       1.19112390
I       15.73135046       2.00217409      15.40549451       0.49181589       0.52424939      -0.24446325       0.04209770      -1.61885086       0.97550566
I        0.51646832      12.10921688      17.56630936       0.57718754      -0.12349409      -0.10805218      -0.80896110       0.42346322       4.70562802
I       10.66689434       7.50318423      15.18324872      -0.29219653      -0.15973394      -0.38020817       2.16599411      -4.50397698      -1.20620646
I        6.48005608       6.51513351      17.27215604      -0.18037208       0.22599078       0.06306272      -1.93517093      -4.69005396      -1.27128249
I        3.27217536       4.35085267      14.88227974      -0.10879257       0.11283843       0.23066217       1.26681844       2.92974264       2.86862953
I       14.16820799       9.25734340      17.14618452      -0.09163353      -0.29025450       0.22171170       0.90401383      -1.22325936       2.00852330
I        4.60951712       9.75664963      15.08303206      -0.23632713       0.08512805       0.14710460      -0.26353996      -4.30616226      -1.27940505
I       12.26113901       3.96814241      17.37566604       0.28072017       0.02268513       0.29637729      -2.50029517       5.61087476       0.51158393
H        6.06037287       1.79944281      18.48999119      -1.20547853       1.86405814      -1.88543985      -0.07422516      -0.02610894      -0.05370850
H       10.77362603      11.06721327      15.51751802       0.85506005       0.19415564       0.69769762       0.02765237      -0.12365110       0.04240619
H        1.79315671       8.80055743      16.78211091      -0.04827053      -0.50795572      -0.04410351       0.06631064       0.02024188      -0.27264926
H       14.46328228       5.52325029      16.71640704       0.05225962      -2.40092824       0.94155650       0.15714306      -0.30168415       0.07619599
H        5.81854134       2.92473885      16.92837418       0.01038062      -0.28740515      -0.42688001      -0.13580141      -0.24843950      -0.10332927
H       11.08732182      12.28956777      14.31697523      -0.35147876       0.14299047      -0.83439296      -0.17560832      -0.03884884       0.14005585
H        1.38022835       6.98087077      16.19283814       0.66922356       0.22389515      -0.29395446       0.06482159      -0.05433669      -0.05250043
H       15.85702289       4.98754343      14.89873244      -1.43637500       0.00812065       1.78357504      -0.05020198       0.00102404      -0.03201584
H        4.95760567       3.42880851      18.44118630       0.45638276      -1.54513374      -0.81495696      -0.07208725       0.15096196      -0.21373860
H       11.65513248      10.51832849      14.09520969      -0.21666682       0.41930213      -0.35157134      -0.00867284      -0.09777560      -0.03870374
H        0.68460841       7.52965022      17.74378986      -0.55302908       0.54880527       1.13973693       0.10596716      -0.06341497      -0.23943419
H       16.08444293       6.82553429      15.92418149      -0.18774756      -0.50318366      -0.33696464       0.26115667       0.19698369       0.10522943
H        3.40612175       2.65001218      17.15761068      -0.18647832      -0.72140045       0.00962836       0.20087056      -0.41635047      -0.10415480
H       12.90996207      12.48399439      16.11116136      -0.46469172      -1.06739016      -0.65211566      -0.18078394       0.07064010       0.23003855
H        3.07569256       7.88492815      18.81733939      -0.74916429      -0.51145865      -1.12020703       0.35292788      -0.04093883      -0.15309429
H       14.78951292       7.49764982      14.03124938       0.06244308       0.83690556      -0.52875769       0.26725188      -0.19441007       0.03679311
H        3.46167230       1.28829164      18.29313295       0.18560609      -0.02216553       0.44072560       0.01053662      -0.00498698      -0.21410558
H       13.47773734      12.28280243      14.49640681      -0.20040758      -0.03751153      -1.20640852       0.28254440       0.04947827      -0.09681833
H        3.83320051       7.27693562      17.27780955      -1.15934156       0.19751198       1.00628392      -0.13043117      -0.18498430       0.13669435
H       13.57493483       7.81956252      15.43140382      -0.44195285       0.27157545       1.23089914      -0.11691660       0.00730137       0.12271524
H        4.04409002       1.08078212      16.64233835       0.55608742       0.27962934       0.56223031      -0.10032246      -0.07499983      -0.29872092
H       13.44865815      10.85510679      15.45486384       0.04712872      -0.19199529       0.72521558      -0.24211091       0.29324735       0.00408250
H        2.64282246       6.30512935      18.26631960       0.10097509      -0.87219445       0.21519576       0.01641377      -0.02643855       0.05528254
H       13.31155855       6.22950598      14.47323105       1.18819673       0.46430090       0.57202639       0.03479563      -0.16911058      -0.23071629
C        5.30652869       2.49736937      17.82507393       0.46815434      -0.54336829       3.44292717      -0.15403089      -0.33411416      -0.46186566
C       11.52165925      11.39003371      14.75984806      -0.32018244      -0.24688468      -0.54110208      -0.48606662      -0.92826956      -0.86408238
C        1.61035549       7.68801585      17.06744681       0.99828866      -0.06745963      -0.58509742      -0.48010858      -1.46745616       1.01698683
C       15.24460275       5.92904711      15.68470102       0.34567595       2.91846489      -2.56217018      -0.10885444      -0.27396863      -0.28649955
Pb       0.29032948       3.33664378      15.27540364      -0.36925972       0.22997270      -0.25441875       2.43068151      -2.16997336       0.01283393
Pb      17.04698428      10.54739566      17.43507258       0.44268436      -0.00361381       0.20258541      -2.21944025       1.70744235      -1.68720079
Pb       7.56159228       8.64906667      14.91833757       0.14501330       0.13417447       0.74758560      -2.65670877       2.11980666       1.61048371
Pb       9.45228092       5.24471901      17.37493821       0.12066253       0.26271968      -0.21038187      -2.86166993      -1.06250222       2.14203156
N        3.99590149       1.78757678      17.50962538      -0.00924401       1.02470868      -1.65579742      -0.61428063      -0.59333060      -0.91433860
N       12.87053271      11.76565919      15.20184025       0.37100436       1.13319936       2.09499169       0.45403655      -1.14983384       0.87200341