768
Lattice="25.489424268572538 -0.0956594233117733 0.005584256169073863 0.09977264370270744 24.739172851202614 0.6001478684267295 -0.002024446371267937 0.5682806783236378 24.75292066089703" Properties=species:S:1:pos:R:3:forces:R:3:momenta:R:3 energy=-3337.269529532396 stress="0.0 0.0 0.0 0.0 0.0 0.0 0.0 0.0 0.0" pbc="T T T"
I        6.42701760      23.96403023       1.73170657       0.17378502       0.13918865      -0.02011137       0.22709270      -0.03145254       0.47155960
I        6.21338709      10.20270487       7.58649363      -0.06792496      -0.03098454       0.16423320       1.20750405       1.91888343       0.85004789
I        6.11807119       7.84450436       3.74279635       0.09051392       0.34277699      -0.10118516       1.04088104       1.69548756      -0.61463517
I        6.59826777       1.66014531       5.01130972       0.06924211      -0.25173478       0.08084144      -3.54349107       0.41046673      -2.49349453
I        0.38678547      10.24239699       7.53319853       0.04209832      -0.03605515       0.22953397       0.11659250      -1.41764705       0.31120862
I       12.54483317      24.34561110       1.71372708      -0.01191299       0.00557626       0.00813276      -0.76144216      -0.26670100       0.03673109
I       12.38987179       1.62884965       5.13813368       0.04842433       0.08924533      -0.13653907       0.70413655      -0.14092137       2.12213845
I        0.19242893       7.99885075       3.40920740       0.18854687       0.18527075      -0.10168604       1.41402352      -0.64539767      -0.39214412
I        9.55549019      11.41881816      10.47662161      -0.07177944       0.14974720      -0.14193451      -2.33724210      -0.53772503      -3.60355380
I        3.12822145       4.24154870       4.48158265       0.40987127       0.04660590       0.09091573       0.13213966       0.29485912       0.89534317
I        3.09412617      23.68336928       4.36498643       0.13325760       0.02041897      -0.11587348      -1.25310801      -0.26188391       1.14803561
I        9.57775786      10.75449960       5.23599896       0.05315171      -0.09463089      -0.08747955       2.71351142      -0.09929648      -1.50030276
H        2.29666693       0.85100384      -0.31905691      -0.50646672      -0.25056885      -0.06040714      -0.00777759       0.04372412      -0.08864257
H        9.55070413       1.30570997       2.60322655      -0.11215256      -1.33432814       0.50876682       0.04521384       0.12991686      -0.09206815
H       10.55521720       8.84816329       2.10803853       0.01392718       0.58396935      -0.15283639      -0.07843139      -0.10781360      -0.10856327
H        3.42407626       0.16950751       8.29036978       0.37403727       0.25352232      -0.51901555      -0.04266959      -0.01601517      -0.20556896
H        4.16293298       7.20796122       6.30319641      -0.18786478       0.08002053       0.12354629      -0.04497372       0.02896329       0.03774006
H       10.47437386       2.61329562       1.92317420       0.56496382       0.13110017      -0.59060495       0.04784572       0.14321975       0.05950673
H       10.25222371       2.56100672       8.13175320      -0.65304051      -0.00784229      -0.82274359       0.10609430      -0.00546681       0.05024211
H        2.28805914       0.42235799       6.89460497       0.17274369      -0.06754797      -0.05752764       0.12970407      -0.24298462       0.06395680
H        4.07205049       1.17184040      -0.08522891      -0.30608323       0.33300443       0.15696706      -0.15176992      -0.02991051       0.19537180
H        8.70351201       2.74556482       1.96026734       0.82398866      -0.68745719      -0.02139938       0.08792752      -0.12523556      -0.04518176
H        8.78138819       9.12680004       2.34437310       0.10955864      -0.38776296      -0.26626310      -0.19403039      -0.04385145      -0.11286443
H        4.07043442       0.57081156       6.54214988       0.58700026      -0.22141412       0.03585823       0.22344154       0.20170820      -0.29422449
H        3.49060490       2.59709543       1.85304372      -0.02310623      -0.55862714       0.19492655       0.12001049       0.09331851      -0.11783820
H        9.78979807       8.46860752       6.76671379       0.32436295       0.97107460      -0.63517081      -0.05104605      -0.00962245       0.03119971
H        8.49121512       7.39624201       0.67021847      -0.11658759      -0.68606293      -0.16291869      -0.00033183       0.13792640      -0.14194454
H        2.70062642       8.68780758       2.46713843       0.16674219      -0.14098170      -0.17878150       0.00651587      -0.02422153      -0.07662701
H        2.77250662       0.99480227       2.06152555       0.12256969       0.35720699       0.12664454      -0.23734099      -0.12942072      -0.10660365
H        9.00250728       7.05735137       7.08933911       0.03794995       0.21656832       0.17658782       0.12246825      -0.05042980       0.04662646
H        9.43780699       6.72778188       1.94678633      -0.25905542      -0.03399764       0.45565429      -0.10471866       0.02008542       0.22642558
H        3.11935202       9.00136383       0.75055408       0.14663114      -0.14938436       0.57614249       0.08973636       0.18197340       0.13116129
H        1.87189687       2.38133197       1.66416389      -1.16089836       0.37712587       0.07374094       0.16747994       0.09713960       0.08407003
H       10.17829804       0.77577715       0.25107428       0.04911361       0.14119511      -0.24687206       0.24112777      -0.04305197       0.03833111
H       10.16555582       7.10163924       0.51838282       0.14521258       0.30088590      -0.17572161      -0.06747156       0.07794405      -0.18003643
H        4.41479881       8.53964840       1.90553165      -0.15868127       0.11353155       0.30488835       0.01017789       0.14246823      -0.12451997
C        3.28135053       7.82878584       6.55115901       0.37152295      -1.64173283      -0.39464969       0.34093599      -0.03218567       0.36806210
C        9.57050975       2.02797254       1.81073357      -1.90478997       1.84765671      -0.02253718       0.15509866      -0.36206709      -0.54734758
C        9.45512909       2.31971562       7.34590675       0.22001161       0.20950588       0.01135038       0.43338909       0.53655645       0.24106204
C        3.29813998       0.70675670       7.30717728      -1.28411963       0.69580114       0.38426597       0.53328901       0.36573994       0.40681122
Pb       6.57123226       4.74940918       4.23510495      -0.39112337      -0.08216467       0.05655079      -1.21416169      -0.29493851       0.31818597
Pb       6.32158099      11.15986184       4.44016747       0.43831003      -0.51010236       0.26163982       0.76471276       0.09091126       0.37635710
Pb      25.38283613      10.98536168      10.77345073       0.15957063      -0.05542501      -0.12018377       3.11962472       3.38827464      -0.53024936
Pb      25.69087662      10.94263498       4.41644550      -0.30979403       0.02082507       0.02456666       1.92933258      -0.18983623      -2.54185513
N        2.75434738       1.89818574       1.51791762       1.39084539      -0.13200876      -0.75815248       0.06091243      -0.38816134      -0.56131553
N        9.80050054       7.68069072       7.38819567       0.34503884      -2.21964773       0.45183822      -0.51111913      -0.37239831      -0.46403338
N        9.41522150       7.41655559       1.17964307      -0.62643081      -0.21508104      -0.79865110      -0.21792928      -0.93160525      -0.27935281
N        3.34837591       8.40392336       1.63223023       0.03801563      -0.10163150      -0.89301825       0.98180044       0.25012713       0.27099206
I        6.94522042       5.28161334       7.41130371      -0.13369672       0.17898775       0.18535940      -0.29240662       0.80839013      -2.89023619
I        6.05931316       3.53047493       1.16324974      -0.13337837       0.15154012       0.18560715      -0.65842533       1.74214335      -0.05112532
I        6.02196830       1.78449448       9.80593253      -0.03762206      -0.01437067      -0.01254241       1.99004908      -3.67549014      -0.90404329
I        6.45687935       8.26985484      23.85366009       0.16106252       0.19730070       0.14549332      -0.57206051      -0.01752866       1.17877032
I       -0.01058860       4.07480722       1.00051275       0.01763400       0.07728902       0.12617685      -0.13657880      -0.25105525       0.30353738
I       12.73659948       5.68007419       7.48458465      -0.06109015      -0.01984507      -0.09882656       0.21328089      -0.40592269       0.07512280
I       12.41068219       8.22103010      23.78322027      -0.06379711       0.40689304       0.05228585       1.77068976      -2.04152201       1.02442267
I        0.38027373       1.69348591       9.75349347      -0.13114514       0.15346726      -0.17436958      -1.26080704       1.18941077      -0.11401857
I        9.60621243       5.35241085       4.19167010      -0.05470664       0.01251355      -0.10581301       0.01232683      -0.57417879      -1.38703264
I        3.07243620      10.64432722      23.24086524       0.05425826       0.23331380       0.03085152      -1.83778912      -1.81814554      -1.41878363
I        3.00354252       5.20244559       9.97937892       0.64023802      -0.00502634      -0.00691930       0.14525021      -0.94073046      -0.98661557
I        9.61031941       4.84645922      23.45723070      -0.43954912       0.27454168      -0.17902871      -0.08627207       0.65696165       0.96771395
H        3.32530027       8.72040243       5.92341263      -0.11795773       0.30250594       0.23012212      -0.06061550       0.05654766      -0.14670328
H        9.34793072       7.13609387       9.44899358       0.04405768      -0.02814639      -0.20108728      -0.04808070      -0.01548567      -0.04179909
H        8.43683754       2.50106746       7.78712170       0.27351646      -0.01360328      -0.22879572       0.02984805      -0.08574191      -0.04174441
H        4.00989865       6.57399813       0.63194656      -0.42970192       0.58457272       0.17993724       0.11429457       0.02575368      -0.02430508
H        2.94602380       2.52241752      -0.55967540       0.04127636       0.33095298       0.12953527      -0.02150855      -0.03308396       0.05458000
H       10.51505746       8.48454580       9.26505947       1.43286912       0.95511096      -0.04181232       0.01432712      -0.10375041      -0.07937459
H        9.50114450       9.45993060       0.71982681       0.22924372       0.12532300      -0.13500662      -0.20763065       0.01770195       0.09575724
H        2.99451498       6.30445118       2.02078302      -0.02201709      -0.34210669       1.27023572       0.06618496      -0.14115441       0.04686763
H        2.36973534       7.24052251       6.33083863       0.22844130       0.25676922       0.02349604       0.27736561       0.02903450       0.09848938
H        8.75479836       8.74156927       8.84194111       0.06319076       0.09519217       0.18293807      -0.06794319       0.04658344       0.10247663
H        9.53347783       2.86639993       6.36093016       0.22022240      -0.20766121       0.84609820       0.10921553      -0.26911151       0.03177731
H        2.22858991       6.90430929       0.59037087      -0.45069437       0.19073939      -0.25777597       0.12355336       0.01795841       0.15493233
H        3.09565591       7.37198349       8.65759390       0.48262946      -0.39378534      -0.02033912       0.20965882      -0.16906261       0.10047246
H        9.29592909       2.14745523      -0.27774479       0.26484614       0.33857337      -0.37978713      -0.02848995       0.05629181       0.18826838
H        9.62937108       0.29078719       7.89571747      -0.14764693      -0.09288085      -0.16113743       0.15942263      -0.04896385       0.16662217
H        3.87997040       2.50153568       8.35628625       1.11711467      -0.06505539      -0.22318521       0.13819552      -0.02148737       0.01616005
H        2.40657319       8.80809888       8.04658880       1.35259140      -0.42646381       0.35297124      -0.10701016      -0.00081988       0.11261021
H        8.51509188       0.81360849       0.40133399      -0.03181013       0.06660160       0.22397293       0.02935039       0.15357926      -0.02187393
H       10.38846578       0.64852253       6.41748985       0.01877879       0.13860290      -0.08722925      -0.07933011       0.25902134      -0.11359910
H        2.33358230       2.38478259       8.09720697      -1.05395958      -0.02262232       0.35960338       0.21973255      -0.24272700      -0.25077982
H        4.14652683       8.70546804       8.18855776       0.15501485       0.09969226       0.50604743      -0.14941622      -0.10185108       0.01367624
H       10.66408167       7.05546247       7.24258303      -0.58039459       0.93553809       0.16204898       0.09031983      -0.14140023       0.06525413
H        8.68066511       0.59735354       6.48502099       0.35406510      -0.16295480       0.03385902      -0.06707757       0.03124895       0.17524926
H        3.21680750       2.83128232       6.80152538       0.26867967      -0.02182019      -0.53412326       0.17778783      -0.06765433      -0.05057374
C        3.03514531       1.60832082       0.03253810       0.51877975      -0.47456300       0.23549111      -0.22760872      -0.51833583       0.38253594
C        9.62503055       8.04930496       8.83847021      -1.78917334      -0.92983502      -0.29526357      -0.11503043      -0.03395757       0.79448258
C        9.56818931       8.81976256       1.59867951       0.50158758       0.27413766       1.17806588      -0.16345488      -0.15947338       0.03431085
C        3.11894273       6.98177721       1.20568795       0.60716248      -0.33498577      -1.05230820      -0.23217789       0.66484501       0.03257948
Pb       6.32393094      11.09033973      10.76496311       0.04828804       0.01909103      -0.10827099      -2.99130761      -1.59848205      -0.54704115
Pb       6.33097575       4.87471041      10.72333319       0.04237992      -0.23989908      -0.27834839      -1.35163211      -1.11304650       0.66549817
Pb      25.62460128       4.97637170       4.24587722      -0.18664567      -0.42201670      -0.08490754       0.71448809       0.56483722       2.42571704
Pb      25.51940319       4.71190408      10.54918924      -0.02278840      -0.05852924      -0.08645308       1.53432260      -1.88543224      -2.09864150
N        3.29019995       8.16317623       7.99684408      -2.29778676       1.70560746      -0.81752911      -0.54528018      -0.06897198       0.32535039
N        9.37614026       1.40909701       0.44843650       0.28636505      -0.80585385       0.79675213       0.69600861       0.53459848      -0.35092807
N        9.55646215       0.84840605       7.00380241      -0.48722913       0.30055902       0.55368183      -0.38559024      -0.54448246       0.12586870
N        3.20723482       2.19542186       7.60855315      -0.29980685      -0.42120546       0.35452324      -0.31637844      -0.12265100       0.38557810
I        6.39819519      24.25142765      14.09369417       0.02390311      -0.02910485       0.14810629       1.65444167      -1.38146017       1.48773415
I        5.91934306      10.58322401      20.12891691      -0.02513681      -0.12158005      -0.03367048      -2.04023128       0.47571597       0.57347476
I        5.99658006       8.17253671      16.07106861      -0.03656948      -0.18761997      -0.16127240      -1.18915616       0.14858580       1.05818811
I        6.88975978       1.80396732      17.33144054      -0.21502399       0.19128922       0.02402870      -2.51192622       0.27880956       0.46557546
I        0.26953883      10.42964469      19.87388773      -0.02499593       0.14519574       0.15419223       0.03200601      -2.09596075       0.12421978
I       12.63197369      24.40913372      13.87370200      -0.03712408      -0.22208586       0.25498105       1.34442993      -1.70061391       2.00323565
I       12.53773848       2.01206578      17.35524890       0.03476082      -0.06625406      -0.09047519      -1.31146076       0.49069420       2.18438048
I        0.23157122       8.25254623      15.91451584      -0.13002728       0.00367802      -0.01206512      -0.54010052       3.47593136      -1.03446470
I        9.44038173      11.82170140      22.98548080       0.14896032       0.05023626      -0.11730866      -0.23249502      -2.05017200      -1.01636490
I        3.16952197       4.58201627      17.10440973      -0.14102860      -0.02239605       0.01780395       0.48076652       2.24804375      -1.66827138
I        3.10644200      23.86530691      16.92035273      -0.12604624      -0.11932537      -0.05817632      -1.15906536      -0.21082395       1.28982694
I        9.52455803      10.97930308      17.54053471      -0.21523295      -0.00471393      -0.01539199      -1.59112809      -0.68331483      -0.34545517
H        2.03840768       1.47391032      12.45519351       0.69112564       0.41885602      -0.26967656       0.04320213       0.15839854       0.14362500
H        9.77993603       0.82078475      15.12578546       0.22129027      -0.28653693       0.00143195       0.16292828       0.16836091      -0.21364038
H       10.77708962       9.13896748      14.42048745      -1.34238731      -0.61821795      -0.98482043       0.02960652       0.07742241       0.03893320
H        3.34957273       0.47518609      20.38843975       0.31749107      -0.23700559      -0.03822967      -0.16200143       0.15923940       0.06595299
H        4.06514697       7.46638522      18.59468347      -0.02340943       0.29657914       0.08771317       0.01988059       0.10019964       0.09497124
H       10.27927136       2.54921092      14.42256890       0.09613093      -0.61006795       0.22172913      -0.07370822       0.01890217      -0.23984380
H       10.25151054       3.33165895      20.44204958      -0.42563529      -0.28005737      -0.29973785       0.04336494      -0.15782444      -0.09786517
H        2.17645609       0.93867510      19.11745067      -0.24060043      -0.23053691      -0.46344976      -0.11341248       0.08867278      -0.14106319
H        3.86028974       0.80090381      12.69753127       0.00946071       0.13328543      -0.35030938       0.00676575       0.19751722       0.13193252
H        8.54389618       2.13346510      14.76651946       0.02827658      -0.40318548      -0.13533300      -0.20928931       0.09412660      -0.05170227
H        8.95685111       9.12775328      15.03389081      -0.47896018       0.66982065       0.24457777       0.15278567       0.12042871      -0.16414006
H        4.00855274       1.12496016      18.72887750      -1.21468562       0.37695297       1.03984199      -0.05032932      -0.13927129      -0.05496268
H        4.05757110       2.57397425      14.41063564      -0.48184443      -0.54353461       0.18624842      -0.23816302       0.00266755       0.13947318
H        9.44213535       8.68504050      18.73523452       0.10038248       0.56499606      -0.42262518       0.15463567      -0.18449064      -0.15904548
H        8.33732915       7.85557364      12.78541761       0.52067614       0.09990492       0.46668117      -0.08169153       0.27454576       0.07385912
H        2.13083038       8.77009500      14.47722291      -0.59393925       0.34355280       0.79849125       0.06510019      -0.07191185      -0.15775409
H        3.04242974       1.24580682      14.81267680       0.04453421      -0.56332005       0.35528381      -0.07185562       0.11296422       0.08317474
H        8.50360038       7.48162592      19.57297428       0.36396379       0.04518365      -0.14149727      -0.01669146      -0.02098703      -0.08447718
H        9.24397948       6.99209441      14.02160613       0.24339889      -0.52427977       0.21270865      -0.17661010       0.00681795       0.17805855
H        3.03893493       9.15084685      13.11769068       0.23402556       0.45830829       0.23169427       0.19226749      -0.14635515      -0.17018687
H        2.39457342       2.77871406      14.43997868       0.00312598      -0.34290656      -0.29451687      -0.03618619      -0.17175484      -0.12319712
H       10.19676449       0.69727064      12.66703847       0.08156050      -0.25886021       0.30122150      -0.20820697       0.09310049      -0.08712781
H       10.03502348       7.54283203      12.60295172       0.01789387      -0.21918102       0.19162025      -0.00014863       0.06519845      -0.09284583
H        3.84293505       8.75085241      14.60556500      -0.08952604       0.65930318       0.15462280      -0.07588055      -0.03744484       0.04895366
C        3.17988557       8.09004693      18.77033735       0.39741593       1.39350226       0.05605016       0.41078509      -0.08868439      -0.31154815
C        9.51809490       1.66754076      14.44904121      -0.22911137       1.49556614      -0.71184448       0.35290409       0.31948668      -0.50691352
C        9.52690219       3.02439344      19.58665845       0.63631348      -0.32306254       1.10750244       0.12483332      -0.56772133      -0.55133995
C        3.16670786       1.16555436      19.54027064       0.51266851      -0.12305030      -0.52994579       0.12987932       0.19566987       0.25222050
Pb       6.41334926       4.97927423      16.79565004      -0.16378987      -0.07416305       0.21049356       0.74257060       2.37384050       2.60861195
Pb       6.30755663      11.08719607      16.97051848       0.07810138       0.09280983      -0.02161889      -0.46392173      -1.55666225       0.83986822
Pb      25.46402141      11.61826313      22.91123256      -0.12244614      -0.33116831      -0.08265545       2.33866951       1.05197491       0.61811035
Pb      25.62602591      11.20212305      16.84495392      -0.18011731       0.03777080       0.24737779       2.01910397      -0.93115586       2.67256908
N        3.14322718       2.06469988      14.20517065       0.82635455       1.68166166      -0.22150345      -0.19006742      -0.58634746       0.16047811
N        9.45470103       8.01280117      19.52237071      -0.95846341      -1.29264153       0.63143525      -0.12708475       0.47128778       0.40995782
N        9.30441600       7.76387057      13.32980715       0.02946996       0.60098701      -0.71020693       0.10336917       0.51755559      -0.86929904
N        3.01714956       8.59476128      14.00285139       0.45258546      -0.19657858      -0.75853744       0.05523841       0.26578744       0.32725147
I        6.49769975       6.15937610      19.88983882       0.09410946      -0.04843000      -0.11511346       2.42945309       0.72557467      -0.67604081
I        5.90937858       4.14471496      13.85350822       0.13128534      -0.02516873      -0.33020925      -1.74034207      -1.78035004      -0.92913868
I        6.10864130       2.25216029      21.85261844       0.00043649      -0.16713903       0.04385075       0.45246695      -0.57805255      -0.55838691
I        6.43190316       7.83575379      11.54668127      -0.07170578       0.41151392      -0.08960652       1.34396668      -0.41110623      -0.31280582
I        0.36083349       4.01472594      13.56826536      -0.08149477       0.10521924       0.13194055      -0.00684808      -1.46091592      -1.26007134
I       12.52201829       6.03896487      19.71026432      -0.15159189       0.00864193      -0.15180321      -1.55659114       1.99866451       1.32576500
I       12.38828023       8.01108337      11.33638610      -0.03316778      -0.10967061       0.16921474       1.51295830      -0.52169580      -2.18404629
I       -0.05207993       2.36248794      21.93026472       0.01167874      -0.24375307      -0.07264393      -1.19218206      -0.92165528      -1.33643370
I        9.43854421       5.47500110      16.12740255       0.30236957       0.06204694       0.15106783       0.77324647       0.07375360       0.86195134
I        3.11856509      10.64407915      10.96632272      -0.00810930      -0.02072699       0.03533732       0.16904297      -1.47531957      -1.43255998
I        3.09730237       5.53229469      22.31764705       0.07275508      -0.17634045       0.14265866       0.04332652       0.80175983      -0.75905883
I        9.55630264       4.41638957      11.13560581      -0.19810434       0.07547431      -0.04541927       0.64801283       1.75381371       0.82467247
H        3.31210569       9.18373866      18.38183097       0.29943787      -0.64186329       0.02877487      -0.04588064      -0.19467257       0.06298425
H        9.95091114       8.04350041      21.73886600      -0.01966565      -0.32550994      -0.15998247       0.10225765       0.06193158       0.12384945
H        8.44446957       3.22355043      19.91339886       0.11783597      -0.24984980      -0.03836791       0.23673980       0.03104743      -0.15991929
H        4.14514323       7.15788092      13.10533415      -0.98539552      -0.58872724       0.51014119       0.03205366       0.06004930       0.16683351
H        3.56655798       2.67701540      12.19591640       0.01031771       0.24541936      -0.44388358       0.10196738       0.08680856      -0.19374816
H       10.52003909       9.52366552      20.61641392       0.02332634       0.09141500       0.52594277       0.02707934      -0.09212480       0.11460280
H        9.35273190       9.92231078      13.29884804      -0.11823506      -0.19379212       0.55859232       0.12568702       0.05089081      -0.05601873
H        3.10745714       6.56669482      14.55184069      -0.02150865       0.17829781      -0.76442562       0.11413928       0.02819777      -0.04681541
H        2.29245014       7.62351089      18.23142588      -0.62923836      -0.37013843       0.31028841      -0.22410376       0.11356091      -0.12592892
H        8.73214010       9.24130937      21.03483520      -0.51571597       0.45146238       0.30753564       0.06035779      -0.08293534      -0.10902271
H        9.75041889       3.61211752      18.70290197      -0.04572847       0.38217260      -1.07178061       0.19289687      -0.02428568      -0.00885558
H        2.31472370       6.93496104      12.91634752      -0.30881242      -0.24739425      -0.12098921      -0.01144854       0.04659566       0.17160937
H        2.78582807       7.31246929      20.81717736      -0.19237055      -0.16707648       0.01218796      -0.00124802       0.21511706       0.14686479
H        9.35669600       2.06627627      12.38174306      -0.35291891       0.40779745      -0.21178202       0.06638466      -0.10127762       0.01457452
H        9.76644108       1.01223047      20.16929109      -0.03750720       0.01245201       0.14203730      -0.05210521      -0.01382447       0.14206543
H        3.91688096       2.72623467      20.63303548      -0.42314303       0.35573468      -0.12475518       0.16865763      -0.11049792      -0.03790135
H        2.17356144       8.88476696      20.47077331      -0.77908941       0.32274258       0.04887375      -0.06423531       0.28210521      -0.01559436
H        8.50868059       0.67935150      12.88072491      -0.07052408      -0.03108011      -0.12938005       0.21837768      -0.00926132       0.05638769
H       10.61151162       1.29650384      18.78740863       0.38857707       0.43842395      -0.64510257       0.03450954       0.09612891      -0.12132955
H        2.20429643       2.60305195      20.76929832      -0.28880727      -0.04945294       0.34280639      -0.09456915       0.23911345      -0.00770233
H        3.80410954       8.66250029      20.80183233       0.39517201       0.47328125      -0.26306352       0.13576189      -0.11168483       0.09511610
H       10.20243507       7.30790006      19.37069775       0.37229396      -0.15076555      -0.32064056       0.25383735       0.13585728       0.04349332
H        8.88649772       1.17859681      18.75937865       0.24037963       0.14022734      -0.50819586       0.08730125      -0.35586196       0.05535231
H        2.86230925       3.27171656      19.35434912       0.23999925      -0.18361076       0.28314848      -0.21650662      -0.24572807       0.00043576
C        3.16542548       1.74159861      12.73941933      -1.21256170      -1.18980579       1.03457066       0.10009467      -0.63525326      -0.05317013
C        9.66803399       8.74066443      20.84910737       0.59962501       0.40076071      -0.47328764       0.17238275      -0.09402040      -0.52074396
C        9.62071362       9.09939081      14.07381829       1.25533664       0.08825982       0.02641167       0.90830732      -0.08003396       0.44345783
C        3.11728169       7.17705489      13.61624277       1.49335045      -0.61309224      -0.10779008      -0.39406456       0.08546772      -0.02987678
Pb       6.23438943      11.43630701      23.17927970      -0.07182968      -0.03642679      -0.17913188       0.85296238       0.64992696       1.94509874
Pb       6.30613797       5.25425822      22.95892254       0.10324170      -0.12370319      -0.05178896       0.48011607      -0.17569200      -0.00070626
Pb      25.38652759       5.02528467      16.70606960       0.19733133      -0.12015240      -0.39370130       2.87352161       0.86400009       1.27682246
Pb      25.33396640       5.48747528      22.63381811      -0.10284227      -0.22554969       0.41230137       4.03769000      -1.59566423       0.56866500
N        2.95039708       8.24179898      20.30547598       0.70471467      -1.02631735      -0.37028463      -1.09273032      -0.52467883      -0.19502872
N        9.37068219       1.24692122      13.00225740       0.16504389      -0.05659407       0.68008501      -0.23675571       0.29430267       0.25167057