768
Lattice="25.489424268572538 -0.0956594233117733 0.005584256169073863 0.09977264370270744 24.739172851202614 0.6001478684267295 -0.002024446371267937 0.5682806783236378 24.75292066089703" Properties=species:S:1:pos:R:3:forces:R:3:momenta:R:3 energy=-3313.3666727687673 stress="0.0 0.0 0.0 0.0 0.0 0.0 0.0 0.0 0.0" pbc="T T T"
I        6.26231663      24.33936052       1.52964661      -0.20369921      -0.29770679       0.32463705      -2.63240876      -1.51534621       0.93029113
I        6.29512130      10.45536405       7.51242805      -0.25553174      -0.16388618      -0.10208728       1.37549350      -1.44887401       1.17754514
I        6.00469661       8.03505499       3.00947369       0.15416153       0.04264115       0.30270989       0.28454190       0.32832977      -3.04336963
I        6.33801380       1.74247176       4.37801232       0.07338992      -0.06520081       0.02504501       2.03396118       2.87606615      -0.53079812
I        0.21408414      10.34112692       7.98362562       0.04926704      -0.01715207      -0.69777819      -5.58345914      -1.74041263       2.46643881
I       12.61034307      24.10834911       1.72919915      -0.18228525      -0.00054034      -0.35030339      -3.01814613      -2.99401623      -1.38518621
I       11.67521248       1.39152607       4.94226129       0.16126940      -0.10292734      -0.04082941       1.84583605       7.01420353       1.95761320
I        0.21078942       8.02088760       3.81467888      -0.08386438      -0.33244979      -0.11329240      -1.03602828       0.92796195       0.08965525
I        9.49402387      11.93961348      10.50217043      -0.09139973      -0.10126150       0.00160836      -0.38423040       1.98060825       1.52388272
I        2.99295592       4.53813724       4.40984623       0.04040858       0.01097684       0.07256844      -1.08263436       0.64425773       3.20932921
I        2.70535889      23.11644612       4.48055922       0.28535879       0.48348010      -0.29974861      -0.67325816      -0.90791282      -1.83627772
I        9.40818916      10.85465682       4.65515845       0.04513176      -0.17804486       0.23447885       0.86853802       5.39815781      -2.44379254
H        1.99572599       0.82100523       0.05601201       0.37628513       0.31891367       0.49735087       0.11638003       0.17336487      -0.00269960
H        9.12517768       0.79304061       2.98337796       0.08106825       1.51541000      -0.95554000      -0.23546394       0.05278647      -0.30565747
H       10.11850905       8.76361402       2.64323693      -0.04239860       0.17086464      -0.37198473      -0.11003479      -0.35053397       0.06655525
H        3.03173248       0.40574557       7.27982245      -0.18538386       0.19326950       0.10616477       0.29682911      -0.23836208      -0.19212480
H        4.04907605       7.23910298       6.15426977      -0.27724581       0.54321314       0.10762513      -0.12424562       0.09907556       0.15170640
H       10.12349110       2.27907613       2.35911599      -0.05194548      -0.45412502      -0.14471139      -0.26373712      -0.04201418      -0.21408979
H        9.88677705       2.22424652       8.18847694      -0.24689060       0.08950455      -0.14356403      -0.07470443      -0.05230357       0.03275895
H        2.77323356       1.00779683       5.42778469       0.23224152       0.76518211       0.65179408       0.07392663       0.02546366       0.41407155
H        3.81698631       0.75239078      -0.02644315      -0.07051891      -0.16266545      -0.22879080      -0.24650567      -0.15636854      -0.02799596
H        8.33371040       2.30996645       2.11703552       0.33666802      -0.37931408       0.40650786       0.21663825      -0.14014066       0.26701393
H        8.29799321       9.07880457       1.34873142       0.55888161      -0.02374074      -0.03503652       0.02460228       0.07096582      -0.03528166
H        4.54074303       1.44849367       6.38404618       0.30440457      -0.30226638      -0.20668664      -0.00411827      -0.01499591      -0.10678718
H        4.01437862       2.16468067       1.86441293       1.33971460       1.14243753       0.17576779      -0.01105730       0.14879723      -0.21166692
H        9.29509332       8.25683661       6.12082630      -0.05958301       1.14468464      -0.33977190      -0.20804223       0.11867463       0.20774803
H        9.05120652       7.30336067      -0.10728322      -0.68518160       0.01256408       0.20301888      -0.00819576      -0.33995241       0.11187914
H        2.07519137       8.53865622       2.25933623       0.43171379      -0.06707858       0.09460364       0.31875180      -0.09062989       0.19314431
H        3.16704653       0.88723013       2.37753879      -0.30702467      -0.57028629       0.01174264      -0.03759813       0.31119799      -0.03939549
H        8.68040889       6.83298351       6.91923062       1.54210390       1.07087161       0.26569970      -0.10426045      -0.29488740      -0.18083811
H        9.29111610       6.66108017       1.55168405       0.54578070      -0.77986533       0.88666572       0.11276950       0.03345607       0.09205184
H        2.93934137       9.38628505       1.02587736      -0.22551438      -0.48677502      -0.31169782      -0.05757703       0.11673109       0.16772748
H        2.40462658       2.29664891       1.93781625      -1.37320989       1.01099299       0.93224701       0.10257943      -0.01709920      -0.35770555
H       10.18602339       0.40414066       0.57935625      -0.90923787       0.56804521       1.24018391       0.44832761       0.07322231       0.08428205
H       10.60582055       7.29896915       0.47931085       1.90991967      -1.14189618      -0.43629694      -0.06981580       0.40182414      -0.16592836
H        3.79745243       8.76161710       2.26729281       0.12849280      -0.17859193       0.49422164      -0.04576881      -0.24156449       0.00228532
C        3.27093088       8.02032924       6.37160897      -1.21342420       2.36325575      -0.62372656       0.77448959       0.80627410       0.80485929
C        9.24638993       1.63008171       2.18764787      -0.86003165      -0.84788797      -0.03111724      -0.32267788      -0.80615232       0.29200165
C        9.23786024       2.35754487       7.11210068      -0.26266699      -0.77243365       0.32238877       0.71001692      -0.52140354       0.74015554
C        3.31114174       1.28909137       6.57089523       0.04112874      -0.30362557      -0.51942683       0.21894253      -0.20290967       1.44040903
Pb       6.24646624       5.24677269       4.44981867       0.48017066      -0.56603231      -0.49056677      -0.41671971       1.48756456       4.73405254
Pb       6.37201608      10.95860584       4.34955471       0.30670984       0.09746578      -0.10248052      -4.18671974      -2.07262549      -3.80899831
Pb      25.37817415      11.32778284      10.91381771      -0.20998481      -0.08032590      -0.07031514      -1.88418627      -3.14196018       0.41035078
Pb      25.53986765      10.88379894       4.66810983      -0.12417211       0.35103439       0.48424313      -0.33992002       1.23669187      -4.54474970
N        3.15211965       1.67976972       1.73455249      -0.22915988      -1.26631064      -1.10760652       0.38727834       1.61838652       0.40270086
N        9.37834702       7.73351004       7.06176202      -0.86603076      -2.79536117      -0.31105560      -0.48606667      -0.40815625      -1.28529204
N        9.66089642       7.37325888       0.84100152      -1.19587590       2.18909655      -0.31566999       0.11489230      -0.36066568      -0.40571969
N        2.97405897       8.54842414       1.68131053      -0.28443370      -0.12770590      -1.12772171      -0.79383779      -0.30796740       0.03338997
I        6.12241795       5.85320664       7.26617094       0.26302802       0.20687990       0.46628592       1.28914897       0.63662555      -0.93809762
I        5.83144992       4.31569811       1.32266090      -0.14891072      -0.23191350      -0.24196730       0.16156249      -1.64688472      -3.68890829
I        6.04352257       2.15515799       9.23811449      -0.23787918      -0.02948688      -0.06762478       0.97181948       1.31481596      -0.03440104
I        6.97896856       8.22832691      23.66624232      -0.34615151       0.46215508      -0.26013702       1.20936992      -1.90555415       1.36586152
I        0.24566478       3.67787082       1.21632816       0.01408824       0.30435143       0.27415109       5.03400033      -0.72992174      -0.47712619
I       12.01736983       5.42093790       7.53729325       0.15204670       0.13556706       0.10305005       0.41710302       0.23918719      -1.51603411
I       12.88715187       8.27823155      24.03740795      -0.15984324      -0.01554738      -0.08980071      -0.58687383       1.79935830      -0.14450591
I       -0.11227867       2.11838501       9.30887366      -0.08779007      -0.02868989       0.03975452      -2.30888306      -0.90552079       0.62064561
I        9.56042744       5.48791709       4.09293004      -0.45130888      -0.08448638      -0.12575411      -1.32190015      -2.52061348       0.47151003
I        3.17971440      11.03409238      22.97550505       0.11298448      -0.19493421       0.57152841       2.44298473       0.49700971       3.01360731
I        2.91186581       5.05514528      10.49221762      -0.11358430       0.56518742      -0.46052409      -0.20207544       1.04594698      -1.33111627
I        9.36797438       4.90677888      23.93298951       0.22033656      -0.05639391      -0.26077875      -2.09041124      -2.52367274      -2.00322181
H        3.28975047       9.01658172       5.74545457       0.71374213      -2.07450123       1.46998501       0.00724416       0.23049008       0.02748408
H        9.52762917       7.81717015       9.19103403      -0.04698925       0.83583187      -0.03470008       0.63116935       0.04304948      -0.06423964
H        8.05021454       3.04122568       7.13721271       0.31363689      -0.57113211       0.24265079       0.09092894       0.05206790       0.03476589
H        3.86457443       7.25058396       0.09481051       1.09613958      -0.19401345      -0.54287522      -0.06338637       0.26914709       0.11888332
H        2.96232916       2.30105350      -0.29387318      -0.04286157       0.05004444       0.12995088      -0.03155532      -0.26561534      -0.40451848
H        9.77215009       9.64898834       8.27299419      -0.12795121      -0.40367174       0.52621044      -0.14261985      -0.13183062      -0.07785942
H       10.24217737       9.44093244       0.49841389       0.43847344       0.09584967       0.30014712      -0.28040799      -0.23643288       0.11240962
H        3.50005613       6.44563495       1.81467632       0.35490639      -0.21191757      -0.18677872       0.17616069       0.17159332      -0.22656091
H        2.21757337       7.65981048       6.19049705       0.14071144      -0.42632329      -0.09956670      -0.30633472       0.33202889      -0.44808604
H        8.01829239       8.85971384       8.26228628      -0.98710288       0.34399000       0.65764889       0.04143171       0.16314359      -0.05562527
H        9.95827954       2.86804303       6.17872210       0.36811411       0.76718671      -1.06489091      -0.19443975       0.12393266       0.27999667
H        2.10007738       6.91780372       0.72976771      -1.17133833      -0.27340001      -1.23123267       0.08141177      -0.07221637       0.07013642
H        2.95565195       7.60300790       8.50082211       0.31082822       0.29246296      -0.67294472      -0.21611089      -0.06700099       0.02338375
H        9.44831533       1.69283621       0.03333416      -0.60090152       0.59842823       0.34165831       0.00186442      -0.03882548       0.12270372
H        8.43117948       0.34022095       7.70855273       1.04180668      -0.03365490       0.04040440      -0.02058320       0.30032678       0.12826135
H        3.49961475       2.67970764       8.43155042      -0.14010347       0.04461564      -0.72132871       0.13047846      -0.01650700      -0.19154183
H        2.54169652       9.21652367       8.05278447       0.81091960      -0.47542958      -0.62803762       0.02484421       0.02486624      -0.21779967
H        8.54711022       0.38150650       0.49708691      -1.04867027      -0.12178781       0.56205814      -0.30821007       0.02622423       0.05249720
H        9.79869583       0.37004161       6.43659682       0.76960994      -0.27193442      -0.53475470      -0.03969315      -0.15112777      -0.06698101
H        1.88430872       2.63537995       7.61079687      -1.03109245      -0.07539898       0.55577010       0.03166016       0.18736107       0.02125909
H        4.25949939       8.74697673       8.18281860      -0.28321473       0.00797140      -0.26845973       0.17915784      -0.08224925      -0.30516586
H       10.42498754       7.29634369       7.26042548      -0.41556931      -0.19168560      -0.67715986       0.37652349       0.07574874      -0.39331614
H        8.05871427       0.74788846       6.11483015       1.89316728       1.25850113       0.47505137       0.04484601       0.04523583       0.23078318
H        3.28757410       3.48064063       6.75215678       0.05302827       0.09985687      -0.64192080      -0.13566003       0.11520193      -0.26959420
C        2.94795618       1.35512331       0.26876495       0.34945733      -0.55554897      -0.24446827      -0.33294489       0.55176832      -1.76755486
C        9.13024369       8.57171321       8.33541902       1.10972202       0.00464195      -0.21776502       0.01317503      -0.30217647      -0.41447169
C        9.61642254       8.79264593       1.38398480      -1.31032225      -0.71105567       0.20986562       0.44265199      -0.03830377       1.38181336
C        3.15598863       7.16222621       0.97926854      -0.51841393       1.63361532       2.30673943       0.47502106      -0.19250121      -0.15752602
Pb       6.26437044      11.35099356      10.42269251       0.05326965      -0.04291021       0.08448399      -1.46265571       0.49087194       3.18784089
Pb       6.18945705       5.07518962      10.54750850       0.09026724       0.05394534       0.05350446       0.43431492      -3.21906012      -1.88013016
Pb      25.37861995       4.86650086       4.29200246       0.14812988      -0.35119002      -0.12484335      -1.35076268       1.56466233      -1.02699690
Pb      25.09612337       5.00742436      10.43815391       0.25253360      -0.00048404       0.15284763      -0.92041277      -1.93804415       1.91036923
N        3.27388744       8.41897368       7.83834794      -0.29950463      -0.62288580       0.99555792      -0.20472440      -0.55297812      -0.89614013
N        9.30836479       0.99329178       0.81580239       3.26323307      -0.40562810      -1.52943219       0.88672285      -0.36179199      -0.33884463
N        8.92432592       0.87228153       6.79953807      -4.07103181      -0.22805049       0.69468864       0.08670032      -0.30367110      -0.35500372
N        2.95229298       2.60308168       7.35832053       0.60296772      -0.45617614       1.00122422       0.17976419      -1.24119089       0.96553912
I        6.00622045      24.92024104      14.03339781      -0.20449088      -0.40322678       0.06664226      -1.06907300       3.47267371       0.74516462
I        5.53214871      11.03333650      19.71010185       0.24664614      -0.23066015       0.08348711      -4.70776756      -2.17068996      -1.67174432
I        5.86632859       8.13539416      15.89786536       0.24099676       0.38334213       0.16364021       0.64576030       0.33395108      -1.55887197
I        6.20929161       1.96751209      17.44522625       0.01607749      -0.07996445       0.14249009      -3.29661754      -0.52167078      -5.05939522
I        0.49808476      10.52706314      20.12454906      -0.25180053       0.20215859       0.02747018      -3.99355382       0.41774352      -0.50484365
I       12.20496220      24.23221796      14.04642341      -0.02422049       0.21571968      -0.48251944       1.78967097      -1.16797256       1.74857488
I       12.18653730       1.93959352      17.43751377      -0.23420108       0.16133052       0.14451855      -2.09394591       0.43859360       1.58556790
I        0.34317113       8.45570590      16.08722332      -0.36272609      -0.24509948      -0.09681160       0.99702275      -1.32651326       1.27806918
I        9.48941029      11.73275835      22.39829417       0.08547931       0.17008505       0.14356011      -3.53668948      -2.46543842       0.18413000
I        3.02057840       4.77821586      16.44412142       0.01611777      -0.12575600       0.20915300       0.42235745      -0.45018722       0.59408532
I        2.80586140      24.55622045      16.55978165       0.26633436      -0.15019358       0.05598758       3.91671715      -1.04346822      -1.34129872
I        9.74847200      11.17802304      17.39967605      -0.74820498      -0.12949547      -0.08363034       3.56566355       1.02205382       3.35071188
H        1.55786812       1.38859373      12.13755003       2.33098453       2.01545511       0.22812209      -0.07847526       0.25012960      -0.41942777
H        9.40475884       1.11601934      15.10185490      -0.03677439       0.02836857      -0.04785221       0.30131010      -0.13762225       0.40963119
H       10.45163505       9.03036603      14.49664434      -0.30105863       0.06838190       1.00804254       0.11306479       0.13750066       0.09180907
H        2.77987475       1.08028571      20.27297974       0.04656962      -0.59716029       0.56904751      -0.14063507       0.06011534       0.31730814
H        4.01794456       7.58705715      18.80004127      -0.35188753      -0.45384520      -0.21798011       0.17268112      -0.05030336      -0.25850930
H       10.22756412       2.55355488      14.34049682      -0.31918728      -0.08394110      -0.09346767      -0.51462691       0.22629444      -0.08201688
H        9.39869042       3.76036319      20.56760351       0.17259877       0.60475865       0.16316631      -0.13618512      -0.15335523      -0.07905437
H        1.14946835       1.41784009      19.23432717       0.47693287       0.39030382      -0.12965636      -0.03804891       0.00346069      -0.00986423
H        3.31112967       1.29225806      11.59597639       1.07110409       0.00136023       0.09877309      -0.23052601       0.08613880       0.14021380
H        8.40481176       2.49579447      14.52672158      -0.22338161       0.37308779       0.12201587       0.16874079       0.37063153      -0.25106688
H        8.55170607       8.81930283      14.91262997      -1.17649266       0.74431910       2.17623417       0.18211713      -0.27207433      -0.23645612
H        3.04700418       1.53316047      18.40337947      -1.17992765       0.04125936       0.40955657       0.05491015      -0.06372943       0.06057253
H        3.91208123       3.14002183      13.23187959       0.48943747      -0.37235659       0.52276766       0.02072624       0.09376206      -0.02320530
H        9.28904821       8.62356116      18.20604119       0.12473628      -0.36434551       0.22106128      -0.29719829       0.14817478       0.01997012
H        8.40235471       7.60547689      12.79762463       0.82352332       0.44407555       0.53100358       0.11202930       0.02539565       0.35743406
H        2.20398866       9.09292384      14.67872721       0.20257885       0.25860949       0.33651991      -0.24051225       0.06339303       0.10634347
H        3.14107993       1.74692260      14.06676498       0.11752999       1.03656105      -0.48851109       0.11077126       0.18134030       0.09700419
H        8.15038480       7.48455762      19.01244831      -0.90009566      -0.33595902      -0.60019696      -0.07493397       0.10906889      -0.05790532
H        9.41274297       6.80919768      13.93883927       0.38707163      -0.48268835       0.74106136       0.19742786      -0.17721536      -0.07782413
H        3.16083703       9.72550805      13.40993395      -0.36568285       1.18552772      -1.27307572       0.08264069      -0.00042885       0.03059465
H        2.27972243       3.24985671      13.87616190       0.34512193      -1.04203388      -0.78488452      -0.09722125      -0.03701713       0.25889975
H        9.88320571       0.43712071      12.83745300      -1.20432366       1.16440863      -0.14080253       0.07809078      -0.09990806       0.51866158
H       10.04703522       7.76178018      12.59389772       1.74570477      -0.93416367      -0.89494886       0.34323631       0.21181536       0.00107982
H        3.96241527       8.90214145      14.59582032       0.31832641       0.74262169       1.28285599      -0.38022300       0.03768054       0.27803331
C        3.05807698       8.06634444      19.05622779       0.70743681      -0.36432235       0.80122590      -0.90945598      -0.86190032      -0.89945045
C        9.30252834       1.92337692      14.34735115       0.81880702      -0.42851197      -1.26067031      -1.02388543       0.18868844      -0.23374447
C        8.60083953       3.32921023      19.90873207       1.12268564       0.71857652      -1.12947486       0.19579076       0.34465054       0.25939284
C        2.34601276       1.67217046      19.37592774       1.67830147       0.18692220      -0.34910802      -1.23919709       0.06832857      -0.22321782
Pb       6.22645259       5.00903118      16.64106443      -0.01634410       0.43632664      -0.13432156       2.53041549      -1.68613263       0.11954596
Pb       6.44576101      11.64903682      16.55505489      -0.23369247      -0.23806709       0.41883254      -0.15015276       3.11744248      -1.79545827
Pb      25.64499322      11.36234950      23.30457940      -0.25282241       0.17982587      -0.31891180       0.70727327      -2.59734241       1.29586926
Pb      25.29932703      11.18250076      17.09481047       0.42176313       0.57263235      -0.09843003       1.42090281      -0.84294266      -0.84266827
N        2.99723387       2.54843897      13.36086572      -0.30729305       0.28786585       1.71406260       0.61631241      -0.79481111       0.37446579
N        9.10295770       7.92550175      19.01116836       0.29644903      -0.08223527       0.56899862      -0.41767026      -0.77749544      -0.15236738
N        9.33077480       7.68828444      13.35172987      -2.46569910       0.10375858      -1.17990477       0.26856850      -0.05260812       0.88264262
N        3.04723700       8.99018518      14.07977817       0.95614380      -2.47288777      -0.11211285      -0.03239453      -0.77759187      -0.20880047
I        6.24279081       6.08374023      19.59709593      -0.03349945      -0.13576414       0.24388582      -0.70652938       0.14236087       0.05268755
I        5.98146865       4.01806066      13.44315725       0.16595036       0.31783731      -0.01686485       0.72920270      -0.45336171       2.19778909
I        5.28246766       2.22497156      22.15093460       0.11668635      -0.22250039      -0.19377172       1.11378846       1.10077127       0.85128701
I        6.71874950       8.30654877      11.06786015      -0.10176099      -0.33310037       0.17775927       1.61403298       0.33691821       0.43450740
I       -0.26735091       4.12243922      13.59626092       0.04843079       0.12963606      -0.11664892      -1.73933387      -3.81132149       1.19362546
I       12.04093806       5.91203168      20.02264793      -0.02778502       0.00174553      -0.62883844      -0.95590994      -1.44611931       5.25850101
I       12.09545479       7.93360457      11.30033116       0.14156991       0.03246341      -0.13874223       2.35703356      -4.83000528       1.80081328
I       -0.03466319       2.23984412      22.31776825      -0.11295652       0.31289237       0.01513078      -2.29313359      -3.34329521      -0.85863440
I        9.46560464       5.18357113      16.18164920      -0.02298549       0.17806499      -0.02990893       1.06166220       0.72926263       1.32057167
I        3.16709979      10.54869325      10.65645149      -0.07921260       0.13204422       0.22392805      -0.10432395      -0.03299350       3.56555485
I        3.14971776       5.50122996      22.68490289      -0.56552413       0.07444667       0.00624233      -1.92834555      -3.14957260      -2.78269100
I        9.29053126       4.46146192      10.93630351       0.36678300      -0.10023295       0.02280174      -1.17032534       5.00369433       0.76584568
H        3.03462930       9.03947860      18.60702057       0.04757044       1.11378558      -1.05112316      -0.30578928      -0.09555641       0.11227851
H        8.53714727       7.82883709      21.17952544       0.35190293       0.99651433      -0.55951856      -0.27088312      -0.08798433       0.02652825
H        7.58238433       3.29001173      20.37862219      -0.09967216       0.30294361       0.16992045       0.10354661      -0.21767621       0.12449139
H        3.95043209       7.51183086      12.61615829      -2.61280880       0.69637309       1.73293687       0.00009790      -0.24927428       0.24084124
H        2.44349626       2.82562758      11.32194846       0.05780899       1.48573460      -1.23770859      -0.04560020      -0.03182459       0.04320713
H       10.53352116       8.69042382      20.39349248      -0.11984357      -0.64973692       0.61620130      -0.05074130      -0.01633232       0.03185782
H        9.04765950       9.93746790      13.56217616       0.09939376      -0.66622322      -0.41516936      -0.17627592      -0.22960825      -0.03774739
H        2.83454444       6.77044308      13.95187940       0.12342782      -0.56330396       1.22548368      -0.18992342       0.06231057       0.29057195
H        2.12961995       7.56453293      18.83900085      -0.11232007      -0.79442666      -0.43078000       0.25422603       0.09933231       0.02886235
H        8.79976829       9.97389738      20.39563517       0.20068847      -0.88497349      -0.53382088       0.19206125       0.11040334       0.26528818
H        8.49216365       3.82794498      18.87495404       0.15865314      -0.17725986       1.21414689      -0.08056099      -0.01671583      -0.17106937
H        2.06510186       7.86765791      12.63131510      -0.11257930      -0.92364991      -0.53898129      -0.05549416       0.36549302       0.00967062
H        2.88858584       7.46119607      21.13403379       0.26486684       0.60234516      -0.40923293      -0.08760690      -0.34306389       0.43948230
H        9.17395331       2.01020306      12.14516626       0.08698629      -1.69991806       1.10285356       0.09274823      -0.09049721      -0.07832507
H        8.93666352       1.28390739      20.51208348       0.33043089       0.71772943      -0.60645633       0.11529500      -0.10639676      -0.02355302
H        3.34812430       3.31244106      20.36306672       0.96242183      -0.11712284       0.45008975       0.05039814       0.34452776       0.21413336
H        2.19096814       8.95303161      20.57842250      -0.07144803       0.17767434       0.77025295       0.11083095       0.18312413      -0.21597752
H        8.12855368       0.77029340      13.03322191       0.36670620       0.22055944      -0.53761190      -0.06418097      -0.19899717       0.10448160
H        9.82102001       1.57177583      19.09556889       0.50272664       0.96915007       0.19031115      -0.01557563      -0.03196809      -0.35852918
H        1.72027452       3.28308749      20.42047333      -0.97012009       0.23058062       1.35748943       0.03687426      -0.00050830      -0.17848094
H        3.82181017       8.86532121      20.76325361       1.38820418       0.86977936       0.67763541       0.14212864       0.00869747      -0.20786632
H        9.79265983       7.06209462      18.99589669       0.03650944       0.34116944      -0.32966198       0.33725172       0.03659267      -0.39388938
H        8.19647711       1.58073795      19.06925912      -0.55967968      -0.55037915      -0.70578218       0.09989567       0.32932300       0.06898459
H        2.35861824       3.77965877      19.03565907       0.62564136      -0.61659990       0.38431189       0.16995934       0.00938215       0.20092374
C        2.59624576       2.04683590      12.00372012      -4.12591165      -3.63010270       0.13967317       0.54055304       0.14596232       0.99546356
C        9.24455546       8.61632221      20.35135786       0.20205045       0.88840353       0.63911569       0.25230838      -0.74210247      -0.35292202
C        9.34940384       8.94524029      14.20239091       0.84100227       0.66223952      -1.95153872      -0.30263705      -0.38048503       1.07229979
C        2.97914286       7.65176935      13.29550145       1.60228221       1.00889803      -2.84051313       0.17002807      -0.61487046      -0.94700088
Pb       6.55099144      11.37121911      22.85553128      -0.44936813      -0.02802557       0.08786262       1.85601448      -1.33783427       0.16147195
Pb       6.14702371       5.17780305      22.98629344       0.30617593      -0.02676629       0.05678975      -3.89067911      -0.08571683      -3.36702941
Pb      25.36954555       5.11315999      16.49661705      -0.04260091      -0.11990803       0.47384201      -2.94665709       2.95154503       1.22988655
Pb      25.18152560       5.31833818      23.10008248       0.32771156      -0.00591994      -0.23026090      -0.91456549      -1.45840938       1.97455363
N        3.03218505       8.33308082      20.52402836      -1.57770927      -1.13654462      -0.33935639       0.04221789      -0.16958878       1.46419292
N        9.12639891       1.24632675      12.93879245       0.70224574       0.89500448       0.76174167       0.36188253       1.06381466       0.56540144