768
Lattice="38.36233378009021 -0.17091669423460434 -0.23415642229604455 0.13860846621712591 21.550492846406996 -0.023849043928523623 -0.012701609790407587 0.03213069133637567 18.81004073834508" Properties=species:S:1:pos:R:3:forces:R:3:momenta:R:3 pbc="T T T"
I       17.57007738       5.51053064       3.21120502      -0.11686298       0.05890035       0.03314512      -0.32500321      -0.63156067       0.37592410
I       17.55276967       8.94514686       0.91868522      -0.13192796       0.21143337       0.21913203       1.29991339      -0.06438828      -3.99357772
I        7.77468643      10.85713483       2.99796359      -0.07609095       0.04634069       0.41033434       1.34102164      -0.25516347       0.22050164
I        7.98201662       3.60757716       0.87052606       0.15315400       0.15287914      -0.25735481       2.04190329      -0.30068236      -1.13471720
I       15.45289354       2.37892942       0.98763918      -0.15197425      -0.04720834       0.15094587      -0.09645599       0.52352625       0.23277735
I        0.31753997      12.34546701       3.42361248      -0.06171125      -0.10846355       0.00229483       3.43510890       1.12493805       2.23842704
I        9.66009499       7.75143551       0.89744863       0.11228839      -0.10866081      -0.15443410      -0.87961079       0.38038625      -1.06279807
I        5.80248284       6.83009581       3.01823526       0.10935082      -0.19046934       0.38147509       0.25767908       0.81111705       1.08728373
I        2.12975956       4.75424018       0.90982540       0.18456664       0.28075630      -0.07373314       1.92116020       1.20493107      -1.86434086
I       13.55832442       9.70000209       3.17771485      -0.07809200       0.06510830      -0.06937293      -0.31151757       0.87228609       1.11075458
I        3.75519141      10.26957631       1.00155745      -0.41866486       0.05878017      -0.11899984      -0.15878432      -1.01323205       1.35897422
I       12.07642854       4.39700424       3.01240589      -0.11982320      -0.15450116       0.06582796      -1.73197848       1.29134952      -1.41390535
H        4.73095293       3.88335289       2.15666718       0.30591291       0.21753423      -0.10160374      -0.07313193       0.12717259       0.19919948
H       10.89223738      10.75829144       1.61447701      -0.23037868      -0.74281332       0.36115805      -0.03819987      -0.04206770      -0.03058538
H        1.34703856       9.09854362       4.54466796      -0.07637771      -0.34799017      -0.38139330       0.01290982      -0.17720285      -0.09733979
H       14.58974324       5.46902443       0.12143178       0.37025447       0.21229304       0.44782922       0.11371870      -0.26417072       0.03865614
H        5.76831310       2.95817607       3.40737470      -0.15633072       0.08965264      -0.83700641       0.00876486      -0.15699738       0.14902086
H       10.72465121      12.56501788       2.13988240      -0.39660638       0.21339122       0.31096267      -0.20058163      -0.06781981       0.00570481
H        0.36680951       8.76073468       2.99029778      -0.93500734       0.32051593      -0.20263416      -0.00056010      -0.05832819       0.25041673
H       15.17243176       7.20709410      -0.02380277      -0.25156108      -0.31006045      -0.02928617       0.02898464      -0.02058016       0.02260866
H        5.31749543       2.16534672       1.80531315      -0.20524247       0.21581447       0.26455453      -0.23892413      -0.16150338       0.09160079
H        9.98793988      12.02496332       0.49812900      -0.59296496      -0.46140192      -0.54069594       0.00177955      -0.00340812       0.11220913
H        0.45454941       7.48604820       4.28647877      -0.04438111      -0.32948798       0.08358456      -0.01289948      -0.01443720      -0.13070623
H       15.15756713       6.54334110       1.67677141      -0.63286532      -0.50903093      -1.17605382       0.07240252       0.18585225      -0.01162440
H        3.88685621       1.59007368       3.88888600       0.00124976       0.13002786      -0.25106891      -0.10261196       0.01916337      -0.10841046
H       12.12552344      12.98382166       0.14143839      -0.05235534       0.56157017       0.11184045      -0.23807226      -0.20174187       0.31529449
H        2.66583115       8.42967058       2.39542319      -0.37426414      -0.13699709       0.19239324      -0.22062724       0.24828036       0.12520779
H       12.77431928       7.32558343      18.67678239      -0.00907370      -0.26049148       0.47393082      -0.02680026      -0.07798615      -0.09779052
H        2.96343460       2.27270683       2.67834329      -0.80332734      -0.23358291      -0.83734741      -0.01904442       0.10535868      -0.11104732
H       12.42660830      11.39409080      -0.03687848       0.45953672      -0.72843821      -0.07762818       0.07735438       0.18944299       0.01952925
H        1.88873116       6.87538803       2.41883701       0.08379137       0.37973045       0.09565548      -0.00475049       0.21185975      -0.18071980
H       13.26960385       7.88184250       1.37428106      -0.24698278      -0.26456495       0.31793668       0.02738426       0.03238144       0.08141764
H        3.45076071       3.23490714       3.97221165      -0.04724170      -0.57495610      -0.42523644      -0.15801299      -0.14372351      -0.03023126
H       12.89887969      12.16884097       1.38278434       0.52284892       0.07055865       0.27469609       0.15055276      -0.20794491       0.03125972
H        2.95203339       7.34983157       3.64702685      -0.17365452       0.04221218      -0.08505832      -0.04711971       0.18465108       0.07603287
H       12.61752971       6.26531926       1.28107070      -0.33226373       0.03985577       0.39885916       0.16148190       0.00325231       0.06007087
C        4.99559554       2.90135196       2.58428710       0.21379344      -0.50844169       0.91828527      -0.36348403      -0.35470158      -0.16073943
C       10.81808000      11.80936899       1.27388753       0.66377125       0.71587874       0.16143765       0.72988741       0.37849543       0.21813994
C        0.96575682       8.31370668       3.79542945       1.86004618       0.34893842      -0.38320258       0.41990868       0.04356114       0.12682854
C       14.63276162       6.47269059       0.60986009       0.65371604       0.44347584       0.83520224       0.08091194       0.37520095      -0.24465888
Pb      37.64866060       3.50145059       0.71196957       0.01414467      -0.29219430       0.25523075      -0.04681270      -0.23484640      -0.68489123
Pb      16.51447907      10.90928703       3.33057710       0.03306021       0.07067580       0.07340523       0.01741948       1.36840139      -1.81013326
Pb       6.51257628       8.94908543       0.82874689       0.23635115      -0.07627470      -0.07273957       0.23828263      -1.37289070       0.97930200
Pb       9.00466096       5.47210970       3.11534743      -0.19693011       0.05689504      -0.06767471       1.33895227      -2.08158381       0.84550977
N        3.74626158       2.44800201       3.29544683       0.67981677       0.54702039       1.49544310      -0.18614175       0.46678119      -0.92469314
N       12.15340813      12.10156706       0.67717177      -0.41618875       0.28761110      -0.77171048       0.39168225      -0.03566859       0.20172907
N        2.18458981       7.71886458       3.01095100      -0.16607000      -0.19674457       0.74170745       0.48271004      -0.13763796       0.12815072
N       13.21125835       6.99649563       0.82167586       0.28734708       0.62987756      -1.24515420       0.36008230      -0.30162719      -0.16472846
I       17.43865192       5.36170986       8.03454972      -0.03879436       0.39047107      -0.21448383       1.29077250       0.52186196      -0.46737153
I       17.26150187       9.12871276       5.80166573       0.01026241      -0.18102485      -0.21992589       0.39886047       2.52404683       0.61066170
I        7.51478089      10.88105280       8.01676805       0.17123548       0.07723476      -0.44220516       2.01928920      -0.47417438      -1.01907915
I        7.83288521       3.63974802       5.50963737       0.09547687      -0.01792643       0.05597174      -0.53931640      -0.72466806      -0.64588768
I       15.43238569       2.36226152       5.82025488       0.15478399      -0.10939142      -0.27610486       1.46937981      -0.53254491       0.08598549
I        0.39746881      12.27646956       7.95672388      -0.19857952       0.01325555       0.12438011      -2.07716923       1.16808307       1.23951528
I        9.70637955       7.72076626       5.50900874       0.18194361       0.04815284       0.04338232       0.47664588      -0.10199469       0.88554665
I        5.73962224       6.86986923       7.93690825       0.09098688      -0.09678865      -0.30495404      -1.97190399       0.24420216       1.07483857
I        2.28058569       4.96526034       5.38820497       0.14218439      -0.07622801       0.21522161      -0.79240413      -0.16074529       0.67861166
I       13.56943722       9.62427755       7.72752209      -0.19285860       0.21442564       0.15719303       0.83698765      -0.32826431       0.98555666
I        3.77472418      10.36888561       5.55052137       0.06596021      -0.00479697       0.06967881      -2.14296249       1.33998732      -1.14368986
I       11.79951761       4.36772274       7.89551313       0.15354241      -0.14689815       0.04364443      -0.98216070      -0.26632195       0.79568866
H        5.25318019       2.04063007       8.97904265       0.11767062       0.03455631      -0.35114905      -0.03095418       0.04861346       0.04639624
H       10.38416508      10.96598239       6.39075632       0.22094340       0.54832491      -0.60275062       0.10594892       0.13524216       0.10161436
H        0.97816924       9.20734338       7.25645234       0.12828543       0.08175488      -0.63612160       0.11601869       0.04894395      -0.03498703
H       14.24626343       5.47553072       6.60239304      -0.03627411       0.00407041      -0.09685853      -0.06125734       0.03865519       0.01068066
H        5.57941412       3.40912969       7.73183669      -0.55356520      -0.25259004       0.43351159       0.07107921       0.10352976      -0.14797178
H       10.07592037      12.21456799       4.88231099      -0.22162932      -0.23114791       0.54161631       0.09365347       0.02103598       0.16718484
H        0.89579316       7.27931682       6.52419250       0.06051009       0.57950184      -0.11355364      -0.10268503      -0.23124630       0.21536141
H       15.33729221       6.31613906       5.42939651       0.44768882      -0.25849988      -0.87441377      -0.00644116      -0.19571974       0.00895656
H        4.56908077       3.65029479       9.30483732      -0.03928758       0.89945597       0.11069236      -0.15418980       0.04994778       0.06912584
H       11.18804959      10.68417571       4.72793224      -0.34087660       0.33920114       0.18205159       0.14134136      -0.00847451       0.21311948
H       38.24881177       7.65834392       7.89281981       0.39075584      -0.11860087       0.42811240      -0.28399245      -0.04120246       0.12426219
H       14.71913888       7.17154489       6.83257183       0.17861702       0.95766947       0.60789932      -0.08621036      -0.04816398       0.18841938
H        3.25700637       3.24893413       7.12764036      -0.48029393      -0.04761834       0.40710564      -0.04823009      -0.01247007       0.00181778
H       11.91733169      13.16064312       6.28292340       0.47943505      -0.27142679      -0.29275806      -0.07827917      -0.01292735      -0.05402849
H        2.42047548       8.53938727       8.93531526       0.02505903      -0.24507288      -0.02932181      -0.30617580      -0.20609030       0.00962104
H       13.43785267       7.73075866       4.80823957      -0.13447553       0.17824462      -0.07418480       0.12818932      -0.08312486      -0.09587532
H        2.83804947       2.32775408       8.56582426       0.28118403       0.30892506      -1.11354472      -0.01128555      -0.03317080      -0.13622696
H       12.58790668      12.57298551       4.75793142      -0.39044395       0.47027576       0.64934799       0.07688986      -0.00593582       0.07976490
H        3.10557547       7.71772016       7.59103953      -0.55654444       0.06135200       0.31388646       0.12470047       0.14098258       0.09594621
H       12.29463268       6.89657968       5.83818902       0.50093637      -0.08335539      -0.13845255      -0.05155282       0.03641946      -0.05159481
H        3.66325793       1.66190700       7.25872545       0.20215631      -0.86838056      -0.33019625      -0.19047766       0.00734398       0.01701671
H       12.80594388      11.66428091       6.12263471       0.70232211      -1.03540305       1.41411975       0.02046138       0.09802424       0.04492695
H        2.12403917       6.84228408       8.72552635       0.16022007       0.19787542      -0.23345528      -0.03819280      -0.10022843       0.06254545
H       13.03343322       6.08494417       4.47309254       0.15075350       0.33152235       0.34557622       0.16102363      -0.05139916       0.10354731
C        4.83510067       2.94039915       8.47944802       0.68650002      -0.83257948      -0.11510845       0.87059357       0.09588745      -0.15669718
C       10.81151480      11.51293329       5.41835334       0.23783195      -0.62739743      -0.38991460       0.07239731      -0.37914284      -0.19674510
C        0.90985877       8.05552833       7.46491106       0.00928994      -0.86160634      -0.07017590       0.22540542      -0.01565292      -0.00640579
C       14.46870181       6.42476001       6.09375198      -0.95007555      -0.75426882       0.31267265       0.05925179       0.57635400       0.53433863
Pb      37.66960992       3.57110466       5.46045996       0.07035540      -0.19685125      -0.10728149      -0.29692884      -0.76246503       1.05620023
Pb      16.47490157      11.03638570       8.18781245      -0.06282825      -0.05217273      -0.21786755       1.29123657       0.91661975       0.99709057
Pb       6.70005182       9.05085402       5.42022963      -0.18542865       0.15500202       0.12671824       0.90670896       0.04618896       0.82376390
Pb       8.94257007       5.57816427       7.78049693      -0.42139645      -0.05508239       0.33933774       0.75554178      -0.46234975       0.51113417
N        3.56483609       2.50611042       7.81541244      -0.07101216       0.77561727       0.70023845      -0.27501431       0.46780888       0.05677548
N       12.12154774      12.30242163       5.69223932      -0.74943941       0.89698074      -1.51534378       0.44232823      -0.17694992      -0.18431464
N        2.20693374       7.75935981       8.21392092       0.09750955       0.39900768       0.34463344      -0.13020841      -0.17175988      -0.40608344
N       13.24102475       6.81717891       5.27816119      -0.04038266      -0.42272295      -0.12474467      -0.18673383      -0.08160348      -0.13356811
I       17.56372658       5.52659599      12.61622539      -0.11686298       0.05890035       0.03314512      -0.32500321      -0.63156067       0.37592410
I       17.54641887       8.96121221      10.32370559      -0.13192796       0.21143337       0.21913203       1.29991339      -0.06438828      -3.99357772
I        7.76833563      10.87320018      12.40298396      -0.07609095       0.04634069       0.41033434       1.34102164      -0.25516347       0.22050164
I        7.97566582       3.62364251      10.27554643       0.15315400       0.15287914      -0.25735481       2.04190329      -0.30068236      -1.13471720
I       15.44654274       2.39499477      10.39265955      -0.15197425      -0.04720834       0.15094587      -0.09645599       0.52352625       0.23277735
I        0.31118917      12.36153236      12.82863285      -0.06171125      -0.10846355       0.00229483       3.43510890       1.12493805       2.23842704
I        9.65374419       7.76750086      10.30246900       0.11228839      -0.10866081      -0.15443410      -0.87961079       0.38038625      -1.06279807
I        5.79613204       6.84616116      12.42325563       0.10935082      -0.19046934       0.38147509       0.25767908       0.81111705       1.08728373
I        2.12340876       4.77030553      10.31484577       0.18456664       0.28075630      -0.07373314       1.92116020       1.20493107      -1.86434086
I       13.55197362       9.71606744      12.58273522      -0.07809200       0.06510830      -0.06937293      -0.31151757       0.87228609       1.11075458
I        3.74884061      10.28564166      10.40657782      -0.41866486       0.05878017      -0.11899984      -0.15878432      -1.01323205       1.35897422
I       12.07007774       4.41306959      12.41742626      -0.11982320      -0.15450116       0.06582796      -1.73197848       1.29134952      -1.41390535
H        4.72460213       3.89941824      11.56168755       0.30591291       0.21753423      -0.10160374      -0.07313193       0.12717259       0.19919948
H       10.88588658      10.77435679      11.01949738      -0.23037868      -0.74281332       0.36115805      -0.03819987      -0.04206770      -0.03058538
H        1.34068776       9.11460897      13.94968833      -0.07637771      -0.34799017      -0.38139330       0.01290982      -0.17720285      -0.09733979
H       14.58339244       5.48508978       9.52645215       0.37025447       0.21229304       0.44782922       0.11371870      -0.26417072       0.03865614
H        5.76196230       2.97424142      12.81239507      -0.15633072       0.08965264      -0.83700641       0.00876486      -0.15699738       0.14902086
H       10.71830041      12.58108323      11.54490277      -0.39660638       0.21339122       0.31096267      -0.20058163      -0.06781981       0.00570481
H        0.36045871       8.77680003      12.39531815      -0.93500734       0.32051593      -0.20263416      -0.00056010      -0.05832819       0.25041673
H       15.16608096       7.22315945       9.38121760      -0.25156108      -0.31006045      -0.02928617       0.02898464      -0.02058016       0.02260866
H        5.31114463       2.18141207      11.21033352      -0.20524247       0.21581447       0.26455453      -0.23892413      -0.16150338       0.09160079
H        9.98158908      12.04102867       9.90314937      -0.59296496      -0.46140192      -0.54069594       0.00177955      -0.00340812       0.11220913
H        0.44819861       7.50211355      13.69149914      -0.04438111      -0.32948798       0.08358456      -0.01289948      -0.01443720      -0.13070623
H       15.15121633       6.55940645      11.08179178      -0.63286532      -0.50903093      -1.17605382       0.07240252       0.18585225      -0.01162440
H        3.88050541       1.60613903      13.29390637       0.00124976       0.13002786      -0.25106891      -0.10261196       0.01916337      -0.10841046
H       12.11917264      12.99988701       9.54645876      -0.05235534       0.56157017       0.11184045      -0.23807226      -0.20174187       0.31529449
H        2.65948035       8.44573593      11.80044356      -0.37426414      -0.13699709       0.19239324      -0.22062724       0.24828036       0.12520779
H       12.78067009       7.30951809       9.27176202      -0.00907370      -0.26049148       0.47393082      -0.02680026      -0.07798615      -0.09779052
H        2.95708380       2.28877218      12.08336366      -0.80332734      -0.23358291      -0.83734741      -0.01904442       0.10535868      -0.11104732
H       12.42025750      11.41015615       9.36814189       0.45953672      -0.72843821      -0.07762818       0.07735438       0.18944299       0.01952925
H        1.88238036       6.89145338      11.82385738       0.08379137       0.37973045       0.09565548      -0.00475049       0.21185975      -0.18071980
H       13.26325305       7.89790785      10.77930143      -0.24698278      -0.26456495       0.31793668       0.02738426       0.03238144       0.08141764
H        3.44440991       3.25097249      13.37723202      -0.04724170      -0.57495610      -0.42523644      -0.15801299      -0.14372351      -0.03023126
H       12.89252889      12.18490632      10.78780471       0.52284892       0.07055865       0.27469609       0.15055276      -0.20794491       0.03125972
H        2.94568259       7.36589692      13.05204722      -0.17365452       0.04221218      -0.08505832      -0.04711971       0.18465108       0.07603287
H       12.61117891       6.28138461      10.68609107      -0.33226373       0.03985577       0.39885916       0.16148190       0.00325231       0.06007087
C        4.98924474       2.91741731      11.98930747       0.21379344      -0.50844169       0.91828527      -0.36348403      -0.35470158      -0.16073943
C       10.81172920      11.82543434      10.67890790       0.66377125       0.71587874       0.16143765       0.72988741       0.37849543       0.21813994
C        0.95940602       8.32977203      13.20044982       1.86004618       0.34893842      -0.38320258       0.41990868       0.04356114       0.12682854
C       14.62641082       6.48875594      10.01488046       0.65371604       0.44347584       0.83520224       0.08091194       0.37520095      -0.24465888
Pb      37.64230980       3.51751593      10.11698994       0.01414467      -0.29219430       0.25523075      -0.04681270      -0.23484640      -0.68489123
Pb      16.50812827      10.92535238      12.73559747       0.03306021       0.07067580       0.07340523       0.01741948       1.36840139      -1.81013326
Pb       6.50622548       8.96515078      10.23376726       0.23635115      -0.07627470      -0.07273957       0.23828263      -1.37289070       0.97930200
Pb       8.99831016       5.48817505      12.52036780      -0.19693011       0.05689504      -0.06767471       1.33895227      -2.08158381       0.84550977
N        3.73991078       2.46406736      12.70046720       0.67981677       0.54702039       1.49544310      -0.18614175       0.46678119      -0.92469314
N       12.14705733      12.11763241      10.08219214      -0.41618875       0.28761110      -0.77171048       0.39168225      -0.03566859       0.20172907
N        2.17823901       7.73492993      12.41597137      -0.16607000      -0.19674457       0.74170745       0.48271004      -0.13763796       0.12815072
N       13.20490755       7.01256098      10.22669623       0.28734708       0.62987756      -1.24515420       0.36008230      -0.30162719      -0.16472846
I       17.43230112       5.37777521      17.43957009      -0.03879436       0.39047107      -0.21448383       1.29077250       0.52186196      -0.46737153
I       17.25515107       9.14477811      15.20668610       0.01026241      -0.18102485      -0.21992589       0.39886047       2.52404683       0.61066170
I        7.50843009      10.89711815      17.42178842       0.17123548       0.07723476      -0.44220516       2.01928920      -0.47417438      -1.01907915
I        7.82653441       3.65581337      14.91465774       0.09547687      -0.01792643       0.05597174      -0.53931640      -0.72466806      -0.64588768
I       15.42603489       2.37832687      15.22527525       0.15478399      -0.10939142      -0.27610486       1.46937981      -0.53254491       0.08598549
I        0.39111801      12.29253491      17.36174425      -0.19857952       0.01325555       0.12438011      -2.07716923       1.16808307       1.23951528
I        9.70002875       7.73683161      14.91402911       0.18194361       0.04815284       0.04338232       0.47664588      -0.10199469       0.88554665
I        5.73327144       6.88593458      17.34192862       0.09098688      -0.09678865      -0.30495404      -1.97190399       0.24420216       1.07483857
I        2.27423489       4.98132569      14.79322534       0.14218439      -0.07622801       0.21522161      -0.79240413      -0.16074529       0.67861166
I       13.56308642       9.64034290      17.13254246      -0.19285860       0.21442564       0.15719303       0.83698765      -0.32826431       0.98555666
I        3.76837338      10.38495096      14.95554174       0.06596021      -0.00479697       0.06967881      -2.14296249       1.33998732      -1.14368986
I       11.79316681       4.38378809      17.30053350       0.15354241      -0.14689815       0.04364443      -0.98216070      -0.26632195       0.79568866
H        5.24682939       2.05669542      18.38406302       0.11767062       0.03455631      -0.35114905      -0.03095418       0.04861346       0.04639624
H       10.37781428      10.98204774      15.79577669       0.22094340       0.54832491      -0.60275062       0.10594892       0.13524216       0.10161436
H        0.97181844       9.22340873      16.66147271       0.12828543       0.08175488      -0.63612160       0.11601869       0.04894395      -0.03498703
H       14.23991263       5.49159607      16.00741341      -0.03627411       0.00407041      -0.09685853      -0.06125734       0.03865519       0.01068066
H        5.57306332       3.42519504      17.13685706      -0.55356520      -0.25259004       0.43351159       0.07107921       0.10352976      -0.14797178
H       10.06956957      12.23063334      14.28733136      -0.22162932      -0.23114791       0.54161631       0.09365347       0.02103598       0.16718484
H        0.88944236       7.29538217      15.92921287       0.06051009       0.57950184      -0.11355364      -0.10268503      -0.23124630       0.21536141
H       15.33094141       6.33220441      14.83441688       0.44768882      -0.25849988      -0.87441377      -0.00644116      -0.19571974       0.00895656
H        4.56272997       3.66636014      18.70985769      -0.03928758       0.89945597       0.11069236      -0.15418980       0.04994778       0.06912584
H       11.18169879      10.70024106      14.13295261      -0.34087660       0.33920114       0.18205159       0.14134136      -0.00847451       0.21311948
H       38.24246097       7.67440926      17.29784018       0.39075584      -0.11860087       0.42811240      -0.28399245      -0.04120246       0.12426219
H       14.71278808       7.18761024      16.23759220       0.17861702       0.95766947       0.60789932      -0.08621036      -0.04816398       0.18841938
H        3.25065557       3.26499948      16.53266073      -0.48029393      -0.04761834       0.40710564      -0.04823009      -0.01247007       0.00181778
H       11.91098089      13.17670847      15.68794377       0.47943505      -0.27142679      -0.29275806      -0.07827917      -0.01292735      -0.05402849
H        2.41412468       8.55545262      18.34033563       0.02505903      -0.24507288      -0.02932181      -0.30617580      -0.20609030       0.00962104
H       13.43150187       7.74682401      14.21325994      -0.13447553       0.17824462      -0.07418480       0.12818932      -0.08312486      -0.09587532
H        2.83169867       2.34381943      17.97084463       0.28118403       0.30892506      -1.11354472      -0.01128555      -0.03317080      -0.13622696
H       12.58155588      12.58905086      14.16295179      -0.39044395       0.47027576       0.64934799       0.07688986      -0.00593582       0.07976490
H        3.09922467       7.73378551      16.99605990      -0.55654444       0.06135200       0.31388646       0.12470047       0.14098258       0.09594621
H       12.28828188       6.91264503      15.24320939       0.50093637      -0.08335539      -0.13845255      -0.05155282       0.03641946      -0.05159481
H        3.65690713       1.67797235      16.66374582       0.20215631      -0.86838056      -0.33019625      -0.19047766       0.00734398       0.01701671
H       12.79959308      11.68034626      15.52765508       0.70232211      -1.03540305       1.41411975       0.02046138       0.09802424       0.04492695
H        2.11768837       6.85834943      18.13054672       0.16022007       0.19787542      -0.23345528      -0.03819280      -0.10022843       0.06254545
H       13.02708242       6.10100952      13.87811291       0.15075350       0.33152235       0.34557622       0.16102363      -0.05139916       0.10354731
C        4.82874987       2.95646450      17.88446839       0.68650002      -0.83257948      -0.11510845       0.87059357       0.09588745      -0.15669718
C       10.80516400      11.52899864      14.82337371       0.23783195      -0.62739743      -0.38991460       0.07239731      -0.37914284      -0.19674510
C        0.90350797       8.07159368      16.86993143       0.00928994      -0.86160634      -0.07017590       0.22540542      -0.01565292      -0.00640579
C       14.46235101       6.44082536      15.49877235      -0.95007555      -0.75426882       0.31267265       0.05925179       0.57635400       0.53433863
Pb      37.66325912       3.58717000      14.86548033       0.07035540      -0.19685125      -0.10728149      -0.29692884      -0.76246503       1.05620023
Pb      16.46855077      11.05245105      17.59283282      -0.06282825      -0.05217273      -0.21786755       1.29123657       0.91661975       0.99709057
Pb       6.69370102       9.06691937      14.82525000      -0.18542865       0.15500202       0.12671824       0.90670896       0.04618896       0.82376390
Pb       8.93621927       5.59422962      17.18551730      -0.42139645      -0.05508239       0.33933774       0.75554178      -0.46234975       0.51113417
N        3.55848529       2.52217577      17.22043281      -0.07101216       0.77561727       0.70023845      -0.27501431       0.46780888       0.05677548
N       12.11519694      12.31848698      15.09725969      -0.74943941       0.89698074      -1.51534378       0.44232823      -0.17694992      -0.18431464