768
Lattice="25.489424268572538 -0.0956594233117733 0.005584256169073863 0.09977264370270744 24.739172851202614 0.6001478684267295 -0.002024446371267937 0.5682806783236378 24.75292066089703" Properties=species:S:1:pos:R:3:forces:R:3:momenta:R:3 pbc="T T T"
I        6.95141985      23.91413890       2.26532930       0.02153161       0.04903027      -0.06756106      -0.03464778       1.42586948      -0.34231900
I        6.42065327      10.13199434       8.21853942      -0.01267244      -0.11893085      -0.12578221      -0.54706620       1.09692787      -0.90370145
I        6.61961187       7.85191858       4.25069559      -0.10590066      -0.12025638      -0.00570850      -1.91686745      -2.89870971       0.74536389
I        6.86449267       1.63973183       5.53974787      -0.07047499      -0.16627642       0.11102120      -0.62144040      -0.41936529       0.66510895
I        0.46667139       9.78462983       8.51952416      -0.05444607       0.20824565      -0.38261393       0.95961071       2.09193150      -1.94158780
I       12.86944287      24.02042304       2.45848103      -0.09284916      -0.16139299       0.26344346       0.30920786      -0.05838541       1.28837630
I       12.61296408       1.49465839       6.07525964       0.17616968      -0.07481047      -0.17090678       1.25858632       0.43556097      -2.69105241
I        0.54504781       7.70723691       4.49388923       0.01541073       0.20149110      -0.00577194       0.66674185       1.14551625       1.21206277
I        9.83062064      11.38150942      10.96442834       0.11661767      -0.08609365      -0.00820497       0.80650360       1.20123567       0.05175798
I        3.61294562       4.23329104       5.56449061      -0.19470401      -0.02803861      -0.10186787      -0.48180431       0.65915054       0.06094772
I        3.58602903      23.56049181       5.06953688      -0.34555734      -0.09239792       0.02532401       1.50750360       2.22728379       0.61631303
I        9.80633655      10.39924197       5.58813958       0.18126852       0.11838075       0.04010104       0.50574682      -0.08109432       0.62228574
H        2.39630755       0.92088049       1.16783609      -0.09602636       0.63026709       0.22620621       0.01981308      -0.10779090       0.12320720
H        9.75162223       0.95082035       3.21961250       0.29415988      -0.11162725       0.30162034       0.16758944      -0.05163268       0.16991522
H       10.73746741       8.48108633       3.16646399       0.39368715      -0.05892455       0.26770444       0.09082617      -0.02186333       0.18611726
H        3.30578524      24.77820074       9.42253467       0.03075026      -0.02106310       0.61815597      -0.06175755      -0.16512826       0.02665303
H        4.50323984       7.38720117       6.90595702      -0.35818888       0.31211177       0.20738335      -0.17259633       0.09535147      -0.01260499
H       10.81202212       2.31173820       2.61124278       0.75113422       0.39745671       0.44564332       0.04004698       0.03116438      -0.08307800
H       10.63624550       2.68547692       8.48216728       0.60631419      -0.26908401       0.21671056      -0.10118339      -0.10818920      -0.02453343
H        2.43462502       0.63313757       7.34783407       0.00143612       0.24312307       0.18389510       0.03219180      -0.13833258       0.03456943
H        4.12863682       0.71728661       0.87494061      -0.32807009       0.95011454      -0.08135106       0.05196058      -0.15553355       0.01093880
H        9.05705365       2.45731484       2.69453293      -1.06134089       0.87470497       0.14733583      -0.13004764       0.18016612      -0.14329635
H        8.93180492       8.76803256       2.61282402       0.22634446       0.22554098       0.15059040      -0.05817875      -0.00538007       0.00241913
H        4.20389785       0.44849283       7.41242688      -0.26466175       0.54021530       0.37920476       0.01084834       0.15229844       0.05409744
H        4.74680958       2.11234875       2.76598643       0.33754595       1.19608852       0.02163134      -0.04575080      -0.08640315       0.10812544
H        9.85863456       8.16424319       7.02704132      -0.05806850       1.47989260      -1.02394253       0.07532172      -0.20793616       0.03943307
H        8.91339332       6.89439048       1.36199456       0.08761002       0.30914588      -0.10137476       0.08138230      -0.20713002      -0.09553932
H        2.61193509       7.87052541       3.14972587      -0.33573851       0.61353597       0.04063863      -0.37099324      -0.01147868      -0.02178121
H        3.50066175       1.07347491       3.25141423      -0.08352253      -0.60199552       0.27332880      -0.07448878      -0.07729535       0.10341187
H        8.90928122       6.79346449       7.30778790       0.11210309       0.30672765      -0.31169396      -0.04757747       0.02287175      -0.20150807
H        9.83911976       6.42018507       2.68490772      -0.11387266       0.18294379      -0.14709203      -0.07936517       0.10170328       0.19179603
H        3.48632738       8.42043294       1.74403580      -0.45174376       0.90016275      -0.34711312       0.12711411      -0.00062180      -0.15487832
H        2.97144570       2.70724616       2.94127666       1.36880275      -0.46150735      -0.15517090      -0.14877820       0.02328740       0.15354707
H       10.54286129       0.47606268       1.06317371       0.09409076       0.45239164      -0.18326688      -0.05686884      -0.00173596       0.17737800
H       10.58376183       6.70928593       1.22603278       0.43460566       0.26369602      -0.34756079       0.21222725       0.13612240       0.10850223
H        4.30259754       7.88999089       3.05728079       0.48798802       0.12349884       0.49486713      -0.15022682       0.08570520      -0.03114567
C        3.49856756       7.80113500       7.25678875      -0.11386216       0.44867656      -0.78708787       0.27058245      -0.42142942       0.17800572
C        9.87019796       1.80155859       2.54249929       0.05625664      -1.06201530      -0.90742385      -0.64832531      -0.05853057       0.12467194
C        9.68689941       2.44101117       8.00774128      -0.34556301       0.61757915      -0.25985604       0.31032868       0.18019270       0.12342181
C        3.30869902       0.75508862       8.00947058      -0.00631147      -0.58616820      -1.12766661       0.46276705      -0.07942795       0.69135801
Pb       6.80413178       4.73443255       4.99161777      -0.00208160       0.03496882       0.09591972      -1.41283268       0.24939049       1.04652175
Pb       6.56122222      10.92720617       5.02075577       0.19257203       0.08095324      -0.19434264       2.66985941      -0.86603247      -0.35939917
Pb       0.40635822      11.04089110      11.47875723      -0.31608399      -0.19490765       0.03443027       1.50474510      -0.96382954      -0.13908411
Pb       0.20068913      10.96657218       5.38894992       0.03409839      -0.19902111      -0.10235832       0.27496687      -0.79064261       0.76208808
N        3.67740740       1.89535861       2.63846158      -1.87810842      -0.22734894      -0.12529429      -0.19745993       0.32628213       0.03721092
N        9.79281017       7.31406392       7.54467160      -0.42468307      -2.80467831       1.04871919       0.11365170       0.17466505      -0.55776443
N        9.82850501       7.05930858       1.84914485      -0.20542819      -0.77639602       0.47558403      -0.26441488       0.54168466      -0.18147727
N        3.43324441       7.77438147       2.52178941       0.49275340      -1.08596062      -0.28117001       0.87391730      -0.29028584      -0.17943822
I        6.76024895       5.47096448       8.12379257       0.10229871       0.12960761      -0.10818097      -0.85440184       1.83042576      -1.36471734
I        6.48487415       3.86449211       1.96257136       0.03344563      -0.06017613      -0.01471930       2.07067007       1.10058487      -0.20326720
I        6.37474240       1.77048815      10.26852825      -0.01496123      -0.09144367       0.00800062      -0.28055214       1.74837884      -0.26327487
I        6.84289191       8.13517928      24.62074917       0.03416107       0.13056831      -0.09429318      -0.11082230       1.23296620       2.45754394
I        0.71445660       3.53345889       2.01771098      -0.06297715       0.20480675      -0.08240277      -1.75060750      -0.29995024      -0.08342645
I       12.78617743       5.31296068       8.09646007      -0.00415037       0.08663011       0.10509610       0.66756493      -1.47279387      -1.35378846
I       12.68636568       8.06449244      24.49955995       0.05252407      -0.01629291       0.06439727       2.48135027      -1.99681061       1.26153917
I        0.60840789       1.70665456      10.46215047      -0.05858175      -0.01433547      -0.07712817      -1.40359808       1.20935569      -1.25614236
I        9.94641571       5.05449883       4.78037124       0.07645320      -0.04518625       0.00715842       1.36455783      -1.17081447       0.05786173
I        3.50119140      10.43284869      24.19329308      -0.13002043       0.15848540       0.02911765      -0.04073709       0.85277063      -0.67246907
I        3.54595590       4.99936677      10.65637250      -0.12865740       0.14154602      -0.01542233       1.99607433       0.02908107       2.30408912
I        9.89530763       4.53859017      23.90895919       0.04620680       0.25674346      -0.03357509       0.89784607      -1.85548394       0.63500482
H        3.22402241       8.78664871       6.71982627       0.25887619      -0.52540012       0.07049628       0.04176796       0.11304597      -0.10793459
H        9.61249050       6.50405794       9.55911830      -0.11371277      -0.60217100      -0.08811762       0.16318259       0.08086675      -0.09012589
H        8.89970571       2.70256073       8.75306145      -0.12405600      -0.27033884      -0.28308691       0.19943837      -0.02115020       0.18545940
H        4.18743654       6.24164747       1.22108452       0.21947310       0.03084082       0.05791994      -0.00159527      -0.09143483       0.13502212
H        3.29028936       2.40938003       0.58901115       0.23523732      -0.37473794       0.02534243      -0.08043565      -0.06343009       0.00818617
H       10.77744695       7.84673907       9.38216456       0.42941413       0.31130744       0.09640583       0.02861292       0.02829986       0.18859309
H       10.37265591       9.17802340       1.43694348      -0.03929604      -0.65382621       0.46938970       0.20164726      -0.11239740       0.08328724
H        3.42168617       5.67966235       2.77601877      -0.26694391       0.00688040      -0.59827857       0.10170980      -0.07721754       0.00909987
H        2.68171023       7.08097620       7.06726902       0.05512172      -0.14681689       0.14803812      -0.04109583      -0.02882940      -0.07036720
H        9.01780825       8.24835140       9.35988793       0.31993018      -0.52925762      -0.47869448      -0.13681298      -0.08048677      -0.02939766
H        9.60556624       3.09154017       7.09864803      -0.16136786      -0.64837604       0.44522895      -0.01532945      -0.10682710       0.09479938
H        2.40813481       6.41531809       1.33841516       0.14260896      -0.52854649       0.41434718      -0.01588718      -0.04663917      -0.00422976
H        3.56760421       7.29787990       9.31589061       0.33207979       0.41206112      -0.19628367       0.04737695      -0.24863520       0.05311651
H        9.88858178       1.95013834       0.39377520      -0.00492674       0.23234308      -0.14583347      -0.00933931      -0.09707404       0.03395239
H        9.73393242       0.30580177       8.41420846      -0.02825286       0.63311418      -0.22409526      -0.16842869      -0.00270292      -0.06119943
H        4.32260149       2.24993203       8.95978843       0.66388310       0.45454449       0.53662912      -0.08142193       0.13224590       0.03318353
H        2.60379110       8.64972912       8.94272553       0.42145594      -0.29156022      -0.13606603      -0.03156457       0.05279753      -0.03714660
H        8.90805159       0.67213311       1.05721249       0.02072473       0.41220641      -0.07925561       0.29485063       0.19439598      -0.13677032
H       10.40056056       0.83630992       6.93245930       0.10253839      -0.12683461       0.00797130      -0.07166766       0.03914375       0.02939087
H        2.62743477       2.36929814       9.23202624       0.78514830      -0.30190364      -0.70800706      -0.16367694       0.07670751       0.20545092
H        4.29873378       8.83220408       8.85892561      -0.13178053      -0.41577859       0.24293943       0.02565309       0.03105603      -0.09358242
H       10.56440574       6.64304838       7.25331534      -0.20075821       0.48161868       0.22223346      -0.05522887      -0.09968709      -0.16675718
H        8.72443303       0.77721439       7.10847521       0.22420302       0.24695357       0.19342958       0.02949632      -0.09330993       0.17426648
H        3.32383752       2.80858779       7.70585943       0.11304873       0.36615068      -0.16317503      -0.07958625       0.10018056      -0.06238885
C        3.34989696       1.49916386       1.20822093       0.55030510      -1.33715656      -0.35594794      -0.48680848       0.03239949      -0.02397354
C        9.78621392       7.46144419       9.03876141      -0.06173805       1.50323523       0.66826716      -0.24384253      -0.09482640       0.20957976
C       10.00241724       8.46987531       2.30426755      -0.86496312       0.56730156      -0.99305972       0.22011376       0.14862854      -0.67181836
C        3.36093946       6.39458076       1.92749336      -0.23511115       0.16618482       0.11001043      -0.02510631       0.21021500      -0.13127158
Pb       6.49445067      11.08106587      10.99942184       0.39304783      -0.15984674       0.62829520      -2.22386382       0.31778258      -0.27498986
Pb       6.55241839       4.91221050      11.27560457       0.53714604       0.04726473       0.02321694       1.80842606       1.36510190       1.36593067
Pb       0.50188694       4.59500054       5.04935188      -0.12650891       0.02944162      -0.09650990       0.71627715      -1.44797273      -1.42527335
Pb       0.48014402       4.78964613      11.21488783      -0.49986702       0.07927063       0.21896382       2.57598144      -0.78661459      -1.22985498
N        3.51365387       8.14665261       8.69698139      -0.41493340       0.03963736       0.49899537       0.62147114      -0.87454998       0.24434051
N        9.79604851       1.23239496       1.15201223      -0.17402521      -1.44835656       0.58226300       0.13873528      -0.12268766      -0.07045528
N        9.62265170       1.00132713       7.61276020      -0.28985078      -0.23652115       0.22672340       0.09491854       0.10014031      -0.44537613
N        3.40298947       2.15617230       8.50108988      -1.20518184      -0.75592927       0.15398023      -0.47499755      -0.52519154       0.12672674
I        6.95040763      24.19827924      14.64178963       0.02153161       0.04903027      -0.06756106      -0.03464778       1.42586948      -0.34231900
I        6.41964105      10.41613468      20.59499975      -0.01267244      -0.11893085      -0.12578221      -0.54706620       1.09692787      -0.90370145
I        6.61859965       8.13605892      16.62715592      -0.10590066      -0.12025638      -0.00570850      -1.91686745      -2.89870971       0.74536389
I        6.86348045       1.92387217      17.91620820      -0.07047499      -0.16627642       0.11102120      -0.62144040      -0.41936529       0.66510895
I        0.46565917      10.06877017      20.89598449      -0.05444607       0.20824565      -0.38261393       0.95961071       2.09193150      -1.94158780
I       12.86843065      24.30456338      14.83494136      -0.09284916      -0.16139299       0.26344346       0.30920786      -0.05838541       1.28837630
I       12.61195186       1.77879873      18.45171997       0.17616968      -0.07481047      -0.17090678       1.25858632       0.43556097      -2.69105241
I        0.54403559       7.99137725      16.87034956       0.01541073       0.20149110      -0.00577194       0.66674185       1.14551625       1.21206277
I        9.82960842      11.66564976      23.34088867       0.11661767      -0.08609365      -0.00820497       0.80650360       1.20123567       0.05175798
I        3.61193340       4.51743138      17.94095094      -0.19470401      -0.02803861      -0.10186787      -0.48180431       0.65915054       0.06094772
I        3.58501681      23.84463215      17.44599721      -0.34555734      -0.09239792       0.02532401       1.50750360       2.22728379       0.61631303
I        9.80532433      10.68338231      17.96459991       0.18126852       0.11838075       0.04010104       0.50574682      -0.08109432       0.62228574
H        2.39529533       1.20502083      13.54429642      -0.09602636       0.63026709       0.22620621       0.01981308      -0.10779090       0.12320720
H        9.75061001       1.23496069      15.59607283       0.29415988      -0.11162725       0.30162034       0.16758944      -0.05163268       0.16991522
H       10.73645519       8.76522667      15.54292432       0.39368715      -0.05892455       0.26770444       0.09082617      -0.02186333       0.18611726
H        3.30477302      25.06234108      21.79899500       0.03075026      -0.02106310       0.61815597      -0.06175755      -0.16512826       0.02665303
H        4.50222762       7.67134151      19.28241735      -0.35818888       0.31211177       0.20738335      -0.17259633       0.09535147      -0.01260499
H       10.81100990       2.59587854      14.98770311       0.75113422       0.39745671       0.44564332       0.04004698       0.03116438      -0.08307800
H       10.63523328       2.96961726      20.85862761       0.60631419      -0.26908401       0.21671056      -0.10118339      -0.10818920      -0.02453343
H        2.43361280       0.91727791      19.72429440       0.00143612       0.24312307       0.18389510       0.03219180      -0.13833258       0.03456943
H        4.12762460       1.00142695      13.25140094      -0.32807009       0.95011454      -0.08135106       0.05196058      -0.15553355       0.01093880
H        9.05604143       2.74145518      15.07099326      -1.06134089       0.87470497       0.14733583      -0.13004764       0.18016612      -0.14329635
H        8.93079270       9.05217290      14.98928435       0.22634446       0.22554098       0.15059040      -0.05817875      -0.00538007       0.00241913
H        4.20288563       0.73263317      19.78888721      -0.26466175       0.54021530       0.37920476       0.01084834       0.15229844       0.05409744
H        4.74579736       2.39648909      15.14244676       0.33754595       1.19608852       0.02163134      -0.04575080      -0.08640315       0.10812544
H        9.85762234       8.44838353      19.40350165      -0.05806850       1.47989260      -1.02394253       0.07532172      -0.20793616       0.03943307
H        8.91238110       7.17853082      13.73845489       0.08761002       0.30914588      -0.10137476       0.08138230      -0.20713002      -0.09553932
H        2.61092287       8.15466575      15.52618620      -0.33573851       0.61353597       0.04063863      -0.37099324      -0.01147868      -0.02178121
H        3.49964953       1.35761525      15.62787456      -0.08352253      -0.60199552       0.27332880      -0.07448878      -0.07729535       0.10341187
H        8.90826900       7.07760483      19.68424823       0.11210309       0.30672765      -0.31169396      -0.04757747       0.02287175      -0.20150807
H        9.83810754       6.70432541      15.06136805      -0.11387266       0.18294379      -0.14709203      -0.07936517       0.10170328       0.19179603
H        3.48531516       8.70457328      14.12049613      -0.45174376       0.90016275      -0.34711312       0.12711411      -0.00062180      -0.15487832
H        2.97043348       2.99138650      15.31773699       1.36880275      -0.46150735      -0.15517090      -0.14877820       0.02328740       0.15354707
H       10.54184907       0.76020302      13.43963404       0.09409076       0.45239164      -0.18326688      -0.05686884      -0.00173596       0.17737800
H       10.58274961       6.99342627      13.60249311       0.43460566       0.26369602      -0.34756079       0.21222725       0.13612240       0.10850223
H        4.30158532       8.17413123      15.43374112       0.48798802       0.12349884       0.49486713      -0.15022682       0.08570520      -0.03114567
C        3.49755534       8.08527534      19.63324908      -0.11386216       0.44867656      -0.78708787       0.27058245      -0.42142942       0.17800572
C        9.86918574       2.08569893      14.91895962       0.05625664      -1.06201530      -0.90742385      -0.64832531      -0.05853057       0.12467194
C        9.68588719       2.72515151      20.38420161      -0.34556301       0.61757915      -0.25985604       0.31032868       0.18019270       0.12342181
C        3.30768680       1.03922896      20.38593091      -0.00631147      -0.58616820      -1.12766661       0.46276705      -0.07942795       0.69135801
Pb       6.80311956       5.01857289      17.36807810      -0.00208160       0.03496882       0.09591972      -1.41283268       0.24939049       1.04652175
Pb       6.56021000      11.21134651      17.39721610       0.19257203       0.08095324      -0.19434264       2.66985941      -0.86603247      -0.35939917
Pb       0.40534600      11.32503144      23.85521756      -0.31608399      -0.19490765       0.03443027       1.50474510      -0.96382954      -0.13908411
Pb       0.19967691      11.25071252      17.76541025       0.03409839      -0.19902111      -0.10235832       0.27496687      -0.79064261       0.76208808
N        3.67639518       2.17949895      15.01492191      -1.87810842      -0.22734894      -0.12529429      -0.19745993       0.32628213       0.03721092
N        9.79179795       7.59820426      19.92113193      -0.42468307      -2.80467831       1.04871919       0.11365170       0.17466505      -0.55776443
N        9.82749279       7.34344892      14.22560518      -0.20542819      -0.77639602       0.47558403      -0.26441488       0.54168466      -0.18147727
N        3.43223219       8.05852181      14.89824974       0.49275340      -1.08596062      -0.28117001       0.87391730      -0.29028584      -0.17943822
I        6.75923673       5.75510482      20.50025290       0.10229871       0.12960761      -0.10818097      -0.85440184       1.83042576      -1.36471734
I        6.48386193       4.14863245      14.33903169       0.03344563      -0.06017613      -0.01471930       2.07067007       1.10058487      -0.20326720
I        6.37373018       2.05462849      22.64498858      -0.01496123      -0.09144367       0.00800062      -0.28055214       1.74837884      -0.26327487
I        6.84390414       7.85103894      12.24428884       0.03416107       0.13056831      -0.09429318      -0.11082230       1.23296620       2.45754394
I        0.71344438       3.81759923      14.39417131      -0.06297715       0.20480675      -0.08240277      -1.75060750      -0.29995024      -0.08342645
I       12.78516521       5.59710102      20.47292040      -0.00415037       0.08663011       0.10509610       0.66756493      -1.47279387      -1.35378846
I       12.68737791       7.78035210      12.12309962       0.05252407      -0.01629291       0.06439727       2.48135027      -1.99681061       1.26153917
I        0.60739567       1.99079490      22.83861080      -0.05858175      -0.01433547      -0.07712817      -1.40359808       1.20935569      -1.25614236
I        9.94540349       5.33863917      17.15683157       0.07645320      -0.04518625       0.00715842       1.36455783      -1.17081447       0.05786173
I        3.50220363      10.14870835      11.81683275      -0.13002043       0.15848540       0.02911765      -0.04073709       0.85277063      -0.67246907
I        3.54494368       5.28350711      23.03283283      -0.12865740       0.14154602      -0.01542233       1.99607433       0.02908107       2.30408912
I        9.89631986       4.25444983      11.53249886       0.04620680       0.25674346      -0.03357509       0.89784607      -1.85548394       0.63500482
H        3.22301019       9.07078905      19.09628660       0.25887619      -0.52540012       0.07049628       0.04176796       0.11304597      -0.10793459
H        9.61147828       6.78819828      21.93557863      -0.11371277      -0.60217100      -0.08811762       0.16318259       0.08086675      -0.09012589
H        8.89869349       2.98670107      21.12952178      -0.12405600      -0.27033884      -0.28308691       0.19943837      -0.02115020       0.18545940
H        4.18642432       6.52578781      13.59754485       0.21947310       0.03084082       0.05791994      -0.00159527      -0.09143483       0.13502212
H        3.28927714       2.69352037      12.96547148       0.23523732      -0.37473794       0.02534243      -0.08043565      -0.06343009       0.00818617
H       10.77643473       8.13087941      21.75862489       0.42941413       0.31130744       0.09640583       0.02861292       0.02829986       0.18859309
H       10.37164369       9.46216374      13.81340381      -0.03929604      -0.65382621       0.46938970       0.20164726      -0.11239740       0.08328724
H        3.42067395       5.96380269      15.15247910      -0.26694391       0.00688040      -0.59827857       0.10170980      -0.07721754       0.00909987
H        2.68069801       7.36511654      19.44372935       0.05512172      -0.14681689       0.14803812      -0.04109583      -0.02882940      -0.07036720
H        9.01679603       8.53249174      21.73634826       0.31993018      -0.52925762      -0.47869448      -0.13681298      -0.08048677      -0.02939766
H        9.60455402       3.37568051      19.47510836      -0.16136786      -0.64837604       0.44522895      -0.01532945      -0.10682710       0.09479938
H        2.40712259       6.69945843      13.71487549       0.14260896      -0.52854649       0.41434718      -0.01588718      -0.04663917      -0.00422976
H        3.56659199       7.58202024      21.69235094       0.33207979       0.41206112      -0.19628367       0.04737695      -0.24863520       0.05311651
H        9.88756956       2.23427868      12.77023553      -0.00492674       0.23234308      -0.14583347      -0.00933931      -0.09707404       0.03395239
H        9.73292020       0.58994211      20.79066879      -0.02825286       0.63311418      -0.22409526      -0.16842869      -0.00270292      -0.06119943
H        4.32158927       2.53407237      21.33624876       0.66388310       0.45454449       0.53662912      -0.08142193       0.13224590       0.03318353
H        2.60277888       8.93386946      21.31918586       0.42145594      -0.29156022      -0.13606603      -0.03156457       0.05279753      -0.03714660
H        8.90703937       0.95627345      13.43367282       0.02072473       0.41220641      -0.07925561       0.29485063       0.19439598      -0.13677032
H       10.39954834       1.12045026      19.30891963       0.10253839      -0.12683461       0.00797130      -0.07166766       0.03914375       0.02939087
H        2.62642255       2.65343848      21.60848657       0.78514830      -0.30190364      -0.70800706      -0.16367694       0.07670751       0.20545092
H        4.29772156       9.11634442      21.23538594      -0.13178053      -0.41577859       0.24293943       0.02565309       0.03105603      -0.09358242
H       10.56339352       6.92718872      19.62977567      -0.20075821       0.48161868       0.22223346      -0.05522887      -0.09968709      -0.16675718
H        8.72342081       1.06135473      19.48493554       0.22420302       0.24695357       0.19342958       0.02949632      -0.09330993       0.17426648
H        3.32282530       3.09272813      20.08231976       0.11304873       0.36615068      -0.16317503      -0.07958625       0.10018056      -0.06238885
C        3.34888474       1.78330420      13.58468126       0.55030510      -1.33715656      -0.35594794      -0.48680848       0.03239949      -0.02397354
C        9.78520170       7.74558453      21.41522174      -0.06173805       1.50323523       0.66826716      -0.24384253      -0.09482640       0.20957976
C       10.00140502       8.75401565      14.68072788      -0.86496312       0.56730156      -0.99305972       0.22011376       0.14862854      -0.67181836
C        3.35992724       6.67872110      14.30395369      -0.23511115       0.16618482       0.11001043      -0.02510631       0.21021500      -0.13127158
Pb       6.49343845      11.36520621      23.37588217       0.39304783      -0.15984674       0.62829520      -2.22386382       0.31778258      -0.27498986
Pb       6.55140617       5.19635084      23.65206490       0.53714604       0.04726473       0.02321694       1.80842606       1.36510190       1.36593067
Pb       0.50087472       4.87914088      17.42581221      -0.12650891       0.02944162      -0.09650990       0.71627715      -1.44797273      -1.42527335
Pb       0.47913180       5.07378647      23.59134816      -0.49986702       0.07927063       0.21896382       2.57598144      -0.78661459      -1.22985498
N        3.51264165       8.43079295      21.07344172      -0.41493340       0.03963736       0.49899537       0.62147114      -0.87454998       0.24434051
N        9.79503629       1.51653530      13.52847256      -0.17402521      -1.44835656       0.58226300       0.13873528      -0.12268766      -0.07045528