768
Lattice="38.36233378009021 -0.17091669423460434 -0.23415642229604455 0.13860846621712591 21.550492846406996 -0.023849043928523623 -0.012701609790407587 0.03213069133637567 18.81004073834508" Properties=species:S:1:pos:R:3:forces:R:3:momenta:R:3 energy=-3355.350746478427 stress="0.0004798212954120396 7.305913351193556e-05 -0.00016747962547007255 7.305913351193556e-05 0.0019895475305174554 6.91962334132554e-05 -0.00016747962547007255 6.91962334132554e-05 0.0017864174969022162" free_energy=-3355.350746478427 pbc="T T T"
I       18.21524664       5.00997591       3.41683857       0.00000853       0.00000511       0.00002638       1.84647447      -1.17946691      -1.60904504
I       18.02204891       8.47878943       1.01421400       0.00001322      -0.00001720      -0.00000799      -2.29422932      -0.32857316       0.62529837
I        8.38991911      10.41926515       3.42640568       0.00002113       0.00002657      -0.00002325      -1.04442303      -0.76521701      -0.17619045
I        8.66626246       3.15504380       1.12174884       0.00000174      -0.00001716      -0.00002429       0.60247157      -0.43369227       0.24079118
I       16.12378090       1.82819555       1.05415831       0.00002473      -0.00000811       0.00002225       0.39073228       1.04429441       2.41414074
I        0.93241514      11.74604578       3.49382058       0.00001971       0.00000198       0.00004057      -0.45625966       0.44784443      -2.08321030
I       10.43787193       7.23339681       1.08453401       0.00001821      -0.00001172       0.00002278      -1.07972925      -1.95378701      -0.56655532
I        6.61834092       6.34092914       3.46348802      -0.00000924       0.00002934       0.00004029       1.92899704       1.48583621       0.65388034
I        2.93392321       4.44415024       1.14617984      -0.00003087      -0.00000573      -0.00001844      -1.08041137      -1.50752791      -0.84317646
I       14.12232227       9.13009362       3.40183219      -0.00006430      -0.00000015       0.00002418      -0.80619207       0.96143383       2.85182083
I        4.41907820       9.82176939       1.12561370      -0.00001519       0.00001669      -0.00001369      -0.32099861       1.98203899      -1.07549511
I       12.63714034       3.75255744       3.42264195       0.00001920       0.00000002       0.00002135       0.15381395       0.81242481       3.05431455
H        5.45526492       3.28910395       2.52364234       0.00003345       0.00001430       0.00000089      -0.06226892      -0.14637498      -0.20527099
H       11.60068530      10.28502465       2.02428990       0.00000883       0.00002165      -0.00000507      -0.01419567       0.01928691      -0.02948036
H        1.98983023       8.67968708       4.42394068       0.00000535       0.00001250      -0.00000097      -0.02206321      -0.07255337       0.14206502
H       15.06640636       4.89429421       0.12444181      -0.00002359       0.00000863      -0.00003136       0.05382662      -0.03281532      -0.05674215
H        6.29477027       2.58109455       3.94063877      -0.00001038       0.00000106       0.00005540       0.06496173      -0.11195012      -0.05783860
H       11.01845030      11.99011258       2.06574097       0.00002525       0.00000729      -0.00002164       0.01997829       0.00882205       0.08349535
H        1.18381790       7.97158478       2.98791687       0.00001365      -0.00001039      -0.00002253       0.16198090      -0.15366145       0.18249412
H       15.65437226       6.59784838       0.09435972      -0.00000217       0.00001371       0.00000118      -0.13161549       0.14548260      -0.03620544
H        6.03790571       1.58414324       2.48258296       0.00002874      -0.00000946      -0.00004419      -0.05734514      -0.05911620       0.06409816
H       10.76130607      10.99353500       0.60747347      -0.00002061       0.00000383      -0.00002262      -0.08267164       0.01683887       0.00348206
H        1.40177294       6.97615879       4.45365860       0.00001469       0.00000714       0.00000658      -0.25465432      -0.14003848      -0.01952530
H       15.87235034       5.60275100       1.56032262      -0.00000719       0.00003993       0.00000617       0.09944221       0.09147132      -0.06891172
H        4.40861142       1.04837622       4.21689343      -0.00001343       0.00001666       0.00002453      -0.05133710      -0.08524621      -0.04229513
H       12.64780574      12.52583608       0.33142874      -0.00003978      -0.00000949       0.00000753       0.13102307       0.04369507      -0.10998056
H        3.60816653       8.03282449       2.72895716      -0.00002362      -0.00001970      -0.00001209      -0.01698846       0.12748058      -0.19003572
H       13.23270126       6.47817542       0.45564567       0.00000146       0.00003137      -0.00000809      -0.05246112       0.17074562       0.26457533
H        3.62818082       1.70497559       2.90181671      -0.00002978       0.00001335      -0.00004841      -0.03996843      -0.11067564      -0.02250748
H       13.18317582      10.92421251       0.29491569      -0.00000034      -0.00002410      -0.00001853       0.07742843       0.15348923       0.07633603
H        3.07009618       6.43171356       2.76352488       0.00001197      -0.00001696       0.00002810      -0.07789346      -0.04629838       0.05682589
H       13.98599545       7.14257177       1.78434423      -0.00003098       0.00001360      -0.00001166      -0.16164026      -0.06018551       0.13059234
H        3.87288931       2.64989109       4.25312464       0.00000324       0.00003057       0.00003095       0.01003354      -0.13593719       0.05727461
H       13.42813959      11.86880336       1.64637514      -0.00000431       0.00005348       0.00004493       0.06813209      -0.20504700       0.14719576
H        3.82342542       7.09574145       4.09236266       0.00004779       0.00001396       0.00005055       0.10038431      -0.05304180       0.01361818
H       13.44801859       5.54144122       1.81926725       0.00002645      -0.00003384       0.00001547      -0.04619269      -0.14594705      -0.31513975
C        5.61741487       2.37747149       3.10517295      -0.00002499      -0.00000740      -0.00003259       0.09245924      -0.15481824       0.52195815
C       11.43873587      11.19682243       1.44296106       0.00002560      -0.00000180       0.00001006      -0.19434066       0.82072200      -0.53731682
C        1.83984493       7.76728236       3.84022377      -0.00000655      -0.00001992       0.00000004      -0.57829243      -0.11895953       0.07673842
C       15.21632939       5.80683692       0.70795857       0.00002458       0.00002382       0.00004249      -0.20607961       0.53059931       0.31166843
Pb      38.34646030       3.02553394       0.93955885      -0.00000927      -0.00000350      -0.00003151       1.81888057       0.02992811      -2.48942177
Pb      17.07206356      10.37786627       3.37438623       0.00002815      -0.00000727      -0.00001609      -3.72171096       1.09631395      -0.61431038
Pb       7.39551537       8.53025516       1.08962602      -0.00000498      -0.00004468       0.00003450       1.00413166       1.14265412       3.77750941
Pb       9.66072129       5.04409103       3.45845993       0.00000507       0.00001029       0.00000155      -2.08719770      -0.13522083      -0.80321036
N        4.30822446       1.91743571       3.64694161       0.00001683      -0.00004613       0.00003219      -0.40056491      -0.27443363      -0.58271500
N       12.74801465      11.65666101       0.90123472       0.00004362      -0.00001386      -0.00001047       0.18390236       0.73837501      -0.81967131
N        3.16102377       7.30382646       3.33077312       0.00002878       0.00002618      -0.00000458       0.40087288       0.16105770      -0.42610948
N       13.89511861       6.27033273       1.21728809      -0.00001976      -0.00002770      -0.00001031       0.08259594      -0.11514081       0.49905496
I       18.26835821       4.99993387       8.08142281       0.00002142      -0.00001891       0.00000281      -0.33699997      -1.37396711       1.10772321
I       17.96273460       8.50495188       5.75454489      -0.00002664      -0.00000139       0.00001572       0.51664457      -1.79945975       0.23548980
I        8.43191633      10.45012257       8.16521908      -0.00002433       0.00000220       0.00000963      -1.10050000       1.43410566      -1.28612919
I        8.61795311       3.14028580       5.78786819       0.00000790      -0.00000326      -0.00001586       1.72926259       0.07002081       1.14536211
I       16.17730653       1.83165209       5.72903355      -0.00002164      -0.00002718       0.00000737      -1.77816378       0.47212381       0.99130724
I        0.87257029      11.75869514       8.22411352       0.00000946      -0.00000645       0.00000945       1.24890710      -1.06673571      -0.01075232
I       10.49345574       7.24520364       5.81513360      -0.00000489       0.00002583       0.00002754       0.38412517      -0.99103805      -1.46743029
I        6.55641845       6.34514983       8.13800495       0.00001855      -0.00000146       0.00000866       1.11576478      -1.05645035      -0.13739259
I        3.04206291       4.44537223       5.83799324       0.00002096       0.00000663       0.00003523       1.86277014      -1.46825328      -0.80432381
I       14.00783061       9.14488715       8.11507526      -0.00001300       0.00002061       0.00000911      -1.34094719      -0.29921383      -0.33904725
I        4.52850314       9.83407343       5.82942140      -0.00001775       0.00000647      -0.00001526      -0.37406911       0.09856084       0.78432950
I       12.52134648       3.75619261       8.12386701      -0.00000854      -0.00002863      -0.00001930      -0.02178516      -0.57714446       0.96028918
H        6.03158408       1.58222582       9.15242167      -0.00004791       0.00000276       0.00000707       0.13557211      -0.14384984       0.05338294
H       10.79865092      11.01664811       6.26885419       0.00000785       0.00003651      -0.00002631      -0.01559897      -0.16280497      -0.15148654
H        1.99508495       8.69669703       7.22566478      -0.00001272      -0.00001822      -0.00001307      -0.03197314       0.10041565       0.05236013
H       15.05469068       4.89382062       6.72781473      -0.00000112      -0.00003062       0.00003348       0.00683830      -0.14723935       0.05122643
H        6.25128439       2.57341315       7.68421605       0.00002242       0.00000012      -0.00001656       0.00828553      -0.11608555      -0.04893046
H       11.01822553      12.00827483       4.80092160       0.00003639       0.00001403      -0.00001532      -0.10350913      -0.06500800       0.12267963
H        1.39213651       6.99883815       7.18718797      -0.00001202       0.00001795      -0.00000402      -0.00256550       0.04749909      -0.01664955
H       15.90666066       5.58770442       5.31127979      -0.00001203      -0.00000408      -0.00002099       0.08357820       0.17980979      -0.00012041
H        5.45086730       3.28794908       9.12032356       0.00000032       0.00000199       0.00000999       0.16771997      -0.14112323       0.04572405
H       11.59907246      10.30258724       4.83251520       0.00001603      -0.00005452       0.00000629       0.02274028      -0.19022897      -0.02770905
H        1.14322575       8.00252004       8.64212449      -0.00002581      -0.00000063      -0.00000448       0.07849223       0.05838055       0.14748466
H       15.65780462       6.59162580       6.76605732       0.00000621      -0.00001552      -0.00001056      -0.18476522      -0.02605627       0.08896845
H        3.82706851       2.64632701       7.43079524      -0.00000486       0.00004588      -0.00001271      -0.10533078      -0.01760944      -0.06060875
H       12.69228008      12.54756908       6.48884565      -0.00002444       0.00000837      -0.00000696      -0.16260969      -0.01405847      -0.11598668
H        3.56436062       8.04323927       8.96108526       0.00002335       0.00000560      -0.00001225       0.11366665       0.09003347      -0.00610421
H       14.04119049       7.14237542       5.02530387       0.00000541       0.00003369      -0.00000986      -0.09539742       0.00680497       0.01712538
H        3.60988354       1.70919452       8.79498879       0.00002131      -0.00000037      -0.00000957      -0.09547756       0.16104497       0.02659248
H       13.43997612      11.88131003       5.15824057       0.00000152       0.00002394      -0.00002088      -0.05820842       0.08961351       0.09258902
H        3.80256615       7.09042268       7.61373667      -0.00001532      -0.00003048       0.00000216      -0.08774175       0.20525597      -0.02717750
H       13.24742214       6.50031219       6.33947510      -0.00003304      -0.00000621      -0.00002953       0.00749677      -0.20415012      -0.01594584
H        4.35755813       1.04263392       7.46450988       0.00002331       0.00001506      -0.00002430       0.14215080      -0.18475924       0.09263970
H       13.22283777      10.94389069       6.52225507      -0.00001014       0.00001362       0.00001474       0.12103148       0.08802805      -0.07756362
H        3.00885328       6.44795632       8.92776916       0.00000223      -0.00000744       0.00001466      -0.02269980       0.11028256      -0.03145926
H       13.48547968       5.54716145       4.99231583       0.00000555      -0.00001040      -0.00002624       0.08813244       0.14547159      -0.00172252
C        5.59574427       2.37377553       8.53802034      -0.00001845      -0.00000363       0.00002475       0.51315525       0.33855438       0.48101473
C       11.45414601      11.21658332       5.41508258      -0.00000998      -0.00002310       0.00002986      -0.86344882      -0.32441458      -0.28336708
C        1.82034724       7.78856570       7.80904656       0.00002816       0.00000042      -0.00003059       0.01103511       0.73649063      -0.28099192
C       15.22953410       5.80184744       6.14430483       0.00001143      -0.00000669      -0.00004956       0.04240060       0.14351585      -0.54134998
Pb       0.05397786       3.18066963       5.85979652      -0.00002442       0.00001150      -0.00000828       0.10010156      -1.25717809      -1.26281473
Pb      16.99594481      10.40960614       8.09331244      -0.00003208       0.00002573      -0.00001062      -3.03891918       0.53317535       2.09101510
Pb       7.46506587       8.56041442       5.80822512      -0.00000538      -0.00004270      -0.00000050      -0.29648763       1.47428253      -2.58210321
Pb       9.58480320       5.02992627       8.14492751       0.00001060      -0.00001587      -0.00004628      -0.86091753      -1.36482019       3.06558163
N        4.27168173       1.91499519       8.03200536      -0.00001549      -0.00001056       0.00001269       0.39695406       1.01957778       0.14857001
N       12.77819168      11.67531877       5.92118392      -0.00000552      -0.00002003       0.00001746       0.21650237       0.30943476      -0.51706578
N        3.12221099       7.31396963       8.35572706       0.00000655      -0.00003865      -0.00000647       0.23268546       0.14941703       0.41890428
N       13.92772949       6.27649269       5.59752264      -0.00000801       0.00002133       0.00001710      -0.48173830      -0.05821799      -0.13119205
I       18.20889584       5.02604126      12.82185894       0.00000853       0.00000511       0.00002637       1.84647447      -1.17946691      -1.60904504
I       18.01569811       8.49485478      10.41923437       0.00001322      -0.00001721      -0.00000799      -2.29422932      -0.32857316       0.62529837
I        8.38356831      10.43533050      12.83142605       0.00002113       0.00002657      -0.00002325      -1.04442303      -0.76521701      -0.17619045
I        8.65991166       3.17110915      10.52676921       0.00000173      -0.00001717      -0.00002429       0.60247157      -0.43369227       0.24079118
I       16.11743010       1.84426090      10.45917868       0.00002472      -0.00000812       0.00002225       0.39073228       1.04429441       2.41414074
I        0.92606434      11.76211113      12.89884095       0.00001971       0.00000197       0.00004056      -0.45625966       0.44784443      -2.08321030
I       10.43152113       7.24946216      10.48955438       0.00001821      -0.00001173       0.00002277      -1.07972925      -1.95378701      -0.56655532
I        6.61199012       6.35699449      12.86850839      -0.00000924       0.00002934       0.00004029       1.92899704       1.48583621       0.65388034
I        2.92757241       4.46021559      10.55120021      -0.00003087      -0.00000573      -0.00001843      -1.08041137      -1.50752791      -0.84317646
I       14.11597147       9.14615897      12.80685256      -0.00006430      -0.00000015       0.00002418      -0.80619207       0.96143383       2.85182083
I        4.41272740       9.83783474      10.53063407      -0.00001520       0.00001668      -0.00001369      -0.32099861       1.98203899      -1.07549511
I       12.63078954       3.76862279      12.82766232       0.00001920       0.00000001       0.00002135       0.15381395       0.81242481       3.05431455
H        5.44891412       3.30516930      11.92866271       0.00003345       0.00001430       0.00000089      -0.06226892      -0.14637498      -0.20527099
H       11.59433450      10.30109000      11.42931027       0.00000883       0.00002165      -0.00000507      -0.01419567       0.01928691      -0.02948036
H        1.98347943       8.69575243      13.82896105       0.00000535       0.00001250      -0.00000097      -0.02206321      -0.07255337       0.14206502
H       15.06005556       4.91035956       9.52946218      -0.00002359       0.00000863      -0.00003136       0.05382662      -0.03281532      -0.05674215
H        6.28841947       2.59715990      13.34565914      -0.00001038       0.00000106       0.00005540       0.06496173      -0.11195012      -0.05783860
H       11.01209950      12.00617793      11.47076134       0.00002525       0.00000729      -0.00002164       0.01997829       0.00882205       0.08349535
H        1.17746710       7.98765013      12.39293724       0.00001365      -0.00001039      -0.00002253       0.16198090      -0.15366145       0.18249412
H       15.64802146       6.61391373       9.49938009      -0.00000217       0.00001371       0.00000118      -0.13161549       0.14548260      -0.03620544
H        6.03155491       1.60020859      11.88760333       0.00002874      -0.00000946      -0.00004419      -0.05734514      -0.05911620       0.06409816
H       10.75495527      11.00960035      10.01249384      -0.00002061       0.00000383      -0.00002262      -0.08267164       0.01683887       0.00348206
H        1.39542214       6.99222414      13.85867897       0.00001469       0.00000714       0.00000658      -0.25465432      -0.14003848      -0.01952530
H       15.86599954       5.61881635      10.96534299      -0.00000719       0.00003993       0.00000617       0.09944221       0.09147132      -0.06891172
H        4.40226062       1.06444157      13.62191380      -0.00001343       0.00001666       0.00002453      -0.05133710      -0.08524621      -0.04229513
H       12.64145494      12.54190143       9.73644911      -0.00003978      -0.00000949       0.00000752       0.13102307       0.04369507      -0.10998056
H        3.60181573       8.04888984      12.13397753      -0.00002362      -0.00001970      -0.00001209      -0.01698846       0.12748058      -0.19003572
H       13.22635046       6.49424077       9.86066604       0.00000146       0.00003138      -0.00000809      -0.05246112       0.17074562       0.26457533
H        3.62183002       1.72104094      12.30683708      -0.00002978       0.00001335      -0.00004841      -0.03996843      -0.11067564      -0.02250748
H       13.17682502      10.94027786       9.69993606      -0.00000035      -0.00002410      -0.00001853       0.07742843       0.15348923       0.07633603
H        3.06374538       6.44777891      12.16854525       0.00001197      -0.00001696       0.00002810      -0.07789346      -0.04629838       0.05682589
H       13.97964465       7.15863712      11.18936460      -0.00003098       0.00001360      -0.00001166      -0.16164026      -0.06018551       0.13059234
H        3.86653851       2.66595644      13.65814501       0.00000324       0.00003057       0.00003095       0.01003354      -0.13593719       0.05727461
H       13.42178879      11.88486871      11.05139551      -0.00000431       0.00005348       0.00004493       0.06813209      -0.20504700       0.14719576
H        3.81707462       7.11180680      13.49738303       0.00004779       0.00001396       0.00005055       0.10038431      -0.05304180       0.01361818
H       13.44166779       5.55750657      11.22428762       0.00002645      -0.00003384       0.00001547      -0.04619269      -0.14594705      -0.31513975
C        5.61106407       2.39353684      12.51019332      -0.00002499      -0.00000739      -0.00003259       0.09245924      -0.15481824       0.52195815
C       11.43238507      11.21288778      10.84798143       0.00002560      -0.00000180       0.00001006      -0.19434066       0.82072200      -0.53731682
C        1.83349413       7.78334771      13.24524414      -0.00000655      -0.00001992       0.00000004      -0.57829243      -0.11895953       0.07673842
C       15.20997859       5.82290227      10.11297894       0.00002457       0.00002382       0.00004249      -0.20607961       0.53059931       0.31166843
Pb      38.34010950       3.04159928      10.34457922      -0.00000928      -0.00000348      -0.00003151       1.81888057       0.02992811      -2.48942177
Pb      17.06571276      10.39393162      12.77940660       0.00002815      -0.00000727      -0.00001608      -3.72171096       1.09631395      -0.61431038
Pb       7.38916457       8.54632051      10.49464639      -0.00000498      -0.00004469       0.00003450       1.00413166       1.14265412       3.77750941
Pb       9.65437049       5.06015638      12.86348030       0.00000508       0.00001029       0.00000155      -2.08719770      -0.13522083      -0.80321036
N        4.30187366       1.93350106      13.05196198       0.00001682      -0.00004613       0.00003219      -0.40056491      -0.27443363      -0.58271500
N       12.74166385      11.67272636      10.30625509       0.00004363      -0.00001387      -0.00001047       0.18390236       0.73837501      -0.81967131
N        3.15467297       7.31989181      12.73579349       0.00002878       0.00002618      -0.00000458       0.40087288       0.16105770      -0.42610948
N       13.88876781       6.28639808      10.62230846      -0.00001976      -0.00002771      -0.00001030       0.08259594      -0.11514081       0.49905496
I       18.26200741       5.01599922      17.48644318       0.00002141      -0.00001892       0.00000281      -0.33699997      -1.37396711       1.10772321
I       17.95638380       8.52101723      15.15956526      -0.00002664      -0.00000140       0.00001571       0.51664457      -1.79945975       0.23548980
I        8.42556553      10.46618792      17.57023945      -0.00002433       0.00000218       0.00000964      -1.10050000       1.43410566      -1.28612919
I        8.61160231       3.15635115      15.19288856       0.00000790      -0.00000326      -0.00001587       1.72926259       0.07002081       1.14536211
I       16.17095573       1.84771744      15.13405392      -0.00002164      -0.00002718       0.00000737      -1.77816378       0.47212381       0.99130724
I        0.86621949      11.77476049      17.62913389       0.00000946      -0.00000645       0.00000946       1.24890710      -1.06673571      -0.01075232
I       10.48710494       7.26126899      15.22015397      -0.00000489       0.00002582       0.00002754       0.38412517      -0.99103805      -1.46743029
I        6.55006765       6.36121518      17.54302532       0.00001855      -0.00000147       0.00000866       1.11576478      -1.05645035      -0.13739259
I        3.03571211       4.46143758      15.24301361       0.00002096       0.00000663       0.00003523       1.86277014      -1.46825328      -0.80432381
I       14.00147981       9.16095250      17.52009563      -0.00001300       0.00002060       0.00000911      -1.34094719      -0.29921383      -0.33904725
I        4.52215234       9.85013878      15.23444177      -0.00001775       0.00000647      -0.00001526      -0.37406911       0.09856084       0.78432950
I       12.51499568       3.77225796      17.52888738      -0.00000854      -0.00002863      -0.00001931      -0.02178516      -0.57714446       0.96028918
H        6.02523328       1.59829117      18.55744204      -0.00004791       0.00000276       0.00000706       0.13557211      -0.14384984       0.05338294
H       10.79230012      11.03271346      15.67387456       0.00000785       0.00003651      -0.00002631      -0.01559897      -0.16280497      -0.15148654
H        1.98873415       8.71276238      16.63068515      -0.00001272      -0.00001822      -0.00001306      -0.03197314       0.10041565       0.05236013
H       15.04833988       4.90988597      16.13283510      -0.00000112      -0.00003062       0.00003348       0.00683830      -0.14723935       0.05122643
H        6.24493359       2.58947850      17.08923642       0.00002242       0.00000012      -0.00001656       0.00828553      -0.11608555      -0.04893046
H       11.01187473      12.02434018      14.20594197       0.00003639       0.00001403      -0.00001532      -0.10350913      -0.06500800       0.12267963
H        1.38578571       7.01490350      16.59220834      -0.00001202       0.00001795      -0.00000402      -0.00256550       0.04749909      -0.01664955
H       15.90030986       5.60376977      14.71630016      -0.00001203      -0.00000408      -0.00002099       0.08357820       0.17980979      -0.00012041
H        5.44451650       3.30401443      18.52534393       0.00000032       0.00000199       0.00000999       0.16771997      -0.14112323       0.04572405
H       11.59272166      10.31865259      14.23753557       0.00001603      -0.00005452       0.00000629       0.02274028      -0.19022897      -0.02770905
H        1.13687495       8.01858539      18.04714486      -0.00002581      -0.00000063      -0.00000448       0.07849223       0.05838055       0.14748466
H       15.65145382       6.60769115      16.17107769       0.00000621      -0.00001552      -0.00001056      -0.18476522      -0.02605627       0.08896845
H        3.82071771       2.66239236      16.83581561      -0.00000486       0.00004588      -0.00001271      -0.10533078      -0.01760944      -0.06060875
H       12.68592928      12.56363443      15.89386602      -0.00002444       0.00000837      -0.00000696      -0.16260969      -0.01405847      -0.11598668
H        3.55800982       8.05930462      18.36610563       0.00002335       0.00000560      -0.00001224       0.11366665       0.09003347      -0.00610421
H       14.03483969       7.15844077      14.43032424       0.00000541       0.00003369      -0.00000986      -0.09539742       0.00680497       0.01712538
H        3.60353274       1.72525987      18.20000916       0.00002131      -0.00000036      -0.00000957      -0.09547756       0.16104497       0.02659248
H       13.43362532      11.89737538      14.56326094       0.00000152       0.00002394      -0.00002088      -0.05820842       0.08961351       0.09258902
H        3.79621535       7.10648803      17.01875704      -0.00001533      -0.00003048       0.00000216      -0.08774175       0.20525597      -0.02717750
H       13.24107134       6.51637754      15.74449547      -0.00003304      -0.00000621      -0.00002953       0.00749677      -0.20415012      -0.01594584
H        4.35120733       1.05869927      16.86953025       0.00002331       0.00001506      -0.00002430       0.14215080      -0.18475924       0.09263970
H       13.21648697      10.95995604      15.92727544      -0.00001014       0.00001362       0.00001474       0.12103148       0.08802805      -0.07756362
H        3.00250248       6.46402167      18.33278953       0.00000223      -0.00000744       0.00001466      -0.02269980       0.11028256      -0.03145926
H       13.47912888       5.56322680      14.39733620       0.00000555      -0.00001040      -0.00002624       0.08813244       0.14547159      -0.00172252
C        5.58939347       2.38984088      17.94304071      -0.00001845      -0.00000363       0.00002475       0.51315525       0.33855438       0.48101473
C       11.44779521      11.23264867      14.82010295      -0.00000998      -0.00002310       0.00002986      -0.86344882      -0.32441458      -0.28336708
C        1.81399644       7.80463105      17.21406693       0.00002816       0.00000042      -0.00003059       0.01103511       0.73649063      -0.28099192
C       15.22318330       5.81791279      15.54932520       0.00001143      -0.00000669      -0.00004956       0.04240060       0.14351585      -0.54134998
Pb       0.04762706       3.19673498      15.26481689      -0.00002443       0.00001149      -0.00000828       0.10010156      -1.25717809      -1.26281473
Pb      16.98959401      10.42567149      17.49833281      -0.00003209       0.00002572      -0.00001061      -3.03891918       0.53317535       2.09101510
Pb       7.45871507       8.57647977      15.21324549      -0.00000538      -0.00004270      -0.00000050      -0.29648763       1.47428253      -2.58210321
Pb       9.57845240       5.04599162      17.54994788       0.00001059      -0.00001588      -0.00004627      -0.86091753      -1.36482019       3.06558163