768
Lattice="31.343885341238796 -0.47746557187201905 -1.6062135899949226 -0.40744855527168355 29.62807268781774 -0.02279442302894619 -1.4504438450383712 0.04122985736401602 17.113936445534993" Properties=species:S:1:pos:R:3:forces:R:3:momenta:R:3 energy=-3352.63088251121 stress="0.0010710287015381743 -0.00024958219360104067 0.00022006839477306663 -0.00024958219360104067 0.0010668371892189944 -0.00023253511307266055 0.00022006839477306663 -0.00023253511307266055 0.001523751126110417" free_energy=-3352.63088251121 pbc="T T T"
I        6.64080661       0.86863201       2.21870731       0.00002976      -0.00001710      -0.00001287       0.30310783      -1.28516557      -1.13783548
I        1.10927515       6.28381754       2.18087889      -0.00000225       0.00000354      -0.00001030      -2.31690311      -0.39443592       0.72919010
I        5.68736902       1.41284731       6.25080214      -0.00001223      -0.00002316       0.00000589      -0.52968334       0.00701458      -1.62940545
I        1.38498010       6.02815674       6.60209850      -0.00001132      -0.00000335      -0.00002463       1.64900541      -0.72579092       0.93318619
I        5.14464320       4.83001817       3.76433515       0.00000165      -0.00002551       0.00002306       0.76674443      -2.11662045       0.49828351
I        1.90051368       2.54912102       9.09281552       0.00000313      -0.00001276      -0.00002850      -2.04817722      -0.61744083      -0.92872506
H        2.28601749       3.68925154       4.40687538       0.00004144       0.00001179       0.00000077       0.03043062      -0.01842556       0.21021127
H        4.39190930       4.93047091      15.60999207       0.00002073      -0.00000834      -0.00001349       0.01197590      -0.16085863       0.12757292
H        0.89374120       2.55912931       4.32407335      -0.00002189      -0.00001776      -0.00002395      -0.04884904       0.06544394      -0.08370648
H        5.42067721       4.80547076      17.07677232       0.00001093       0.00000105      -0.00001017       0.09415651      -0.02564772      -0.33822578
H        1.96259352       2.56459621       5.76722478      -0.00001362       0.00000791       0.00000794       0.13019235       0.11767157       0.00153346
H        3.98529217       3.74101760      16.88815133       0.00001728       0.00002508      -0.00002095      -0.11141941      -0.04936204       0.10012675
H        2.81738226       1.80159510       2.99969293      -0.00002418       0.00001875      -0.00000715      -0.15503238       0.14282736      -0.10596784
H        3.92154883       6.70706860      17.21072439      -0.00002113      -0.00001492      -0.00000643      -0.05398434       0.04320759       0.06611930
H        2.44840076       0.71480611       4.24688777       0.00002095      -0.00003088       0.00002655       0.00600418       0.07896023      -0.17037325
H        3.51232117       5.57849874      18.39910176       0.00002794       0.00002084       0.00002007      -0.01855088      -0.02042960       0.01136345
H        3.75951754       1.72378702       4.40210491       0.00001186      -0.00001255       0.00001509      -0.04352834      -0.07998171       0.15463709
H        2.58710538       5.74196736      16.99188540      -0.00000575      -0.00000698      -0.00001774      -0.13912355      -0.07806216      -0.04616596
C        1.91884794       2.69694671       4.68166743      -0.00000723       0.00000263       0.00001465      -0.56792994      -0.24968485       0.12421253
C        4.40079890       4.73159821      16.68622964      -0.00001587      -0.00000259       0.00003406       0.59989635       0.74636829       0.33211150
Pb       3.62182082      14.82830687       8.43959089      -0.00000083       0.00002839      -0.00002646      -1.78090988       0.32223428       0.82606324
Pb      -0.32171922      14.86064778       8.65332005       0.00000387       0.00000339      -0.00000710       2.20149636      -1.26906854       3.25471752
N        2.79022499       1.67097984       4.03490588       0.00002866       0.00002028      -0.00001670      -0.13030463      -0.48870387      -0.14190046
N        3.55360455       5.75076152      17.37106752      -0.00002839      -0.00002160       0.00001887      -0.57618635       0.07630772      -0.45391654
I        5.27932877       8.41480497       6.59910877      -0.00000832       0.00003074      -0.00001114       1.16357612       0.50361922       2.13850312
I        1.49390798      13.79851520       6.18188981      -0.00000798      -0.00004332       0.00001918       0.28012634      -0.18716887      -0.56628950
I        5.12433633       8.95134446       2.15097941       0.00001262       0.00001105      -0.00001371       0.22282911       0.46016380       0.57485830
I        2.45398382      13.15028793       1.98557825       0.00000953       0.00001790       0.00001479      -2.05117356       2.13726201      -0.43740998
I        4.76900150      12.22598747      16.75974318      -0.00002647      -0.00001246      -0.00001323       1.34322045      -1.52264485       0.58229257
I        1.33484506      10.02318452       4.65590072       0.00001065       0.00002914       0.00001363      -0.21781756      -0.31833259       1.33324980
H        0.95926293       8.65175415       8.31193944      -0.00000215      -0.00002368       0.00001695      -0.03857004       0.14255409       0.20146679
H        5.65834947      11.18519160       4.86283720       0.00001619      -0.00003406       0.00001013       0.07548886       0.09869916      -0.07773582
H        1.07280860       9.61347946       9.82437029       0.00000223      -0.00001464       0.00000635      -0.11241887       0.13458775       0.17128296
H        6.06720427      12.90260968       5.18283012      -0.00000497       0.00001454       0.00001331      -0.08126241      -0.00986859       0.01556059
H        0.03678995      10.18395810       8.47336200      -0.00002650      -0.00001487       0.00001557      -0.14714364      -0.12243300      -0.05318409
H        4.65773680      12.49405332       4.14869263       0.00000460      -0.00001152      -0.00000518       0.09622129      -0.03022740      -0.03900229
H        2.14176522      11.38131390       8.56860071       0.00001255       0.00003733      -0.00002324       0.08497431      -0.17768896      -0.15070286
H        7.49168994      11.85293723       3.46906523       0.00001072      -0.00002657       0.00005542       0.06388181       0.09242208       0.17091253
H        2.04128806      10.48394335       7.13382933      -0.00000185       0.00000558      -0.00000946       0.12075919       0.12072531       0.05629497
H        6.64250424      13.19023915       2.87079277      -0.00002267       0.00000012      -0.00000941       0.00991512       0.16119003      -0.04418103
H        3.01431463       9.97121694       8.40887720      -0.00001387      -0.00000522      -0.00003369       0.09209029      -0.13294649       0.00041656
H        6.17033567      11.62862050       2.48314432      -0.00000048      -0.00002030      -0.00003361       0.06355950       0.03076224      -0.05181950
C        0.96127490       9.66044015       8.73687343      -0.00004598       0.00004612      -0.00001477       0.23760110      -0.08559546      -0.12909167
C        5.66831153      12.19817009       4.44828259      -0.00002639      -0.00003301      -0.00001195       0.05861395       0.10867295       0.61367784
Pb       3.23788168       7.37054871       4.32652138      -0.00000266      -0.00000673      -0.00000073      -1.41194866       0.82223767      -0.37111617
Pb       7.18198396       7.32857797       4.14906620      -0.00000518       0.00000194      -0.00001855      -0.83362891       2.25772223      -3.19771510
N        2.11413862      10.42186825       8.17087915       0.00002924      -0.00003954       0.00001732      -0.04788741      -0.23286708      -0.04315994
N        6.54828534      12.22077118       3.24480851       0.00003461       0.00003328       0.00001616      -0.05879602       0.34126777      -0.63514102
I       14.47682267       0.74920825       1.81705927       0.00000196      -0.00001302       0.00004284       0.19511490      -1.05589347      -0.27503306
I        8.94516630       6.16438797       1.77937202      -0.00000926       0.00001668      -0.00003019       1.62984210      -0.71172481      -0.81583926
I       13.52335733       1.29338864       5.84916844      -0.00003322      -0.00000790      -0.00000536       0.24138713       2.02374517       1.28244812
I        9.22098212       5.90873194       6.20053147      -0.00000740       0.00000219       0.00000690      -1.16085977       1.12220859      -2.18126102
I       12.98066670       4.71060932       3.36278744       0.00002188      -0.00000481      -0.00003031      -0.99130220       0.61574168       0.15841150
I        9.73653619       2.42976406       8.69130793       0.00005190      -0.00000952       0.00000399      -1.24340866       3.29676328       0.55355364
H        8.72988662       2.43984828       3.92251351      -0.00002852       0.00000048      -0.00003558       0.14703319       0.08274374      -0.00611105
H       12.22790302       4.81087517      15.20840406       0.00001588       0.00002743      -0.00001336      -0.04687275      -0.33918628       0.24819801
H        9.79853855       2.44474541       5.36581196      -0.00001192       0.00005142       0.00001870      -0.17185737      -0.10582409       0.28313748
H       13.25677178       4.68610878      16.67513460       0.00000173       0.00001776      -0.00001614       0.05149422       0.00445233       0.04614872
H       10.12238106       3.56968105       4.00579278      -0.00001979      -0.00004335       0.00000167      -0.15613830      -0.06061131      -0.13237899
H       11.82147821       3.62150537      16.48669750      -0.00000676       0.00001873      -0.00000438       0.03980814       0.00971410      -0.09874142
H       10.65343514       1.68215497       2.59819953      -0.00000637       0.00000989       0.00000748      -0.07394210      -0.13184540       0.09138224
H       10.42311043       5.62235259      16.59033166       0.00001269      -0.00000934      -0.00001543       0.04167630      -0.18608682      -0.03647508
H       10.28431074       0.59523922       3.84523058      -0.00000685      -0.00003615      -0.00000934      -0.17054918       0.22184081       0.06180338
H       11.75748514       6.58757998      16.80901640       0.00000078      -0.00002447       0.00000119       0.14275811       0.00694493       0.01550279
H       11.59553266       1.60405175       4.00063335      -0.00000888      -0.00000616      -0.00000596      -0.14876092      -0.18498628       0.10656866
H       11.34841341       5.45906935      17.99750884      -0.00000444       0.00001676       0.00001771      -0.01098079       0.01962910      -0.15028124
C        9.75497048       2.57737956       4.28028185       0.00002322       0.00001698       0.00000641      -0.41890237       0.22539169      -0.04728913
C       12.23687621       4.61210742      16.28466011      -0.00000031      -0.00001913       0.00004687       0.25236317       0.28424852      -0.68353634
Pb      11.45778784      14.70890125       8.03799901      -0.00002849       0.00000692       0.00000116       1.28674816      -0.26854105       2.68304765
Pb       7.51424569      14.74135411       8.25184130      -0.00002687       0.00000703       0.00000725       2.64300402      -0.99480978      -0.41963286
N       10.62624157       1.55140381       3.63339371       0.00003859       0.00006457      -0.00004491       0.66157479       0.30936079       0.04099686
N       11.38962911       5.63125400      16.96945940      -0.00000045       0.00000972      -0.00000918      -0.39463921       0.35759079      -0.42442506
I       13.11530557       8.29538102       6.19749287       0.00001462       0.00001844       0.00001229       0.38166307       0.63324539      -1.12817983
I        9.32977449      13.67902227       5.78043105       0.00000356       0.00002054       0.00000268       2.32600412       2.17056333       1.58115994
I       12.96027039       8.83187008       1.74930126      -0.00000795       0.00001740       0.00001018       2.99893503      -1.07832524       0.50822833
I       10.28997853      13.03095386       1.58406373      -0.00000109      -0.00001519      -0.00001449       0.22871281       0.46729163       0.99023796
I       12.60490596      12.10656790      16.35807251       0.00000884      -0.00002100       0.00001179      -0.97548646      -0.27816981      -2.24482919
I        9.17085186       9.90378219       4.25434373      -0.00002072       0.00002895      -0.00001634      -0.96119581       1.43925905       2.71901123
H        8.90849583       9.49415337       9.42284377       0.00001504       0.00000658       0.00000299      -0.15428984      -0.00592387       0.09989880
H       12.49379137      12.37477901       3.74702114      -0.00000571      -0.00002586      -0.00000145       0.11682190       0.06946468      -0.31564578
H        7.87255741      10.06457908       8.07175171       0.00000542       0.00001232       0.00001878      -0.07781517       0.22723461       0.01364775
H       13.49414688      11.06559059       4.46093412      -0.00000129       0.00000148       0.00001507      -0.03604338      -0.07863734       0.00325676
H        8.79499022       8.53233734       7.91047456       0.00002631      -0.00001300      -0.00002209       0.07105955      -0.00774407      -0.03431979
H       13.90331896      12.78286692       4.78126338      -0.00000478       0.00003609       0.00001644      -0.10423753       0.18621721      -0.00484379
H        9.97760100      11.26186495       8.16703238      -0.00000357       0.00003588      -0.00000249       0.12715587      -0.13224612      -0.08626785
H       14.00631654      11.50932221       2.08135408      -0.00000538      -0.00001670      -0.00000233       0.11167547       0.08410337       0.14329392
H        9.87710594      10.36445877       6.73229141       0.00001397      -0.00002446       0.00002766      -0.02387702      -0.02189340      -0.00607354
H       15.32766117      11.73332193       3.06737088       0.00003267      -0.00000407      -0.00000347       0.06858968      -0.01922980      -0.12127967
H       10.85008018       9.85171932       8.00737710       0.00001142      -0.00002848       0.00001655      -0.13500184      -0.04604943      -0.09584760
H       14.47865251      13.07081447       2.46923986      -0.00002206       0.00000182       0.00000750      -0.07096432       0.20051101      -0.14851588
C        8.79701581       9.54105268       8.33533810       0.00000636       0.00001573       0.00004171      -0.52140450      -0.27615233      -0.49452490
C       13.50430429      12.07864733       4.04657209      -0.00001825      -0.00005928      -0.00000474      -0.38143628      -0.02083763       0.39058679
Pb      11.07385730       7.25112832       3.92491897      -0.00001587      -0.00002080       0.00001368      -3.72752832       0.32015898      -1.51424346
Pb      15.01794230       7.20922196       3.74743500      -0.00000983      -0.00002493       0.00003778       3.88164677      -0.95029461       2.91664172
N        9.94993174      10.30240748       7.76934764      -0.00001887       0.00001388      -0.00005198      -0.14057555       0.40953456       0.52480935
N       14.38430961      12.10130960       2.84312391       0.00002711       0.00006396       0.00000163      -0.30636503      -0.00657365       0.10052421
I        5.91558469       0.88924694      10.77567553       0.00002976      -0.00001710      -0.00001287       0.30310783      -1.28516557      -1.13783548
I        0.38405323       6.30443247      10.73784711      -0.00000225       0.00000354      -0.00001030      -2.31690311      -0.39443592       0.72919010
I        4.96214710       1.43346224      14.80777036      -0.00001223      -0.00002317       0.00000590      -0.52968334       0.00701458      -1.62940545
I        0.65975818       6.04877167      15.15906672      -0.00001132      -0.00000335      -0.00002463       1.64900541      -0.72579092       0.93318619
I        4.41942128       4.85063310      12.32130337       0.00000165      -0.00002551       0.00002306       0.76674443      -2.11662045       0.49828351
I        2.62573560       2.52850609       0.53584730       0.00000313      -0.00001276      -0.00002850      -2.04817722      -0.61744083      -0.92872506
H        1.56079557       3.70986647      12.96384360       0.00004144       0.00001179       0.00000077       0.03043062      -0.01842556       0.21021127
H        5.11713123       4.90985598       7.05302384       0.00002072      -0.00000834      -0.00001348       0.01197590      -0.16085863       0.12757292
H        0.16851928       2.57974424      12.88104157      -0.00002189      -0.00001776      -0.00002395      -0.04884904       0.06544394      -0.08370648
H        6.14589914       4.78485583       8.51980409       0.00001102       0.00000105      -0.00001015       0.09415651      -0.02564772      -0.33822578
H        1.23737160       2.58521114      14.32419300      -0.00001362       0.00000791       0.00000794       0.13019235       0.11767157       0.00153346
H        4.71051410       3.72040267       8.33118310       0.00001730       0.00002508      -0.00002097      -0.11141941      -0.04936204       0.10012675
H        2.09216034       1.82221003      11.55666115      -0.00002418       0.00001874      -0.00000715      -0.15503238       0.14282736      -0.10596784
H        4.64677076       6.68645367       8.65375616      -0.00002113      -0.00001492      -0.00000643      -0.05398434       0.04320759       0.06611930
H        1.72317884       0.73542104      12.80385599       0.00002095      -0.00003088       0.00002655       0.00600418       0.07896023      -0.17037325
H        4.23754310       5.55788381       9.84213353       0.00002795       0.00002083       0.00002006      -0.01855088      -0.02042960       0.01136345
H        3.03429562       1.74440195      12.95907313       0.00001186      -0.00001255       0.00001509      -0.04352834      -0.07998171       0.15463709
H        3.31232731       5.72135243       8.43491717      -0.00000574      -0.00000699      -0.00001774      -0.13912355      -0.07806216      -0.04616596
C        1.19362602       2.71756164      13.23863565      -0.00000723       0.00000263       0.00001465      -0.56792994      -0.24968485       0.12421253
C        5.12602083       4.71098328       8.12926141      -0.00001607      -0.00000250       0.00003416       0.59989635       0.74636829       0.33211150
Pb       4.34704274      14.80769194      -0.11737733      -0.00000084       0.00002842      -0.00002648      -1.78090988       0.32223428       0.82606324
Pb       0.40350270      14.84003285       0.09635183       0.00000389       0.00000339      -0.00000710       2.20149636      -1.26906854       3.25471752
N        2.06500307       1.69159477      12.59187410       0.00002865       0.00002029      -0.00001670      -0.13030463      -0.48870387      -0.14190046
N        4.27882648       5.73014659       8.81409929      -0.00002832      -0.00002166       0.00001878      -0.57618635       0.07630772      -0.45391654
I        4.55410685       8.43541990      15.15607699      -0.00000832       0.00003074      -0.00001114       1.16357612       0.50361922       2.13850312
I        0.76868606      13.81913013      14.73885803      -0.00000798      -0.00004332       0.00001919       0.28012634      -0.18716887      -0.56628950
I        4.39911441       8.97195939      10.70794763       0.00001262       0.00001105      -0.00001371       0.22282911       0.46016380       0.57485830
I        1.72876190      13.17090286      10.54254647       0.00000953       0.00001790       0.00001479      -2.05117356       2.13726201      -0.43740998
I        5.49422343      12.20537254       8.20277495      -0.00002648      -0.00001246      -0.00001322       1.34322045      -1.52264485       0.58229257
I        0.60962314      10.04379945      13.21286894       0.00001065       0.00002914       0.00001363      -0.21781756      -0.31833259       1.33324980
H        1.68448486       8.63113922      -0.24502879      -0.00000218      -0.00002370       0.00001697      -0.03857004       0.14255409       0.20146679
H        4.93312755      11.20580653      13.41980542       0.00001619      -0.00003406       0.00001013       0.07548886       0.09869916      -0.07773582
H        1.79803052       9.59286453       1.26740207       0.00000224      -0.00001464       0.00000634      -0.11241887       0.13458775       0.17128296
H        5.34198235      12.92322461      13.73979834      -0.00000497       0.00001454       0.00001331      -0.08126241      -0.00986859       0.01556059
H        0.76201188      10.16334317      -0.08360623      -0.00002656      -0.00001486       0.00001558      -0.14714364      -0.12243300      -0.05318409
H        3.93251488      12.51466825      12.70566085       0.00000460      -0.00001152      -0.00000518       0.09622129      -0.03022740      -0.03900229
H        2.86698714      11.36069897       0.01163249       0.00001258       0.00003735      -0.00002327       0.08497431      -0.17768896      -0.15070286
H        6.76646802      11.87355216      12.02603345       0.00001072      -0.00002657       0.00005542       0.06388181       0.09242208       0.17091253
H        2.76650999      10.46332842      -1.42313890      -0.00000185       0.00000558      -0.00000945       0.12075919       0.12072531       0.05629497
H        5.91728232      13.21085408      11.42776099      -0.00002267       0.00000012      -0.00000941       0.00991512       0.16119003      -0.04418103
H        3.73953655       9.95060201      -0.14809102      -0.00001380      -0.00000523      -0.00003370       0.09209029      -0.13294649       0.00041656
H        5.44511375      11.64923543      11.04011254      -0.00000048      -0.00002030      -0.00003361       0.06355950       0.03076224      -0.05181950
C        1.68649682       9.63982522       0.17990521      -0.00004582       0.00004618      -0.00001491       0.23760110      -0.08559546      -0.12909167
C        4.94308961      12.21878502      13.00525081      -0.00002639      -0.00003301      -0.00001195       0.05861395       0.10867295       0.61367784
Pb       2.51265976       7.39116364      12.88348960      -0.00000266      -0.00000673      -0.00000073      -1.41194866       0.82223767      -0.37111617
Pb       6.45676204       7.34919290      12.70603442      -0.00000518       0.00000194      -0.00001855      -0.83362891       2.25772223      -3.19771510
N        2.83936055      10.40125332      -0.38608908       0.00002906      -0.00003960       0.00001746      -0.04788741      -0.23286708      -0.04315994
N        5.82306342      12.24138611      11.80177673       0.00003461       0.00003328       0.00001616      -0.05879602       0.34126777      -0.63514102
I       13.75160075       0.76982318      10.37402749       0.00000196      -0.00001302       0.00004285       0.19511490      -1.05589347      -0.27503306
I        8.21994438       6.18500290      10.33634024      -0.00000926       0.00001667      -0.00003018       1.62984210      -0.71172481      -0.81583926
I       12.79813541       1.31400357      14.40613666      -0.00003323      -0.00000791      -0.00000535       0.24138713       2.02374517       1.28244812
I        8.49576020       5.92934687      14.75749969      -0.00000740       0.00000219       0.00000690      -1.16085977       1.12220859      -2.18126102
I       12.25544478       4.73122425      11.91975566       0.00002188      -0.00000481      -0.00003031      -0.99130220       0.61574168       0.15841150
I       10.46175811       2.40914913       0.13433971       0.00005190      -0.00000952       0.00000399      -1.24340866       3.29676328       0.55355364
H        8.00466470       2.46046321      12.47948173      -0.00002852       0.00000048      -0.00003558       0.14703319       0.08274374      -0.00611105
H       12.95312495       4.79026024       6.65143583       0.00001587       0.00002744      -0.00001335      -0.04687275      -0.33918628       0.24819801
H        9.07331663       2.46536034      13.92278018      -0.00001192       0.00005141       0.00001870      -0.17185737      -0.10582409       0.28313748
H       13.98199371       4.66549385       8.11816637       0.00000181       0.00001776      -0.00001612       0.05149422       0.00445233       0.04614872
H        9.39715914       3.59029598      12.56276100      -0.00001979      -0.00004335       0.00000167      -0.15613830      -0.06061131      -0.13237899
H       12.54670014       3.60089044       7.92972927      -0.00000673       0.00001873      -0.00000440       0.03980814       0.00971410      -0.09874142
H        9.92821322       1.70276990      11.15516775      -0.00000637       0.00000989       0.00000748      -0.07394210      -0.13184540       0.09138224
H       11.14833236       5.60173766       8.03336343       0.00001270      -0.00000935      -0.00001544       0.04167630      -0.18608682      -0.03647508
H        9.55908882       0.61585415      12.40219880      -0.00000685      -0.00003615      -0.00000934      -0.17054918       0.22184081       0.06180338
H       12.48270707       6.56696505       8.25204817       0.00000078      -0.00002447       0.00000119       0.14275811       0.00694493       0.01550279
H       10.87031074       1.62466668      12.55760157      -0.00000888      -0.00000616      -0.00000596      -0.14876092      -0.18498628       0.10656866
H       12.07363534       5.43845442       9.44054061      -0.00000443       0.00001675       0.00001770      -0.01098079       0.01962910      -0.15028124
C        9.02974856       2.59799449      12.83725007       0.00002322       0.00001698       0.00000641      -0.41890237       0.22539169      -0.04728913
C       12.96209814       4.59149249       7.72769188      -0.00000051      -0.00001905       0.00004696       0.25236317       0.28424852      -0.68353634
Pb      12.18300976      14.68828632      -0.51896921      -0.00002850       0.00000694       0.00000116       1.28674816      -0.26854105       2.68304765
Pb       8.23946761      14.72073918      -0.30512692      -0.00002687       0.00000704       0.00000724       2.64300402      -0.99480978      -0.41963286
N        9.90101965       1.57201874      12.19036193       0.00003859       0.00006458      -0.00004491       0.66157479       0.30936079       0.04099686
N       12.11485104       5.61063907       8.41249117      -0.00000037       0.00000965      -0.00000927      -0.39463921       0.35759079      -0.42442506
I       12.39008365       8.31599595      14.75446109       0.00001462       0.00001843       0.00001229       0.38166307       0.63324539      -1.12817983
I        8.60455257      13.69963720      14.33739927       0.00000356       0.00002054       0.00000269       2.32600412       2.17056333       1.58115994
I       12.23504847       8.85248501      10.30626948      -0.00000795       0.00001740       0.00001018       2.99893503      -1.07832524       0.50822833
I        9.56475661      13.05156879      10.14103195      -0.00000109      -0.00001519      -0.00001448       0.22871281       0.46729163       0.99023796
I       13.33012789      12.08595297       7.80110428       0.00000882      -0.00002101       0.00001180      -0.97548646      -0.27816981      -2.24482919
I        8.44562994       9.92439712      12.81131195      -0.00002072       0.00002895      -0.00001634      -0.96119581       1.43925905       2.71901123
H        9.63371775       9.47353844       0.86587555       0.00001505       0.00000658       0.00000298      -0.15428984      -0.00592387       0.09989880
H       11.76856945      12.39539394      12.30398936      -0.00000571      -0.00002586      -0.00000145       0.11682190       0.06946468      -0.31564578
H        8.59777934      10.04396415      -0.48521652       0.00000536       0.00001232       0.00001879      -0.07781517       0.22723461       0.01364775
H       12.76892496      11.08620552      13.01790234      -0.00000129       0.00000148       0.00001507      -0.03604338      -0.07863734       0.00325676
H        9.52021215       8.51172241      -0.64649367       0.00002629      -0.00001302      -0.00002206       0.07105955      -0.00774407      -0.03431979
H       13.17809704      12.80348185      13.33823160      -0.00000478       0.00003609       0.00001644      -0.10423753       0.18621721      -0.00484379
H       10.70282292      11.24125002      -0.38993584      -0.00000354       0.00003590      -0.00000251       0.12715587      -0.13224612      -0.08626785
H       13.28109462      11.52993714      10.63832230      -0.00000538      -0.00001671      -0.00000233       0.11167547       0.08410337       0.14329392
H       10.60232787      10.34384384      -1.82467682       0.00001397      -0.00002446       0.00002768      -0.02387702      -0.02189340      -0.00607354
H       14.60243925      11.75393686      11.62433910       0.00003267      -0.00000408      -0.00000347       0.06858968      -0.01922980      -0.12127967
H       11.57530210       9.83110439      -0.54959112       0.00001149      -0.00002849       0.00001654      -0.13500184      -0.04604943      -0.09584760
H       13.75343059      13.09142940      11.02620808      -0.00002206       0.00000182       0.00000750      -0.07096432       0.20051101      -0.14851588
C        9.52223773       9.52043775      -0.22163012       0.00000651       0.00001579       0.00004158      -0.52140450      -0.27615233      -0.49452490
C       12.77908237      12.09926226      12.60354031      -0.00001825      -0.00005928      -0.00000474      -0.38143628      -0.02083763       0.39058679