768
Lattice="25.489424268572538 -0.0956594233117733 0.005584256169073863 0.09977264370270744 24.739172851202614 0.6001478684267295 -0.002024446371267937 0.5682806783236378 24.75292066089703" Properties=species:S:1:pos:R:3:forces:R:3:momenta:R:3 energy=-3352.7701187890466 stress="0.001394761697946393 8.997298677847026e-06 1.2800593973982084e-06 8.997298677847026e-06 0.001506159493877965 -3.674889380488554e-05 1.2800593973982084e-06 -3.674889380488554e-05 0.001562205309866392" free_energy=-3352.7701187890466 pbc="T T T"
I        6.58353316      24.07294784       1.68087456      -0.00001878      -0.00001099       0.00002000      -0.02319305       0.43333048       1.42842663
I        5.99727253      10.15023357       7.60753110      -0.00000737       0.00000330       0.00001266      -1.31685071      -2.14877532      -1.50841993
I        5.98727210       7.85581125       3.56879957       0.00001030      -0.00000408      -0.00000381      -0.04228452       0.43579167       1.53220982
I        6.49363850       1.62813371       5.11945098       0.00000267       0.00000176       0.00000012      -1.35803283      -0.85387850       2.92015719
I        0.15376042      10.17225198       7.60631257      -0.00001271       0.00000831      -0.00000474       0.08435152       1.27182016       1.37197703
I       12.42698911      24.05072573       1.68218795       0.00000873       0.00000241      -0.00001200       2.76104840      -0.03193481       1.31435447
I       12.33437066       1.60631409       5.12070072       0.00000776      -0.00002503       0.00000227       0.61124659      -1.69579629       1.09301520
I        0.14658790       7.87757451       3.56775207      -0.00000265       0.00002325      -0.00001440       0.58970962       2.20717247       2.44204285
I        9.45310941      11.56567684      10.41975292       0.00000087       0.00000778       0.00001025       0.63088469       0.37716018      -0.31148101
I        3.05227901       4.24516160       4.60681609       0.00001367      -0.00001615       0.00001041      -2.88159091       0.27439929      -0.01824469
I        3.13025413      23.57412660       4.28520174       0.00000588      -0.00001046       0.00001196      -0.30179036       0.82105132      -2.32416740
I        9.45049109      10.64895821       5.00324487       0.00001591      -0.00000902      -0.00001173       0.93730886      -1.45574250      -0.09059155
H        2.13956899       0.78092488       0.05217648       0.00000498       0.00000177      -0.00001694      -0.10930002      -0.17601306       0.22361000
H        9.41174262       0.89989327       2.76983344      -0.00002228       0.00001880      -0.00001748      -0.03240396      -0.07886374      -0.02842817
H       10.34278862       8.86744137       2.14140560      -0.00000421      -0.00000675       0.00003025       0.23309740       0.11825483       0.05923295
H        3.03513154       0.13990549       8.02682684       0.00000723       0.00000708       0.00001782      -0.07560782      -0.14819333      -0.05310286
H        3.96243748       7.10020043       6.39037615       0.00000289      -0.00000439      -0.00000765       0.16993215      -0.06865660       0.06772861
H       10.31688859       2.37633985       2.29791341       0.00000655      -0.00001271      -0.00001120      -0.02227591      -0.18531592       0.19921020
H       10.31731683       2.82454463       8.17976669      -0.00001993      -0.00000817      -0.00000850       0.13415725       0.09133413      -0.06809560
H        2.13833168       0.61636898       6.54674544      -0.00000812       0.00001412      -0.00000976       0.15729491       0.04130278      -0.16875784
H        3.93795903       0.77331540       0.05206682      -0.00001444       0.00001586       0.00000494      -0.19723002       0.10469744      -0.11378985
H        8.51849808       2.38359909       2.29802013      -0.00000510       0.00001447       0.00001605       0.04406069      -0.00358027       0.21201705
H        8.54438934       8.87439512       2.14098253       0.00001623      -0.00000178      -0.00000708       0.00101477      -0.12334442       0.01304602
H        3.93672863       0.60949052       6.54746286      -0.00001475       0.00002365       0.00000301       0.00322907       0.02676334      -0.10477529
H        3.88663401       2.40713131       1.83658427      -0.00000875      -0.00000148       0.00001240       0.18884257      -0.12993747       0.06520099
H        9.44114770       8.46410431       6.38359339       0.00000345      -0.00000996       0.00000345      -0.00476954      -0.08771639       0.14595564
H        8.59622100       7.09103577       0.50599474      -0.00001118       0.00000234      -0.00001814       0.11768280       0.04625190       0.00293550
H        2.22837614       8.44195024       2.14373110      -0.00000115       0.00000193      -0.00001581      -0.30442307      -0.07388359       0.06129020
H        3.03999030       1.01983823       2.30482097       0.00001392       0.00002986      -0.00001600       0.10260500      -0.08220223      -0.04634883
H        8.59458448       7.07674034       6.85172719      -0.00001368      -0.00000192       0.00001133      -0.08234986      -0.18184702      -0.03941433
H        9.43490287       6.61848275       1.89668044       0.00000306      -0.00000179       0.00000971       0.13824496      -0.09454420      -0.15109085
H        3.07144383       8.90816181       0.75352998       0.00000056       0.00000717      -0.00002451      -0.04364959       0.04826632       0.01107255
H        2.20483458       2.41406921       1.83667696      -0.00001647       0.00001760       0.00002049       0.06603614      -0.06916223      -0.07605319
H       10.25186841       0.74305734       0.51344984       0.00002235      -0.00000329       0.00001086       0.19433231       0.13209325      -0.03408215
H       10.27793144       7.08455411       0.50641092      -0.00002718      -0.00001268       0.00001537       0.04525921       0.04482709      -0.10724237
H        3.91008857       8.43551449       2.14420536      -0.00000912       0.00002395      -0.00001140      -0.19976025       0.00486504       0.05739129
C        3.06574923       7.70140240       6.56590459       0.00001503       0.00000378       0.00001697      -0.51300656      -0.51207125      -0.21520726
C        9.41526902       1.78251878       2.12249910       0.00000131      -0.00002990       0.00000421      -0.20791158      -0.35908883      -0.03699850
C        9.41761036       2.65314150       7.58188392       0.00002246      -0.00002186       0.00000632      -0.26649902      -0.40978145      -0.68461946
C        3.03796149       0.78791843       7.14469899      -0.00001895      -0.00000813      -0.00001004      -0.81540199      -0.29275300      -0.05670365
Pb       6.24048094       4.74198058       4.34416061       0.00000746       0.00001007       0.00000830       0.71830135       1.98179154      -0.15818204
Pb       6.26542530      10.92676498       4.49414837       0.00001739      -0.00001318       0.00000989      -1.72096966      -2.45602657       0.43602128
Pb      25.38198813      10.99705190      10.68660586       0.00000592      -0.00000976       0.00001034       1.49491060       0.30875087      -2.15824622
Pb      25.38250006      10.85501262       4.49839551      -0.00002109      -0.00001861       0.00002675      -0.86469354       1.21903179       0.29904271
N        3.04331502       1.82724009       1.64743262       0.00001234      -0.00000313      -0.00001630      -0.08728471       0.34775979       0.12574802
N        9.43782200       7.65671019       7.04098877      -0.00001670       0.00000735      -0.00002237       0.23191240      -0.46768428      -0.23826489
N        9.43766114       7.27648310       1.08976309       0.00005460      -0.00002299       0.00001847       0.16574617       0.18473652       0.46523461
N        3.06867236       8.25009444       1.56039048       0.00001120      -0.00000776       0.00001901       0.68529460      -0.81861902      -0.23153079
I        6.50823063       5.66060504       7.41901568      -0.00000688       0.00000822      -0.00000164      -2.07241593       1.04945709       0.83927796
I        5.97285066       3.82335184       1.26928732       0.00000679      -0.00000425       0.00000312       2.37494865       0.53825301      -0.73266932
I        5.96177188       1.81307141       9.60701187       0.00001367      -0.00000197      -0.00001393       2.77111112       1.12236112      -1.28175158
I        6.51712145       8.23911855      23.83415773      -0.00002337       0.00001097       0.00001646      -0.22215611       0.52847006       0.69231028
I        0.12934498       3.84544923       1.26806665       0.00001109      -0.00002108      -0.00000763      -0.59437327       2.48994873      -1.89134324
I       12.35164824       5.63840134       7.42032627       0.00002799      -0.00000675       0.00002688      -0.81943704       1.72658519       1.17352127
I       12.35777431       8.21730612      23.83539347       0.00000049       0.00001489      -0.00000511       1.13065343      -1.71099496      -0.65000401
I        0.12118807       1.83484480       9.60594682      -0.00000040       0.00000669      -0.00001371       1.43298711       0.29607810       0.16882888
I        9.42867032       5.23880124       4.08150798      -0.00000874       0.00000292       0.00000934      -3.38519045       0.02311036      -2.02087592
I        3.07571107      10.85612231      23.32158284       0.00000324      -0.00001455       0.00001572      -2.72505251       0.36584776      -1.37387378
I        3.05495076       5.16181065      10.02332635      -0.00001562      -0.00000520       0.00000423       1.38583458      -1.33593190      -0.42861187
I        9.42406574       4.89039495      23.41789461      -0.00003004      -0.00004449       0.00000819       1.86257212      -0.16260296      -0.24956223
H        3.06938468       8.58401747       5.91855811      -0.00000215       0.00000347       0.00000474       0.05355663      -0.03738984       0.21999468
H        9.43593711       7.22676798       9.10815350       0.00001338      -0.00002647       0.00000226      -0.14593968      -0.05859697       0.10665397
H        8.51892110       2.83158566       8.17923066      -0.00001723       0.00000054       0.00000725       0.04147109      -0.02103390       0.12778429
H        3.96207548       6.65229233       0.50911776       0.00001721       0.00000450      -0.00000756      -0.10222030      -0.04234978       0.20738399
H        3.04500691       2.25719874      -0.41972861      -0.00001095       0.00002620      -0.00001943      -0.09342067       0.05550845       0.08559254
H       10.34121463       8.70317347       8.63635558       0.00000748      -0.00002151      -0.00003481       0.17411078      -0.06514902      -0.03847733
H        9.44576684       9.34396238       0.66147569      -0.00000411       0.00001405       0.00002224      -0.03048631      -0.01181524      -0.12458589
H        3.06055341       6.18257007       1.98848555       0.00000026       0.00000956      -0.00000046      -0.18199184       0.22748488      -0.01172895
H        2.16404757       7.10769910       6.39051474      -0.00001377      -0.00000508      -0.00000464      -0.00795349      -0.06711469      -0.23025078
H        8.54282531       8.71051356       8.63623472       0.00001657      -0.00000515      -0.00000479      -0.00294990      -0.23127171       0.03152609
H        9.42041113       3.30124637       6.69982391      -0.00000988       0.00000483      -0.00001882      -0.05713753       0.15446055       0.10048480
H        2.16368094       6.65921920       0.50850404       0.00000328       0.00000855       0.00001154       0.10401122       0.17482151      -0.11606618
H        3.06447470       7.34672251       8.64313796      -0.00001050      -0.00000772      -0.00000223       0.02510223       0.06317879       0.09572708
H        9.41661636       2.13722247       0.04526752       0.00001476      -0.00002046       0.00003401      -0.05094028       0.02571166      -0.17553766
H        9.40939064       0.57565867       7.93479050      -0.00000395       0.00000844       0.00002272      -0.02382630       0.01516697      -0.03489848
H        3.88460065       2.39288858       8.18234492      -0.00000248       0.00001642      -0.00002667       0.17590648      -0.24431172       0.07666694
H        2.22926846       8.74091948       8.17497841      -0.00001753      -0.00001925      -0.00001730      -0.07525323       0.02533665      -0.16118133
H        8.57006945       0.74987707       0.51349755      -0.00001862      -0.00001901      -0.00001337      -0.05285370       0.16427703       0.09107359
H       10.25244253       1.04180853       6.54456495       0.00001329       0.00000858       0.00001287      -0.02686356      -0.06313178       0.01623096
H        2.20289345       2.39926982       8.18179945      -0.00000617      -0.00000185      -0.00000601       0.07053961       0.02951381       0.00864016
H        3.91106534       8.73402927       8.17485642       0.00001888       0.00000609       0.00001529       0.08276821      -0.16580289      -0.01578495
H       10.27638434       7.06995287       6.85185883      -0.00001295       0.00000939      -0.00000988      -0.14869643       0.04006327      -0.05467876
H        8.57073394       1.04835278       6.54413418      -0.00001403      -0.00001579      -0.00000291       0.03094315       0.06924773      -0.01798320
H        3.04600233       2.86537356       6.79158515       0.00000151       0.00000177       0.00000758      -0.02492665      -0.02873347      -0.16647867
C        3.04130471       1.37456894       0.22759551       0.00002080      -0.00006419       0.00001918       0.03892971       0.17717702       0.01951550
C        9.43959144       8.10939309       8.46082202      -0.00000954       0.00002792       0.00001142      -0.28726304       0.05368937       0.09671410
C        9.44305236       8.69594018       1.54359791      -0.00003383       0.00000524      -0.00004133       0.42709278      -0.32312060       0.13456763
C        3.06334923       6.83067775       1.10642666       0.00000183       0.00000074       0.00001886      -0.28267837      -0.39126071       0.54271086
Pb       6.26492002      11.06883007      10.68241260      -0.00000413      -0.00000578      -0.00000322       1.21700585      -1.49672621       0.79832367
Pb       6.23998865       4.88401202      10.53237230       0.00001307       0.00001411      -0.00001611       2.20455507       2.98499890      -0.58691585
Pb      25.35753445       4.67019251       4.34838163       0.00000487       0.00001018      -0.00000388       1.65723297       5.09749384       0.95337674
Pb      25.35706576       4.81226892      10.53662954       0.00000502       0.00000432      -0.00001987      -1.72209278      -2.25902094       3.08955945
N        3.06776143       8.15410813       7.98573116       0.00001426       0.00004280      -0.00003054       0.46700908      -0.03936210      -0.51027454
N        9.41334079       1.32983043       0.70266733      -0.00002859       0.00005600      -0.00003610       0.01198994       0.46906851      -0.30185474
N        9.41217647       1.23372291       7.12792558       0.00002152       0.00002319      -0.00001647      -0.23964467       0.12710630       0.14323947
N        3.04321819       2.20738389       7.59851130       0.00003406      -0.00001062       0.00002071       0.02128464      -0.89153088       0.20089370
I        6.58252094      24.35708818      14.05733489      -0.00001878      -0.00001099       0.00002002      -0.02319305       0.43333048       1.42842663
I        5.99626031      10.43437391      19.98399143      -0.00000737       0.00000330       0.00001267      -1.31685071      -2.14877532      -1.50841993
I        5.98625988       8.13995159      15.94525990       0.00001029      -0.00000409      -0.00000381      -0.04228452       0.43579167       1.53220982
I        6.49262628       1.91227405      17.49591131       0.00000267       0.00000174       0.00000012      -1.35803283      -0.85387850       2.92015719
I        0.15274820      10.45639232      19.98277290      -0.00001271       0.00000831      -0.00000475       0.08435152       1.27182016       1.37197703
I       12.42597689      24.33486607      14.05864828       0.00000873       0.00000241      -0.00001200       2.76104840      -0.03193481       1.31435447
I       12.33335844       1.89045443      17.49716105       0.00000776      -0.00002503       0.00000227       0.61124659      -1.69579629       1.09301520
I        0.14557568       8.16171485      15.94421240      -0.00000265       0.00002324      -0.00001440       0.58970962       2.20717247       2.44204285
I        9.45209719      11.84981718      22.79621325       0.00000086       0.00000778       0.00001026       0.63088469       0.37716018      -0.31148101
I        3.05126679       4.52930194      16.98327642       0.00001367      -0.00001615       0.00001041      -2.88159091       0.27439929      -0.01824469
I        3.12924191      23.85826694      16.66166207       0.00000588      -0.00001047       0.00001196      -0.30179036       0.82105132      -2.32416740
I        9.44947887      10.93309855      17.37970520       0.00001591      -0.00000902      -0.00001173       0.93730886      -1.45574250      -0.09059155
H        2.13855677       1.06506522      12.42863681       0.00000498       0.00000178      -0.00001695      -0.10930002      -0.17601306       0.22361000
H        9.41073040       1.18403361      15.14629377      -0.00002228       0.00001880      -0.00001748      -0.03240396      -0.07886374      -0.02842817
H       10.34177640       9.15158171      14.51786593      -0.00000421      -0.00000675       0.00003025       0.23309740       0.11825483       0.05923295
H        3.03411932       0.42404583      20.40328717       0.00000723       0.00000708       0.00001782      -0.07560782      -0.14819333      -0.05310286
H        3.96142526       7.38434077      18.76683648       0.00000289      -0.00000439      -0.00000765       0.16993215      -0.06865660       0.06772861
H       10.31587637       2.66048019      14.67437374       0.00000655      -0.00001271      -0.00001120      -0.02227591      -0.18531592       0.19921020
H       10.31630461       3.10868497      20.55622702      -0.00001993      -0.00000817      -0.00000850       0.13415725       0.09133413      -0.06809560
H        2.13731946       0.90050932      18.92320577      -0.00000812       0.00001412      -0.00000976       0.15729491       0.04130278      -0.16875784
H        3.93694681       1.05745574      12.42852715      -0.00001444       0.00001585       0.00000495      -0.19723002       0.10469744      -0.11378985
H        8.51748586       2.66773943      14.67448046      -0.00000510       0.00001447       0.00001605       0.04406069      -0.00358027       0.21201705
H        8.54337712       9.15853546      14.51744286       0.00001623      -0.00000178      -0.00000708       0.00101477      -0.12334442       0.01304602
H        3.93571641       0.89363086      18.92392319      -0.00001475       0.00002365       0.00000301       0.00322907       0.02676334      -0.10477529
H        3.88562179       2.69127165      14.21304460      -0.00000875      -0.00000148       0.00001240       0.18884257      -0.12993747       0.06520099
H        9.44013548       8.74824465      18.76005372       0.00000345      -0.00000996       0.00000345      -0.00476954      -0.08771639       0.14595564
H        8.59520878       7.37517611      12.88245507      -0.00001118       0.00000234      -0.00001814       0.11768280       0.04625190       0.00293550
H        2.22736392       8.72609058      14.52019143      -0.00000115       0.00000193      -0.00001581      -0.30442307      -0.07388359       0.06129020
H        3.03897808       1.30397857      14.68128130       0.00001392       0.00002986      -0.00001600       0.10260500      -0.08220223      -0.04634883
H        8.59357226       7.36088068      19.22818752      -0.00001368      -0.00000192       0.00001133      -0.08234986      -0.18184702      -0.03941433
H        9.43389065       6.90262309      14.27314077       0.00000306      -0.00000179       0.00000971       0.13824496      -0.09454420      -0.15109085
H        3.07043161       9.19230215      13.12999031       0.00000057       0.00000717      -0.00002451      -0.04364959       0.04826632       0.01107255
H        2.20382236       2.69820955      14.21313729      -0.00001647       0.00001760       0.00002049       0.06603614      -0.06916223      -0.07605319
H       10.25085619       1.02719768      12.88991017       0.00002235      -0.00000330       0.00001086       0.19433231       0.13209325      -0.03408215
H       10.27691922       7.36869445      12.88287125      -0.00002718      -0.00001268       0.00001537       0.04525921       0.04482709      -0.10724237
H        3.90907635       8.71965483      14.52066569      -0.00000912       0.00002395      -0.00001140      -0.19976025       0.00486504       0.05739129
C        3.06473701       7.98554274      18.94236492       0.00001503       0.00000378       0.00001697      -0.51300656      -0.51207125      -0.21520726
C        9.41425680       2.06665912      14.49895943       0.00000131      -0.00002990       0.00000421      -0.20791158      -0.35908883      -0.03699850
C        9.41659814       2.93728184      19.95834425       0.00002246      -0.00002186       0.00000632      -0.26649902      -0.40978145      -0.68461946
C        3.03694927       1.07205877      19.52115932      -0.00001895      -0.00000813      -0.00001004      -0.81540199      -0.29275300      -0.05670365
Pb       6.23946872       5.02612092      16.72062094       0.00000746       0.00001007       0.00000831       0.71830135       1.98179154      -0.15818204
Pb       6.26441308      11.21090532      16.87060870       0.00001739      -0.00001319       0.00000989      -1.72096966      -2.45602657       0.43602128
Pb      25.38097591      11.28119224      23.06306619       0.00000592      -0.00000977       0.00001034       1.49491060       0.30875087      -2.15824622
Pb      25.38148784      11.13915296      16.87485584      -0.00002109      -0.00001860       0.00002675      -0.86469354       1.21903179       0.29904271
N        3.04230280       2.11138043      14.02389295       0.00001234      -0.00000314      -0.00001630      -0.08728471       0.34775979       0.12574802
N        9.43680978       7.94085053      19.41744910      -0.00001670       0.00000735      -0.00002237       0.23191240      -0.46768428      -0.23826489
N        9.43664892       7.56062344      13.46622342       0.00005460      -0.00002299       0.00001847       0.16574617       0.18473652       0.46523461
N        3.06766014       8.53423478      13.93685081       0.00001120      -0.00000776       0.00001901       0.68529460      -0.81861902      -0.23153079
I        6.50721841       5.94474538      19.79547601      -0.00000688       0.00000822      -0.00000164      -2.07241593       1.04945709       0.83927796
I        5.97183844       4.10749218      13.64574765       0.00000679      -0.00000425       0.00000311       2.37494865       0.53825301      -0.73266932
I        5.96075966       2.09721175      21.98347220       0.00001367      -0.00000199      -0.00001393       2.77111112       1.12236112      -1.28175158
I        6.51813368       7.95497821      11.45769740      -0.00002337       0.00001097       0.00001645      -0.22215611       0.52847006       0.69231028
I        0.12833276       4.12958957      13.64452698       0.00001109      -0.00002108      -0.00000763      -0.59437327       2.48994873      -1.89134324
I       12.35063602       5.92254168      19.79678660       0.00002799      -0.00000675       0.00002688      -0.81943704       1.72658519       1.17352127
I       12.35878654       7.93316578      11.45893314       0.00000049       0.00001489      -0.00000511       1.13065343      -1.71099496      -0.65000401
I        0.12017585       2.11898514      21.98240715      -0.00000040       0.00000669      -0.00001371       1.43298711       0.29607810       0.16882888
I        9.42765810       5.52294158      16.45796831      -0.00000874       0.00000292       0.00000934      -3.38519045       0.02311036      -2.02087592
I        3.07672330      10.57198197      10.94512251       0.00000321      -0.00001455       0.00001572      -2.72505251       0.36584776      -1.37387378
I        3.05393854       5.44595099      22.39978668      -0.00001563      -0.00000520       0.00000422       1.38583458      -1.33593190      -0.42861187
I        9.42507797       4.60625461      11.04143428      -0.00003006      -0.00004449       0.00000819       1.86257212      -0.16260296      -0.24956223
H        3.06837246       8.86815781      18.29501844      -0.00000215       0.00000347       0.00000474       0.05355663      -0.03738984       0.21999468
H        9.43492489       7.51090832      21.48461383       0.00001338      -0.00002647       0.00000226      -0.14593968      -0.05859697       0.10665397
H        8.51790888       3.11572600      20.55569099      -0.00001723       0.00000053       0.00000725       0.04147109      -0.02103390       0.12778429
H        3.96106326       6.93643267      12.88557809       0.00001721       0.00000450      -0.00000756      -0.10222030      -0.04234978       0.20738399
H        3.04399469       2.54133908      11.95673172      -0.00001097       0.00002625      -0.00001946      -0.09342067       0.05550845       0.08559254
H       10.34020241       8.98731381      21.01281591       0.00000748      -0.00002151      -0.00003481       0.17411078      -0.06514902      -0.03847733
H        9.44475462       9.62810272      13.03793602      -0.00000411       0.00001405       0.00002224      -0.03048631      -0.01181524      -0.12458589
H        3.05954119       6.46671041      14.36494588       0.00000026       0.00000956      -0.00000046      -0.18199184       0.22748488      -0.01172895
H        2.16303535       7.39183944      18.76697507      -0.00001377      -0.00000508      -0.00000464      -0.00795349      -0.06711469      -0.23025078
H        8.54181309       8.99465390      21.01269505       0.00001657      -0.00000515      -0.00000479      -0.00294990      -0.23127171       0.03152609
H        9.41939891       3.58538671      19.07628424      -0.00000988       0.00000483      -0.00001882      -0.05713753       0.15446055       0.10048480
H        2.16266872       6.94335954      12.88496437       0.00000328       0.00000855       0.00001154       0.10401122       0.17482151      -0.11606618
H        3.06346248       7.63086285      21.01959829      -0.00001050      -0.00000772      -0.00000223       0.02510223       0.06317879       0.09572708
H        9.41560414       2.42136281      12.42172785       0.00001474      -0.00002041       0.00003397      -0.05094028       0.02571166      -0.17553766
H        9.40837842       0.85979901      20.31125083      -0.00000395       0.00000845       0.00002271      -0.02382630       0.01516697      -0.03489848
H        3.88358843       2.67702892      20.55880525      -0.00000248       0.00001642      -0.00002666       0.17590648      -0.24431172       0.07666694
H        2.22825624       9.02505982      20.55143874      -0.00001753      -0.00001925      -0.00001730      -0.07525323       0.02533665      -0.16118133
H        8.56905723       1.03401741      12.88995788      -0.00001862      -0.00001901      -0.00001337      -0.05285370       0.16427703       0.09107359
H       10.25143031       1.32594887      18.92102528       0.00001330       0.00000858       0.00001287      -0.02686356      -0.06313178       0.01623096
H        2.20188123       2.68341016      20.55825978      -0.00000617      -0.00000185      -0.00000601       0.07053961       0.02951381       0.00864016
H        3.91005312       9.01816961      20.55131675       0.00001888       0.00000608       0.00001529       0.08276821      -0.16580289      -0.01578495
H       10.27537212       7.35409321      19.22831916      -0.00001295       0.00000939      -0.00000988      -0.14869643       0.04006327      -0.05467876
H        8.56972172       1.33249312      18.92059451      -0.00001403      -0.00001579      -0.00000291       0.03094315       0.06924773      -0.01798320
H        3.04499011       3.14951390      19.16804548       0.00000151       0.00000177       0.00000758      -0.02492665      -0.02873347      -0.16647867
C        3.04029249       1.65870928      12.60405584       0.00002082      -0.00006424       0.00001921       0.03892971       0.17717702       0.01951550
C        9.43857922       8.39353343      20.83728235      -0.00000954       0.00002792       0.00001142      -0.28726304       0.05368937       0.09671410
C        9.44204014       8.98008052      13.92005824      -0.00003383       0.00000524      -0.00004133       0.42709278      -0.32312060       0.13456763
C        3.06233701       7.11481809      13.48288699       0.00000183       0.00000075       0.00001886      -0.28267837      -0.39126071       0.54271086
Pb       6.26390780      11.35297041      23.05887293      -0.00000413      -0.00000580      -0.00000321       1.21700585      -1.49672621       0.79832367
Pb       6.23897643       5.16815236      22.90883263       0.00001306       0.00001410      -0.00001611       2.20455507       2.98499890      -0.58691585
Pb      25.35652223       4.95433285      16.72484196       0.00000487       0.00001018      -0.00000388       1.65723297       5.09749384       0.95337674
Pb      25.35605354       5.09640926      22.91308987       0.00000502       0.00000433      -0.00001986      -1.72209278      -2.25902094       3.08955945