768
Lattice="31.44907051976841 0.365171960951608 -0.055855885419994714 0.45399357994295997 29.949780747638037 0.6843898095014016 -0.02805637531551095 -0.30603580234294103 17.31730621775573" Properties=species:S:1:pos:R:3:forces:R:3 energy=-3352.3054049091384 stress="0.0013914686443130147 0.0007675205663452263 0.00033731931648714757 0.0007675205663452263 0.0027375674373346635 2.9277568192326137e-05 0.00033731931648714757 2.9277568192326137e-05 0.002743247016905712" free_energy=-3352.3054049091384 pbc="T T T"
I        7.60280681       5.04318614       3.39956097       0.00003084       0.00002888      -0.00000890
I        2.21992484       9.92580383       2.59342171       0.00001652      -0.00000468       0.00000035
I        7.54533266       5.18590359       7.68991742       0.00002399       0.00001774      -0.00002131
I        2.26346457       9.63013614       6.96172142      -0.00001106       0.00000930      -0.00002431
I        6.15332718       8.63945472       4.73693141      -0.00001983      -0.00003369       0.00001196
I        3.65547321       6.17657353       9.91463176      -0.00002286       0.00002285       0.00002861
H        4.32815283       6.25269551       5.87113594       0.00001492       0.00000517      -0.00000931
H        7.05043119       9.26205548      -0.58825904      -0.00001641      -0.00000494       0.00000379
H        2.77218124       5.70686586       6.58112436       0.00003087       0.00003018      -0.00000307
H        5.49455120       8.71627414       0.12196816       0.00003197      -0.00000923      -0.00001518
H        3.44954907       4.86004712       5.14895148       0.00001638      -0.00000981       0.00000258
H        6.37321504      10.10899927       0.84391860       0.00002083       0.00002078       0.00000478
H        1.67440787       6.37366276       4.49939602      -0.00000045       0.00000118       0.00000797
H        6.71519032       8.05338005       2.12951951       0.00001451       0.00000585      -0.00001962
H        3.10769515       6.91570704       3.86345488       0.00000721       0.00002457      -0.00000764
H        8.14841486       8.59550185       1.49350113       0.00001484       0.00000422      -0.00002800
H        2.45919564       7.68504332       5.22138645      -0.00001408      -0.00000919      -0.00002390
H        7.36368729       7.28404272       0.77158875      -0.00000750       0.00000422       0.00000524
C        3.34371989       5.82505750       5.65578670      -0.00003530      -0.00001386       0.00001712
C        6.47900594       9.14394553       0.33715856      -0.00000867      -0.00001002       0.00000362
Pb       5.78757527      18.57064380      10.12750938      -0.00000287      -0.00001344      -0.00000250
Pb       1.85624472      18.58803135      10.12733425      -0.00001757       0.00000236      -0.00002322
N        2.60421510       6.76189172       4.75825215      -0.00002689      -0.00002474       0.00001317
N        7.21862432       8.20720112       1.23469433      -0.00003030      -0.00000106       0.00001938
I        6.17113087      12.65059099       7.02396322      -0.00000234      -0.00000215      -0.00001123
I        3.86464113      17.14036257       7.96982550       0.00001793      -0.00001458      -0.00004395
I        6.14612165      12.56795121       2.65497393      -0.00001058      -0.00001474       0.00000725
I        3.90368256      17.37598591       3.68017406      -0.00001019       0.00000676      -0.00000437
I        7.86453429      16.20969702       1.49619987       0.00001815       0.00000303      -0.00000374
I        2.18528321      13.73424511       4.83891796      -0.00001278      -0.00001096       0.00002533
H        2.43675896      12.29574365       9.55775513       0.00002678      -0.00000915      -0.00001905
H        6.79445312      16.67186848       6.81433024      -0.00000620       0.00001175       0.00003505
H        1.64427276      13.69928400       8.76180712       0.00000427      -0.00000254       0.00000401
H        8.39175729      16.09179013       6.23171681      -0.00002853      -0.00000872       0.00000924
H        3.24160208      13.11875913       8.17970100      -0.00002352       0.00000458      -0.00002254
H        7.59880789      17.49534491       5.43626157      -0.00002228      -0.00000769       0.00001408
H        3.48106781      15.10389265       9.55364371       0.00000045       0.00000397       0.00001776
H        5.84507684      16.01098531       4.66586000       0.00002760      -0.00001234      -0.00000558
H        4.19068087      13.77999188      10.32811047       0.00002165       0.00001139      -0.00001466
H        6.55489987      14.68704906       5.44005848      -0.00002528       0.00000017       0.00000158
H        2.71977896      14.34975863      10.85391971       0.00000544       0.00001535      -0.00001715
H        7.31596652      15.44143126       4.13978984      -0.00001290      -0.00002051      -0.00002306
C        2.60031814      13.25506155       9.05548728      -0.00002734      -0.00000088       0.00003317
C        7.43555299      16.53588673       5.93836091       0.00002908      -0.00000441      -0.00003001
Pb       4.24819634      11.22028538       4.86628787       0.00000600       0.00001259      -0.00000604
Pb       8.17952406      11.20289939       4.86647532       0.00000693       0.00001208       0.00000345
N        3.28638332      14.18285241      10.00277889      -0.00003728      -0.00000684       0.00002534
N        6.74945139      15.60816475       4.99102708       0.00001404       0.00001850      -0.00000555
I       15.46510234       5.13458876       3.38558952       0.00000758      -0.00002161      -0.00000822
I       10.08225016      10.01710797       2.57943744      -0.00001803       0.00000420      -0.00001974
I       15.40758836       5.27720858       7.67596858      -0.00001096       0.00001212       0.00001249
I       10.12573440       9.72140036       6.94769192      -0.00001320       0.00000278       0.00001228
I       14.01558375       8.73079463       4.72295757       0.00001218      -0.00001836      -0.00001111
I       11.51767217       6.26789709       9.90067331       0.00002545      -0.00001552       0.00001715
H       12.19069704       6.34401486       5.85678272      -0.00000906       0.00001760       0.00000795
H       14.23544970      10.20038794       0.82968184       0.00000660      -0.00001304      -0.00000934
H       10.63491151       5.79852067       6.56741854      -0.00002444      -0.00000787       0.00000157
H       14.91270525       9.35330738      -0.60239688      -0.00000683      -0.00000055      -0.00000624
H       11.31174935       4.95125055       5.13525079      -0.00000108       0.00001924       0.00000244
H       13.35677383       8.80763633       0.10778987      -0.00000251      -0.00003050       0.00001062
H       10.96980088       7.00679510       3.84941383      -0.00001104      -0.00001133       0.00001603
H       14.57729985       8.14484706       2.11545785       0.00000657      -0.00001646       0.00002804
H       10.32144989       7.77627239       5.20733791       0.00000255      -0.00000132       0.00000034
H       16.01056723       8.68688284       1.47946681       0.00000521       0.00000705      -0.00000460
H        9.53663523       6.46475542       4.48563500      -0.00000407       0.00001310       0.00000772
H       15.22584050       7.37539749       0.75761141      -0.00001177       0.00001195       0.00002147
C       11.20615698       5.91640500       5.64186209       0.00001083      -0.00001189      -0.00000972
C       14.34123032       9.23529024       0.32300134       0.00001166       0.00003624       0.00004100
Pb      13.64982758      18.66196762      10.11357973       0.00002972      -0.00001550      -0.00000747
Pb       9.71851166      18.67929306      10.11334050      -0.00002311      -0.00002111       0.00001254
N       10.46645679       6.85306817       4.74430846       0.00001586      -0.00001519      -0.00001473
N       15.08077665       8.29859179       1.22064562       0.00001705      -0.00001139      -0.00003623
I       14.03334347      12.74196177       7.00997123       0.00000748      -0.00000188       0.00001054
I       11.72695879      17.23159325       7.95591114      -0.00002180       0.00000048      -0.00000756
I       14.00843084      12.65920445       2.64097861      -0.00001229       0.00000022      -0.00000613
I       11.76592665      17.46734401       3.66625883       0.00000863      -0.00001589      -0.00002232
I       15.72679494      16.30100979       1.48218375       0.00001892       0.00002434       0.00001152
I       10.04749306      13.82554987       4.82493158       0.00001846      -0.00001399       0.00000972
H       10.29916805      12.38686259       9.54355711       0.00002736       0.00003183      -0.00002200
H       15.46110339      17.58658688       5.42225534      -0.00001179       0.00004947      -0.00002376
H        9.50626463      13.79046719       8.74814469      -0.00002970       0.00002383      -0.00001258
H       14.65666211      16.76310145       6.80026703       0.00001733       0.00001245      -0.00001386
H       11.10352732      13.21033112       8.16548534       0.00002318       0.00000404      -0.00000297
H       16.25397719      16.18299467       6.21771946      -0.00001416      -0.00001056      -0.00001603
H       11.34318673      15.19511801       9.53979600      -0.00000107       0.00002232      -0.00000271
H       15.17825379      15.53272146       4.12571027      -0.00001496      -0.00001793       0.00000593
H       12.05298112      13.87114327      10.31394699      -0.00000240       0.00000058       0.00001041
H       13.70735827      16.10228320       4.65175597       0.00004047      -0.00002515       0.00002363
H       10.58212438      14.44072930      10.84007164       0.00002665       0.00001964      -0.00002381
H       14.41713748      14.77831665       5.42594175      -0.00002334      -0.00001737       0.00002087
C       10.46245396      13.34632446       9.04147307       0.00000079      -0.00004583       0.00004019
C       15.29780026      16.62712241       5.92432265      -0.00001808      -0.00001867       0.00006071
Pb      12.11045900      11.31160130       4.85230618       0.00001781       0.00000479      -0.00000402
Pb      16.04180397      11.29422806       4.85254342      -0.00001156      -0.00000377       0.00002024
N       11.14861184      14.27400022       9.98881200      -0.00003409      -0.00002206       0.00000877
N       14.61171822      15.69943866       4.97693838       0.00000482       0.00005917      -0.00002994
I        7.58877862       4.89016824      12.05821408       0.00003084       0.00002888      -0.00000890
I        2.20589665       9.77278593      11.25207482       0.00001652      -0.00000468       0.00000035
I        7.53130447       5.03288569      16.34857053       0.00002399       0.00001773      -0.00002130
I        2.24943638       9.47711824      15.62037453      -0.00001106       0.00000930      -0.00002431
I        6.13929899       8.48643682      13.39558452      -0.00001983      -0.00003369       0.00001196
I        3.66950140       6.32959143       1.25597865      -0.00002286       0.00002285       0.00002861
H        4.31412464       6.09967761      14.52978905       0.00001492       0.00000517      -0.00000931
H        7.03640300       9.10903758       8.07039407      -0.00001648      -0.00000493       0.00000389
H        2.75815305       5.55384796      15.23977747       0.00003087       0.00003018      -0.00000307
H        5.48052301       8.56325624       8.78062127       0.00003188      -0.00000925      -0.00001520
H        3.43552088       4.70702922      13.80760459       0.00001638      -0.00000981       0.00000259
H        6.35918685       9.95598137       9.50257171       0.00002082       0.00002078       0.00000478
H        1.66037968       6.22064486      13.15804913      -0.00000045       0.00000118       0.00000797
H        6.70116213       7.90036215      10.78817262       0.00001451       0.00000585      -0.00001962
H        3.09366696       6.76268914      12.52210799       0.00000721       0.00002457      -0.00000764
H        8.13438667       8.44248395      10.15215424       0.00001484       0.00000422      -0.00002800
H        2.44516745       7.53202542      13.88003956      -0.00001408      -0.00000919      -0.00002390
H        7.34965910       7.13102482       9.43024186      -0.00000750       0.00000423       0.00000524
C        3.32969170       5.67203960      14.31443981      -0.00003530      -0.00001386       0.00001711
C        6.46497775       8.99092763       8.99581167      -0.00000851      -0.00001000       0.00000352
Pb       5.80160346      18.72366170       1.46885627      -0.00000287      -0.00001344      -0.00000250
Pb       1.87027291      18.74104925       1.46868114      -0.00001757       0.00000236      -0.00002322
N        2.59018691       6.60887382      13.41690526      -0.00002689      -0.00002474       0.00001317
N        7.20459613       8.05418322       9.89334744      -0.00003029      -0.00000106       0.00001939
I        6.15710268      12.49757309      15.68261633      -0.00000234      -0.00000215      -0.00001123
I        3.85061294      16.98734467      16.62847861       0.00001794      -0.00001459      -0.00004396
I        6.13209346      12.41493331      11.31362704      -0.00001058      -0.00001474       0.00000725
I        3.88965437      17.22296801      12.33882717      -0.00001018       0.00000676      -0.00000437
I        7.85050610      16.05667912      10.15485298       0.00001815       0.00000303      -0.00000374
I        2.17125502      13.58122721      13.49757107      -0.00001278      -0.00001096       0.00002533
H        2.45078715      12.44876155       0.89910202       0.00002678      -0.00000915      -0.00001905
H        6.78042493      16.51885058      15.47298335      -0.00000620       0.00001175       0.00003505
H        1.65830095      13.85230190       0.10315401       0.00000440      -0.00000260       0.00000404
H        8.37772910      15.93877223      14.89036992      -0.00002853      -0.00000872       0.00000924
H        3.25563027      13.27177703      -0.47895211      -0.00002343       0.00000456      -0.00002267
H        7.58477970      17.34232701      14.09491468      -0.00002228      -0.00000769       0.00001408
H        3.49509600      15.25691055       0.89499060       0.00000045       0.00000397       0.00001777
H        5.83104865      15.85796741      13.32451311       0.00002760      -0.00001234      -0.00000558
H        4.20470906      13.93300978       1.66945736       0.00002165       0.00001139      -0.00001466
H        6.54087168      14.53403116      14.09871159      -0.00002528       0.00000017       0.00000158
H        2.73380715      14.50277653       2.19526660       0.00000544       0.00001535      -0.00001715
H        7.30193833      15.28841336      12.79844295      -0.00001290      -0.00002051      -0.00002306
C        2.61434633      13.40807945       0.39683417      -0.00002756      -0.00000080       0.00003326
C        7.42152480      16.38286883      14.59701402       0.00002908      -0.00000441      -0.00003001
Pb       4.23416815      11.06726748      13.52494098       0.00000600       0.00001259      -0.00000604
Pb       8.16549587      11.04988149      13.52512843       0.00000693       0.00001207       0.00000345
N        3.30041151      14.33587031       1.34412578      -0.00003727      -0.00000684       0.00002535
N        6.73542320      15.45514685      13.64968019       0.00001404       0.00001850      -0.00000555
I       15.45107415       4.98157086      12.04424263       0.00000758      -0.00002160      -0.00000822
I       10.06822197       9.86409007      11.23809055      -0.00001803       0.00000420      -0.00001974
I       15.39356017       5.12419068      16.33462169      -0.00001096       0.00001211       0.00001248
I       10.11170621       9.56838246      15.60634503      -0.00001320       0.00000278       0.00001228
I       14.00155556       8.57777673      13.38161068       0.00001218      -0.00001837      -0.00001111
I       11.53170036       6.42091499       1.24202020       0.00002545      -0.00001553       0.00001715
H       12.17666885       6.19099696      14.51543583      -0.00000906       0.00001760       0.00000795
H       14.22142151      10.04737004       9.48833495       0.00000659      -0.00001304      -0.00000935
H       10.62088332       5.64550277      15.22607165      -0.00002444      -0.00000787       0.00000157
H       14.89867706       9.20028948       8.05625623      -0.00000690      -0.00000055      -0.00000613
H       11.29772116       4.79823265      13.79390390      -0.00000108       0.00001924       0.00000244
H       13.34274564       8.65461843       8.76644298      -0.00000260      -0.00003052       0.00001060
H       10.95577269       6.85377720      12.50806694      -0.00001104      -0.00001133       0.00001603
H       14.56327166       7.99182916      10.77411096       0.00000657      -0.00001646       0.00002804
H       10.30742170       7.62325449      13.86599102       0.00000255      -0.00000132       0.00000034
H       15.99653904       8.53386494      10.13811992       0.00000520       0.00000705      -0.00000460
H        9.52260704       6.31173752      13.14428811      -0.00000407       0.00001310       0.00000772
H       15.21181231       7.22237959       9.41626452      -0.00001177       0.00001196       0.00002148
C       11.19212879       5.76338710      14.30051520       0.00001083      -0.00001189      -0.00000973
C       14.32720213       9.08227234       8.98165445       0.00001182       0.00003626       0.00004090
Pb      13.66385577      18.81498552       1.45492662       0.00002972      -0.00001550      -0.00000746
Pb       9.73253985      18.83231096       1.45468739      -0.00002311      -0.00002111       0.00001254
N       10.45242860       6.70005027      13.40296157       0.00001586      -0.00001519      -0.00001473
N       15.06674846       8.14557389       9.87929873       0.00001705      -0.00001139      -0.00003622
I       14.01931528      12.58894387      15.66862434       0.00000748      -0.00000188       0.00001054
I       11.71293060      17.07857535      16.61456425      -0.00002180       0.00000047      -0.00000757
I       13.99440265      12.50618655      11.29963172      -0.00001229       0.00000022      -0.00000613
I       11.75189846      17.31432611      12.32491194       0.00000863      -0.00001589      -0.00002232
I       15.71276675      16.14799189      10.14083686       0.00001892       0.00002434       0.00001152
I       10.03346487      13.67253197      13.48358469       0.00001846      -0.00001399       0.00000972
H       10.31319624      12.53988049       0.88490400       0.00002736       0.00003183      -0.00002200
H       15.44707520      17.43356898      14.08090845      -0.00001179       0.00004947      -0.00002376
H        9.52029282      13.94348509       0.08949158      -0.00002958       0.00002377      -0.00001254
H       14.64263392      16.61008355      15.45892014       0.00001733       0.00001245      -0.00001386
H       11.11755551      13.36334902      -0.49316777       0.00002327       0.00000402      -0.00000310
H       16.23994900      16.02997677      14.87637257      -0.00001416      -0.00001056      -0.00001603
H       11.35721492      15.34813591       0.88114289      -0.00000107       0.00002232      -0.00000271
H       15.16422560      15.37970356      12.78436338      -0.00001496      -0.00001793       0.00000593
H       12.06700931      14.02416117       1.65529388      -0.00000240       0.00000058       0.00001042
H       13.69333008      15.94926530      13.31040908       0.00004047      -0.00002515       0.00002363
H       10.59615257      14.59374720       2.18141853       0.00002665       0.00001964      -0.00002381
H       14.40310929      14.62529875      14.08459486      -0.00002334      -0.00001737       0.00002087
C       10.47648215      13.49934236       0.38281996       0.00000057      -0.00004574       0.00004027
C       15.28377207      16.47410451      14.58297576      -0.00001808      -0.00001867       0.00006071
Pb      12.09643081      11.15858340      13.51095929       0.00001781       0.00000479      -0.00000402
Pb      16.02777578      11.14121016      13.51119653      -0.00001156      -0.00000377       0.00002024
N       11.16264003      14.42701812       1.33015889      -0.00003409      -0.00002206       0.00000877
N       14.59769003      15.54642076      13.63559149       0.00000482       0.00005917      -0.00002993
I        7.82980360      20.01807651       3.74175587       0.00003084       0.00002888      -0.00000890
I        2.44692163      24.90069420       2.93561661       0.00001652      -0.00000468       0.00000036
I        7.77232945      20.16079396       8.03211232       0.00002398       0.00001774      -0.00002130
I        2.49046136      24.60502651       7.30391632      -0.00001106       0.00000930      -0.00002430
I        6.38032397      23.61434509       5.07912631      -0.00001983      -0.00003369       0.00001196
I        3.88247000      21.15146390      10.25682666      -0.00002286       0.00002285       0.00002861
H        4.55514962      21.22758588       6.21333084       0.00001493       0.00000517      -0.00000931
H        7.27742798      24.23694585      -0.24606414      -0.00001641      -0.00000494       0.00000379
H        2.99917803      20.68175623       6.92331926       0.00003087       0.00003018      -0.00000307
H        5.72154799      23.69116451       0.46416306       0.00003197      -0.00000923      -0.00001518
H        3.67654586      19.83493749       5.49114638       0.00001638      -0.00000981       0.00000258
H        6.60021183      25.08388964       1.18611350       0.00002083       0.00002078       0.00000478
H        1.90140466      21.34855313       4.84159092      -0.00000045       0.00000119       0.00000798
H        6.94218711      23.02827042       2.47171441       0.00001451       0.00000585      -0.00001962
H        3.33469194      21.89059741       4.20564978       0.00000721       0.00002457      -0.00000765
H        8.37541165      23.57039222       1.83569603       0.00001484       0.00000422      -0.00002800
H        2.68619243      22.65993369       5.56358135      -0.00001408      -0.00000919      -0.00002390
H        7.59068408      22.25893309       1.11378365      -0.00000750       0.00000422       0.00000524
C        3.57071668      20.79994787       5.99798160      -0.00003530      -0.00001386       0.00001712
C        6.70600273      24.11883590       0.67935346      -0.00000867      -0.00001002       0.00000362
Pb       5.56057848       3.59575343       9.78531448      -0.00000287      -0.00001344      -0.00000252
Pb       1.62924793       3.61314098       9.78513935      -0.00001757       0.00000236      -0.00002323
N        2.83121189      21.73678209       5.10044705      -0.00002690      -0.00002474       0.00001318
N        7.44562111      23.18209149       1.57688923      -0.00003030      -0.00000106       0.00001938
I        6.39812766      27.62548136       7.36615812      -0.00000234      -0.00000215      -0.00001123
I        3.63764434       2.16547220       7.62763060       0.00001793      -0.00001458      -0.00004395
I        6.37311844      27.54284158       2.99716883      -0.00001058      -0.00001474       0.00000725
I        3.67668577       2.40109554       3.33797916      -0.00001019       0.00000676      -0.00000437
I        7.63753750       1.23480665       1.15400497       0.00001815       0.00000303      -0.00000374
I        2.41228000      28.70913548       5.18111286      -0.00001278      -0.00001096       0.00002533
H        2.66375575      27.27063402       9.89995003       0.00002678      -0.00000915      -0.00001904
H        6.56745633       1.69697811       6.47213534      -0.00000620       0.00001175       0.00003505
H        1.87126955      28.67417437       9.10400202       0.00000427      -0.00000254       0.00000401
H        8.16476050       1.11689976       5.88952191      -0.00002853      -0.00000872       0.00000924
H        3.46859887      28.09364950       8.52189590      -0.00002352       0.00000458      -0.00002255
H        7.37181110       2.52045454       5.09406667      -0.00002228      -0.00000769       0.00001407
H        3.70806460      30.07878303       9.89583862       0.00000043       0.00000387       0.00001774
H        5.61808005       1.03609494       4.32366510       0.00002760      -0.00001234      -0.00000559
H        4.41767766      28.75488225      10.67030537       0.00002165       0.00001139      -0.00001466
H        6.32790308      -0.28784132       5.09786357      -0.00002527       0.00000028       0.00000160
H        2.94677575      29.32464900      11.19611461       0.00000544       0.00001532      -0.00001714
H        7.08896973       0.46654089       3.79759494      -0.00001290      -0.00002048      -0.00002308
C        2.82731493      28.22995192       9.39768218      -0.00002733      -0.00000085       0.00003316
C        7.20855620       1.56099636       5.59616601       0.00002908      -0.00000445      -0.00003000
Pb       4.47519313      26.19517575       5.20848277       0.00000600       0.00001259      -0.00000605
Pb       8.40652085      26.17778976       5.20867022       0.00000693       0.00001207       0.00000345
N        3.51338011      29.15774278      10.34497379      -0.00003727      -0.00000674       0.00002536
N        6.52245460       0.63327438       4.64883218       0.00001403       0.00001840      -0.00000557
I       15.69209913      20.10947913       3.72778442       0.00000757      -0.00002160      -0.00000821
I       10.30924695      24.99199834       2.92163234      -0.00001803       0.00000420      -0.00001974
I       15.63458515      20.25209895       8.01816348      -0.00001095       0.00001211       0.00001250
I       10.35273119      24.69629073       7.28988682      -0.00001320       0.00000278       0.00001228
I       14.24258054      23.70568500       5.06515247       0.00001218      -0.00001836      -0.00001111
I       11.74466896      21.24278746      10.24286821       0.00002545      -0.00001553       0.00001715
H       12.41769383      21.31890523       6.19897762      -0.00000906       0.00001760       0.00000795
H       14.46244649      25.17527831       1.17187674       0.00000660      -0.00001304      -0.00000934
H       10.86190830      20.77341104       6.90961344      -0.00002444      -0.00000787       0.00000157
H       15.13970204      24.32819775      -0.26020198      -0.00000683      -0.00000055      -0.00000624
H       11.53874614      19.92614092       5.47744569      -0.00000108       0.00001924       0.00000244
H       13.58377062      23.78252670       0.44998477      -0.00000251      -0.00003050       0.00001062
H       11.19679767      21.98168547       4.19160873      -0.00001104      -0.00001133       0.00001603
H       14.80429664      23.11973743       2.45765275       0.00000657      -0.00001646       0.00002804
H       10.54844668      22.75116276       5.54953281       0.00000255      -0.00000132       0.00000034
H       16.23756402      23.66177321       1.82166171       0.00000521       0.00000705      -0.00000460
H        9.76363202      21.43964579       4.82782990      -0.00000406       0.00001310       0.00000772
H       15.45283729      22.35028786       1.09980631      -0.00001177       0.00001195       0.00002147
C       11.43315377      20.89129537       5.98405699       0.00001083      -0.00001189      -0.00000973
C       14.56822711      24.21018061       0.66519624       0.00001166       0.00003624       0.00004100
Pb      13.42283079       3.68707725       9.77138483       0.00002972      -0.00001550      -0.00000748
Pb       9.49151487       3.70440269       9.77114560      -0.00002311      -0.00002111       0.00001253
N       10.69345358      21.82795854       5.08650336       0.00001586      -0.00001519      -0.00001472
N       15.30777344      23.27348216       1.56284052       0.00001705      -0.00001139      -0.00003623
I       14.26034026      27.71685214       7.35216613       0.00000748      -0.00000188       0.00001054
I       11.49996200       2.25670288       7.61371624      -0.00002180       0.00000048      -0.00000756
I       14.23542763      27.63409482       2.98317351      -0.00001228       0.00000022      -0.00000613
I       11.53892986       2.49245364       3.32406393       0.00000863      -0.00001589      -0.00002232
I       15.49979815       1.32611942       1.13998885       0.00001892       0.00002434       0.00001152
I       10.27448985      28.80044024       5.16712648       0.00001845      -0.00001399       0.00000973
H       10.52616484      27.36175296       9.88575201       0.00002737       0.00003184      -0.00002199
H       15.23410660       2.61169651       5.08006044      -0.00001179       0.00004947      -0.00002377
H        9.73326142      28.76535756       9.09033959      -0.00002970       0.00002383      -0.00001258
H       14.42966532       1.78821108       6.45807213       0.00001733       0.00001245      -0.00001386
H       11.33052411      28.18522149       8.50768024       0.00002318       0.00000404      -0.00000297
H       16.02698040       1.20810430       5.87552456      -0.00001416      -0.00001056      -0.00001603
H       11.57018352      30.17000839       9.88199091      -0.00000108       0.00002221      -0.00000273
H       14.95125700       0.55783109       3.78351537      -0.00001496      -0.00001790       0.00000592
H       12.27997791      28.84603364      10.65614189      -0.00000240       0.00000058       0.00001042
H       13.48036148       1.12739283       4.30956107       0.00004048      -0.00002515       0.00002363