768
Lattice="37.083429217430535 -0.08003013535972303 -0.0037435355833300016 0.047564934283044064 22.039736117349126 0.004589441441307212 0.00191801723972071 -0.003962783231986306 19.046627203989203" Properties=species:S:1:pos:R:3:forces:R:3 energy=-3355.5418635669475 stress="-6.2880441038272545e-09 2.0636406759298142e-09 2.3835658198793216e-08 2.0636406759298142e-09 1.8000292287516764e-08 4.876782819708695e-09 2.3835658198793216e-08 4.876782819708695e-09 -4.20703773815319e-09" free_energy=-3355.5418635669475 pbc="T T T"
I       18.19515374       3.60003602       3.58231525       0.00000069      -0.00000203       0.00000004
I       18.82003511       7.41864614       1.20222964       0.00000126       0.00000725      -0.00001075
I        9.55308148       9.12861749       3.58432707      -0.00001260      -0.00000070      -0.00000540
I        8.92034851       1.93010478       1.20206360      -0.00000695      -0.00000486      -0.00000648
I       16.48123562       0.19167016       1.20093864      -0.00000679      -0.00000423      -0.00000167
I        1.99218363      10.86699630       3.58543314       0.00000844       0.00000484       0.00000336
I       11.25176806       5.71291395       1.20263196      -0.00000762       0.00000314       0.00000053
I        7.22167637       5.34578533       3.58376893       0.00000435      -0.00000516       0.00000343
I        3.56388655       3.52131851       1.20292816      -0.00000005       0.00000676      -0.00000477
I       14.90950974       7.53737116       3.58348291      -0.00000703      -0.00000107      -0.00000375
I        5.64161265       9.02682307       1.20388095       0.00000229      -0.00000637      -0.00001087
I       12.83178147       2.03181069       3.58249689       0.00000235       0.00000250      -0.00000181
H        6.01593924       2.07933095       2.68942720       0.00000251       0.00000230       0.00000330
H       12.45709407       8.97966296       0.30924309       0.00001057      -0.00000009       0.00000303
H        3.18343275       7.59546752       2.69070935       0.00001383      -0.00000602       0.00001041
H       14.06222949       4.41904467       1.20199045       0.00000014       0.00001902       0.00000365
H        4.78447960       1.12869209       3.58338206      -0.00001525       0.00000430      -0.00000605
H       13.68899085       9.92988272       1.20304755       0.00000735      -0.00000147       0.00000871
H        3.18375028       7.59513032       4.47838120      -0.00000832      -0.00000567       0.00001408
H       15.28987478       3.46351287       0.30800045      -0.00000710       0.00000037      -0.00001003
H        6.01636624       2.07900625       4.47710099      -0.00000573      -0.00000764      -0.00000475
H       12.45743975       8.97927913       2.09691579      -0.00000427       0.00000180       0.00000157
H        4.41122279       6.63960624       3.58414987       0.00000189      -0.00000423       0.00000159
H       15.28988354       3.46323798       2.09567202      -0.00000852       0.00000455      -0.00000920
H        6.57697901      10.70692874       2.75648531       0.00000384      -0.00000663      -0.00001594
H       11.92004120      11.37195873       0.37520869      -0.00001086      -0.00000007       0.00000058
H        2.63634714       5.20517649       4.41268971      -0.00000447       0.00001204      -0.00000454
H       15.83721060       5.85348618       0.37370802      -0.00001531      -0.00001008      -0.00001493
H        6.55354406      -0.31326132       4.41118796      -0.00000601       0.00000689       0.00000033
H       11.94379529      22.39133586       2.03457766       0.00002400       0.00000600       0.00001220
H        2.63608062       5.20548846       2.75568802       0.00000514      -0.00000046      -0.00000638
H       16.99950113       4.96426655       1.20205717       0.00000580       0.00000047      -0.00000679
H        7.71941700       0.57105666       3.58261559      -0.00000268      -0.00000600      -0.00000066
H       10.77781304      21.50755960       1.20557617       0.00000041      -0.00002357       0.00001619
H        1.47394397       6.09443361       3.58454470      -0.00001260      -0.00000090       0.00000687
H       15.83723219       5.85321642       2.03070986      -0.00000563      -0.00001205      -0.00000299
C        5.82118369       1.48033848       3.58320208       0.00001639       0.00001298      -0.00001515
C       12.65226806       9.57829133       1.20317031      -0.00001300      -0.00000829       0.00000751
C        3.37601938       6.99564618       3.58439828      -0.00000278       0.00000682      -0.00001432
C       15.09743975       4.06302493       1.20192889       0.00000223      -0.00001019       0.00001054
Pb       0.93540438       1.81142671       1.20283649       0.00001458       0.00000016       0.00000697
Pb      17.53800151       9.24725031       3.58354274       0.00000464      -0.00000866       0.00000635
Pb       8.26268386       7.30558999       1.20325483      -0.00000295      -0.00000973      -0.00000346
Pb      10.21075727       3.75310361       3.58315730      -0.00000647      -0.00000789      -0.00000655
N        6.72450693       0.30175474       3.58277622      -0.00000469      -0.00000092       0.00001548
N       11.74900523      10.75692133       1.20359140       0.00002867       0.00002415      -0.00000640
N        2.46770123       5.82090782       3.58433091      -0.00000096      -0.00001023       0.00000689
N       16.00573947       5.23777749       1.20210405       0.00001247       0.00000028       0.00002113
I       18.19556561       3.59902871       8.34395408       0.00000613      -0.00001216      -0.00000274
I       18.82046207       7.41764526       5.96386216      -0.00000543       0.00000561      -0.00000848
I        9.55352961       9.12763372       8.34597254      -0.00000328       0.00000720       0.00000656
I        8.92086099       1.92910370       5.96375619       0.00000724      -0.00001333      -0.00000767
I       16.48172395       0.19068305       5.96260807      -0.00000587      -0.00000266      -0.00000448
I        1.99268632      10.86602386       8.34710262       0.00000102      -0.00000154       0.00000217
I       11.25223640       5.71193147       5.96427483      -0.00000733       0.00000211       0.00000519
I        7.22216816       5.34480414       8.34544187       0.00000280       0.00000041       0.00000105
I        3.56440431       3.52035705       5.96456440       0.00000463      -0.00000462       0.00000437
I       14.90999614       7.53632934       8.34510551      -0.00001326       0.00000185       0.00000411
I        5.64206505       9.02580209       5.96553447       0.00001085      -0.00000664      -0.00000658
I       12.83232108       2.03091084       8.34421327       0.00000052       0.00000435      -0.00000156
H        6.01664428       2.07800422       9.23872096      -0.00000716       0.00000205      -0.00000486
H       12.45784447       8.97832366       6.85868417      -0.00000079       0.00000341       0.00000037
H        3.18397954       7.59453373       7.45252908       0.00000544      -0.00000022      -0.00001555
H       15.29023698       3.46214551       6.85710457       0.00001302       0.00000670       0.00000898
H        6.01665488       2.07843828       7.45104802      -0.00000253      -0.00000174      -0.00000247
H       12.45762528       8.97868649       5.07101097       0.00000073       0.00000583       0.00000674
H        3.18417029       7.59408092       9.24020180      -0.00000269      -0.00000023      -0.00001399
H       14.06262513       4.41805805       5.96348154       0.00000326       0.00000285       0.00001049
H        4.78491271       1.12782626       8.34464781      -0.00000082       0.00000161       0.00000928
H       13.68945252       9.92892475       5.96488920       0.00001378      -0.00000980       0.00000172
H        4.41171464       6.63862662       8.34599411      -0.00000171      -0.00000522      -0.00000415
H       15.29025630       3.46256547       5.06943221       0.00000080      -0.00000310      -0.00000081
H        7.74359978      11.58989403       8.34665423      -0.00001503      -0.00000238      -0.00001151
H       11.92052415      11.37096364       5.13689541       0.00000094      -0.00000404       0.00001251
H        1.47443994       6.09342684       8.34612692       0.00000906      -0.00000407       0.00000470
H       15.83762946       5.85251948       5.13534042       0.00000637       0.00000771      -0.00001498
H        6.55372929      -0.31427474       9.17281578       0.00001495       0.00000758      -0.00000196
H       11.94434058      22.39082526       5.13922882       0.00001020       0.00001851      -0.00002854
H        2.63677951       5.20415145       9.17434303       0.00000904      -0.00000719       0.00001824
H       16.99990805       4.96320574       5.96360525       0.00001589       0.00001177       0.00000439
H        7.71981502       0.57000447       8.34452150       0.00001340      -0.00000556      -0.00000519
H       11.94451375      22.39050114       6.79623253      -0.00000518      -0.00000764      -0.00001454
H        2.63665730       5.20452438       7.51734005      -0.00001346       0.00000360       0.00000398
H       15.83766133       5.85211538       6.79234132       0.00001631      -0.00000218      -0.00000899
C        5.82164024       1.47940378       8.34473773       0.00001152       0.00000743       0.00001173
C       12.65273217       9.57732628       5.96494526      -0.00000520      -0.00000165      -0.00000525
C        3.37650786       6.99465708       8.34619251       0.00000079       0.00000507       0.00003578
C       15.09782579       4.06200972       5.96340717       0.00000145      -0.00000693      -0.00000445
Pb       0.93592231       1.81045292       5.96447648       0.00000834       0.00000461       0.00001444
Pb      17.53846836       9.24624593       8.34519729       0.00000886      -0.00001803      -0.00000102
Pb       8.26315424       7.30458708       5.96490102      -0.00001127       0.00000328      -0.00000488
Pb      10.21124329       3.75214097       8.34481517      -0.00000083      -0.00001457       0.00000081
N        6.72488858       0.30076258       8.34445556      -0.00001654      -0.00000175       0.00000289
N       11.74946453      10.75595252       5.96529332       0.00000168       0.00000412      -0.00003412
N        2.46820052       5.81991070       8.34599315      -0.00002081       0.00000217      -0.00002486
N       16.00615321       5.23674083       5.96368580      -0.00000816       0.00001578       0.00001208
I       18.19609840       3.59805175      13.10562391       0.00000070      -0.00001125       0.00001555
I       18.82098332       7.41668468      10.72552035      -0.00000564       0.00000380      -0.00000977
I        9.55403651       9.12664540      13.10764525       0.00000804       0.00000766       0.00000339
I        8.92133451       1.92810181      10.72538097      -0.00000137       0.00000258      -0.00000307
I       16.48219819       0.18969100      10.72424715      -0.00000388      -0.00000871       0.00000583
I        1.99317105      10.86504621      13.10875047       0.00000392      -0.00000261       0.00000133
I       11.25271001       5.71094494      10.72595989       0.00000045       0.00000459       0.00000059
I        7.22262700       5.34381465      13.10708003       0.00000880      -0.00000275      -0.00000096
I        3.56487525       3.51937780      10.72626021      -0.00000810      -0.00000702       0.00000537
I       14.91046528       7.53541135      13.10677098      -0.00000745      -0.00000434       0.00000495
I        5.64255594       9.02485030      10.72718296       0.00000161      -0.00000495       0.00000000
I       12.83277017       2.02989498      13.10583327       0.00000880      -0.00000016       0.00001075
H        6.01705611       2.07741352      12.21270934       0.00000239      -0.00000803       0.00000740
H       12.45808605       8.97769566       9.83256697       0.00001095       0.00000099      -0.00000735
H        3.18431674       7.59355008      12.21409008       0.00000655      -0.00001476       0.00002370
H       15.29076258       3.46156535       9.83130925      -0.00000244      -0.00000619      -0.00002177
H        4.78542908       1.12680871      13.10647427      -0.00001518      -0.00000529      -0.00000723
H       13.68994842       9.92789935      10.72643534       0.00000985      -0.00000293       0.00000616
H        3.18472195       7.59314162      14.00176423       0.00000090      -0.00000877      -0.00001429
H       15.29087930       3.46127236      11.61898077       0.00000177       0.00000675      -0.00000341
H        6.01723966       2.07704041      14.00038175      -0.00000769      -0.00000024       0.00000563
H       12.45835460       8.97728875      11.62023901      -0.00000008       0.00001424      -0.00000102
H        4.41216632       6.63767381      13.10743246       0.00002268       0.00000218       0.00001026
H       14.06317705       4.41709535      10.72538146       0.00000221       0.00000158       0.00000634
H        6.57783343      10.70497343      12.27978122       0.00000635      -0.00000885      -0.00000389
H       11.92102734      11.36998848       9.89853520      -0.00001095      -0.00000082       0.00000223
H        2.63735824       5.20318798      13.93601332      -0.00001527      -0.00000574       0.00000697
H       17.00044924       4.96230912      10.72525187      -0.00000314       0.00000412       0.00000092
H        6.55431384      -0.31525751      13.93447429       0.00000883      -0.00000092       0.00001499
H       11.94499745      22.38947735      11.55784127       0.00000490      -0.00000285       0.00000122
H        2.63702117       5.20354920      12.27901252      -0.00000978       0.00000418      -0.00000497
H       15.83823978       5.85124309      11.55401333      -0.00000332       0.00000099       0.00001234
H        7.72034223       0.56903991      13.10611439      -0.00001485      -0.00001036      -0.00001391
H       10.77882435      21.50556147      10.72927645       0.00000281      -0.00000113       0.00000635
H        1.47489737       6.09244091      13.10795191       0.00002713       0.00000246      -0.00001015
H       15.83809323       5.85154206       9.89701187       0.00000788      -0.00000998      -0.00000343
C        5.82214981       1.47840537      13.10644087       0.00001084       0.00001541      -0.00001610
C       12.65322449       9.57631194      10.72650972      -0.00002125      -0.00001107       0.00001416
C        3.37695769       6.99369711      13.10774657      -0.00001895       0.00001080      -0.00000820
C       15.09838533       4.06106884      10.72525539      -0.00002395       0.00000306       0.00000837
Pb       0.93639956       1.80946707      10.72616357       0.00001118      -0.00000119      -0.00000325
Pb      17.53896731       9.24528171      13.10684671       0.00000580      -0.00000712       0.00000330
Pb       8.26364210       7.30362783      10.72657114      -0.00001579      -0.00000624      -0.00000238
Pb      10.21170384       3.75114422      13.10647005       0.00000344      -0.00001820      -0.00000465
N        6.72541980       0.29978091      13.10610588       0.00001705       0.00000689       0.00000998
N       11.74996595      10.75494533      10.72690893       0.00000846       0.00000764      -0.00000027
N        2.46866256       5.81894030      13.10767952      -0.00001182       0.00000160       0.00000388
N       16.00668726       5.23581949      10.72538658       0.00001551      -0.00000558      -0.00001720
I       18.19654641       3.59704916      17.86726686       0.00001256      -0.00000446       0.00000090
I       18.82147649       7.41568810      15.48715364      -0.00000540       0.00000271       0.00000133
I        9.55447371       9.12565590      17.86928959       0.00000363      -0.00000286       0.00001617
I        8.92180895       1.92711228      15.48706001      -0.00000004       0.00000009      -0.00000097
I       16.48269012       0.18870455      15.48592444      -0.00000757       0.00000084      -0.00000195
I        1.99363488      10.86403353      17.87041674       0.00000391       0.00000410       0.00000142
I       11.25319296       5.70995552      15.48759626      -0.00000815      -0.00000837      -0.00000841
I        7.22312892       5.34280582      17.86874286       0.00000125       0.00001447       0.00000657
I        3.56535161       3.51835632      15.48788817       0.00000888      -0.00000925       0.00000434
I       14.91102491       7.53433961      17.86844486      -0.00001477      -0.00000150      -0.00001050
I        5.64304753       9.02385590      15.48885330      -0.00001040       0.00001042      -0.00001083
I       12.83329356       2.02895101      17.86748971       0.00000315      -0.00000173      -0.00000867
H        6.01737451       2.07635535      16.97433589       0.00000198       0.00000792       0.00000425
H       13.69043636       9.92691103      15.48831709       0.00000576      -0.00000460      -0.00000698
H        3.18507751       7.59211619      18.76347700       0.00000015      -0.00000200      -0.00000347
H       14.06363412       4.41614345      15.48705990       0.00001023      -0.00000810      -0.00000036
H        4.78583792       1.12574394      17.86821362      -0.00002265      -0.00000433      -0.00000165
H       12.45880045       8.97634769      16.38211237      -0.00000362       0.00000872      -0.00000709
H        4.41267049       6.63658572      17.86941405       0.00000438      -0.00000478      -0.00000092
H       15.29113225       3.46060025      14.59287860      -0.00000868       0.00002131       0.00001202
H        6.01767806       2.07604022      18.76201101       0.00000705      -0.00000826      -0.00002456
H       12.45863254       8.97664193      14.59443981      -0.00000240      -0.00000031      -0.00001350
H        3.18503549       7.59248119      16.97580412      -0.00000842       0.00000031      -0.00000029
H       15.29136527       3.46025908      16.38055171       0.00000975      -0.00001660       0.00001141
H        6.57859617      10.70364730      18.69844555      -0.00000039       0.00000011       0.00000102
H       10.75552505      10.48469000      15.48869585      -0.00000207      -0.00000493      -0.00001052
H        2.63766594       5.20217113      18.69766530       0.00000101       0.00000987      -0.00000073
H       17.00092181       4.96126861      15.48671744       0.00001221      -0.00000579       0.00000710
H        7.72076543       0.56805981      17.86758882       0.00001454      -0.00000182       0.00001125
H       11.94537704      22.38851237      16.31954609      -0.00000380      -0.00000020       0.00000012
H        2.63761609       5.20251206      17.04066353       0.00000375      -0.00000225      -0.00000895
H       15.83881338       5.85019372      16.31563759      -0.00001535       0.00000013       0.00000042
H        6.55455682      -0.31593758      17.03916341       0.00001939       0.00001386      -0.00000671
H       10.77930916      21.50457900      15.49084024      -0.00001196       0.00000400       0.00000682
H        1.47538207       6.09145712      17.86937517      -0.00000099       0.00000827       0.00001105
H       15.83851750       5.85057834      14.65863538       0.00000709      -0.00000399      -0.00001046
C        5.82254796       1.47737145      17.86810060       0.00003437       0.00002313       0.00002293
C       12.65371469       9.57531596      15.48835593       0.00000103       0.00000051       0.00000705
C        3.37747294       6.99264301      17.86951356       0.00000188       0.00000624       0.00000276
C       15.09883162       4.06008476      15.48685563       0.00000122       0.00001620      -0.00002352
Pb       0.93685303       1.80846855      15.48780926       0.00000718       0.00000026      -0.00000811
Pb      17.53947893       9.24425994      17.86851997       0.00000730      -0.00000277       0.00000218
Pb       8.26410639       7.30262001      15.48821377      -0.00000227      -0.00000569       0.00000744
Pb      10.21220317       3.75016269      17.86812476      -0.00000555      -0.00000074       0.00000508
N        6.72585148       0.29877291      17.86773834      -0.00002581      -0.00001883      -0.00001708
N       11.75044859      10.75394341      15.48863577       0.00000330       0.00000424       0.00001294
N        2.46913622       5.81791874      17.86929733       0.00000286      -0.00001132       0.00002273
N       16.00716851       5.23480900      15.48696462       0.00000544       0.00001376       0.00000844
I       18.21891432      14.61988468       3.58457528      -0.00000273       0.00000298       0.00000226
I       18.84382592      18.43853680       1.20452426      -0.00000018      -0.00000717      -0.00000150
I        9.57690217      20.14846430       3.58665714      -0.00001952      -0.00000161      -0.00001648
I        8.94416028      12.94994882       1.20438464      -0.00000513      -0.00001225      -0.00001178
I       16.50502352      11.21152278       1.20321201      -0.00000376       0.00000870       0.00000550
I        2.01599283      21.88687915       3.58773469      -0.00000598       0.00000640       0.00000529
I       11.27554548      16.73278167       1.20492303      -0.00000543       0.00000136      -0.00000312
I        7.24548129      16.36563535       3.58608906      -0.00000432      -0.00000485      -0.00000534
I        3.58767421      14.54119791       1.20520652       0.00000552       0.00001005       0.00000651
I       14.93326942      18.55728068       3.58572854      -0.00000526      -0.00000612      -0.00000554
I        5.66540286      20.04669412       1.20619715      -0.00000078      -0.00001153      -0.00000147
I       12.85561837      13.05171270       3.58480739      -0.00000868      -0.00000504      -0.00000119
H        6.03982691      13.09921768       2.69166612       0.00000335       0.00000346      -0.00000410
H       12.48114873      19.99976371       0.31131728      -0.00002239      -0.00002374       0.00003141
H        4.43502087      17.65939956       3.58674176      -0.00000505      -0.00000158       0.00000120
H       14.08597972      15.43899333       1.20420184      -0.00000569       0.00000269       0.00001047
H        4.80821049      12.14861677       3.58544819      -0.00000151       0.00000607      -0.00000173
H       13.71272641      20.94979654       1.20574214       0.00005466       0.00001308       0.00000898
H        3.20739623      18.61534117       2.69316518       0.00000244      -0.00000667       0.00001150
H       15.31361404      14.48342271       0.31024179       0.00001515      -0.00000516      -0.00000899
H        6.04000875      13.09888070       4.47933875       0.00000335      -0.00000701      -0.00000079
H       12.48088444      19.99898207       2.09899454       0.00000661       0.00002322      -0.00002346
H        3.20745270      18.61493100       4.48083746      -0.00000198       0.00000511       0.00001614
H       15.31357618      14.48314283       2.09791501      -0.00000330       0.00001243      -0.00001809
H        6.55320288      -0.31293176       2.75418693       0.00000171       0.00000257      -0.00000990
H       11.94398657      22.39198596       0.37757748      -0.00000563      -0.00000565      -0.00002560
H        1.49772176      17.11432801       3.58671329      -0.00000380       0.00000629       0.00000391
H       15.86102979      16.87336574       0.37595877      -0.00000872       0.00000519      -0.00000524
H        6.57713421      10.70659590       4.41348662       0.00000009       0.00001443      -0.00000415
H       11.92029030      11.37157281       2.03220979      -0.00000264      -0.00000680       0.00000555
H        2.65999531      16.22500057       4.41497217       0.00000535       0.00000871       0.00000086
H       17.02326651      15.98412929       1.20437359      -0.00001498      -0.00000134      -0.00000819
H        7.74312938      11.59087313       3.58505355      -0.00000392       0.00000837      -0.00000079
H       10.75408123      10.48767152       1.20368164      -0.00001595      -0.00000770       0.00000816
H        2.65993263      16.22537989       2.75797000       0.00000350      -0.00000840      -0.00000220
H       15.86097842      16.87311758       2.03295998       0.00000924      -0.00000059       0.00001043
C        5.84492779      12.50022533       3.58540924       0.00000188       0.00000144       0.00001159
C       12.67600895      20.59819332       1.20544625      -0.00002120       0.00000257       0.00002373
C        3.39982978      18.01547647       3.58685836      -0.00000928       0.00001059      -0.00004329
C       15.12117783      15.08293802       1.20416745       0.00000628      -0.00000783       0.00001601
Pb       0.95919585      12.83129302       1.20513085      -0.00000783       0.00001396      -0.00000720
Pb      17.56179171      20.26712700       3.58584923      -0.00000734      -0.00000068      -0.00000785
Pb       8.28647023      18.32544508       1.20557913       0.00000272       0.00001551       0.00000595
Pb      10.23455912      14.77297314       3.58544405       0.00000270      -0.00000456       0.00000772
N        6.74820862      11.32160896       3.58509324       0.00001009       0.00000293       0.00000487
N       11.77273553      21.77681553       1.20582432      -0.00000013      -0.00001098      -0.00000564
N        2.49147024      16.84077000       3.58661879       0.00000143      -0.00000971       0.00001934
N       16.02951118      16.25766488       1.20436929       0.00002748      -0.00000884       0.00000799
I       18.21933762      14.61889577       8.34622714       0.00000100      -0.00000181       0.00000818
I       18.84427547      18.43752747       5.96615135      -0.00000924       0.00000245       0.00000535
I        9.57731592      20.14749179       8.34829853      -0.00000520       0.00000357       0.00000934
I        8.94462483      12.94896566       5.96602532       0.00001263       0.00000004      -0.00000811
I       16.50547885      11.21053865       5.96488185       0.00000405       0.00000787       0.00000075
I        2.01648238      21.88591231       8.34940164      -0.00000543       0.00000187      -0.00000768
I       11.27602263      16.73178907       5.96659351      -0.00000145      -0.00000168      -0.00000614
I        7.24593786      16.36466319       8.34775168       0.00000355      -0.00000504      -0.00000219
I        3.58814247      14.54021844       5.96686555       0.00000605       0.00000286      -0.00000265
I       14.93380887      18.55620663       8.34743050      -0.00000458       0.00000538      -0.00000911
I        5.66588941      20.04572027       5.96781525       0.00000955      -0.00001627      -0.00000500
I       12.85609626      13.05077491       8.34647277      -0.00000357      -0.00000889       0.00000121
H        4.80868468      12.14765538       8.34703975       0.00000687       0.00000526       0.00000328
H       13.71327199      20.94880454       5.96728638      -0.00000266      -0.00000211      -0.00000347
H        3.20773077      18.61436871       7.45472178       0.00000298       0.00000293      -0.00000792
H       15.31411243      14.48210427       6.85946901       0.00001311      -0.00000381       0.00000766
H        6.04050019      13.09794490       9.24088165      -0.00000729      -0.00000112       0.00000204
H       12.48163976      19.99818615       6.86102654      -0.00001905      -0.00000548       0.00003018
H        3.20798567      18.61400425       9.24239388      -0.00000038      -0.00000089       0.00000228
H       14.08643952      15.43793498       5.96584344      -0.00000580       0.00000956       0.00000190
H        6.04030107      13.09820909       7.45320834       0.00000711       0.00000800       0.00000070
H       12.48148503      19.99856817       5.07335331       0.00000043       0.00000371       0.00000895
H        4.43549463      17.65850104       8.34819013      -0.00000491      -0.00000595      -0.00000483
H       15.31406738      14.48243189       5.07179709      -0.00001056       0.00001325       0.00000380
H        6.55371721      -0.31388482       7.51581209       0.00000894       0.00000388       0.00001133
H       10.77835551      21.50655426       5.96767844       0.00000692      -0.00000624      -0.00000039
H        1.49821755      17.11331153       8.34850373      -0.00000348       0.00000155       0.00000230
H       15.86135524      16.87242787       5.13758497       0.00001366      -0.00000101      -0.00000252
H        6.57744645      10.70592799       7.51811322       0.00000345      -0.00001048      -0.00000555
H       11.92072062      11.37062816       6.79389835      -0.00000024       0.00001715       0.00001414
H        2.66061516      16.22404381       9.17664440      -0.00000714       0.00000012      -0.00000089
H       17.02370743      15.98317198       5.96580507       0.00002264      -0.00001008      -0.00000335
H        6.57760236      10.70564840       9.17511554      -0.00000751       0.00000046       0.00000183
H       10.75454097      10.48669908       5.96535786       0.00000304      -0.00000950       0.00000485
H        2.66036826      16.22439246       7.51964148       0.00000917      -0.00000580      -0.00000099
H       15.86148492      16.87206486       6.79458799      -0.00000047      -0.00000569      -0.00000467
C        5.84540489      12.49925569       8.34697801       0.00000275      -0.00000187       0.00002606
C       12.67655345      20.59719946       5.96730177       0.00001548       0.00000678      -0.00005074
C        3.40028897      18.01453510       8.34840792       0.00000608       0.00000416       0.00001353
C       15.12165018      15.08191691       5.96574805       0.00001088      -0.00001432      -0.00000250