320
Lattice="31.498051475414773 0.05813002179345216 0.274009451965566 -0.5028202582002688 29.458927588679703 1.8181143236740998 -0.04436334485814513 -1.0564119209466332 16.978011911209148" Properties=species:S:1:pos:R:3:forces:R:3 energy=-986.0367045743767 stress="0.0015928393968447027 -0.0004028693259545818 7.921715164124126e-06 -0.0004028693259545818 0.0037763929183257344 9.061141594843931e-05 7.921715164124126e-06 9.061141594843931e-05 0.0021130942577501657" free_energy=-986.0367045743767 pbc="T T T"
Cs       3.62458431       1.40865690       5.59957732      -0.00000597       0.00000205      -0.00000844
Cs       7.61557693       3.62172796       9.99644578      -0.00001984       0.00000788       0.00000243
Cs       3.62740488       8.97381327       1.81124296      -0.00004207       0.00000425       0.00000920
Cs       7.38350930      11.31392803       6.20472424      -0.00002046      -0.00000106      -0.00001528
Cs      11.49899141       1.42301872       5.66805242      -0.00000267       0.00002299      -0.00001185
Cs      15.48993143       3.63618129      10.06484358       0.00001984      -0.00000662       0.00001158
Cs      11.50184700       8.98840629       1.87975167       0.00000371       0.00001621      -0.00000167
Cs      15.25795507      11.32858865       6.27325150       0.00000577      -0.00001729      -0.00001451
Pb       4.80185338      13.42190710      10.57562564      -0.00002125      -0.00000491       0.00001394
Pb       8.74326016      13.42738100      10.62420618      -0.00000912      -0.00001591       0.00001701
Pb       6.18671357       6.33781075       5.92943646      -0.00006010       0.00003402       0.00000373
Pb       2.24530024       6.33230516       5.88075729       0.00000262       0.00000498      -0.00001070
Pb      12.67636789      13.43638533      10.64407152       0.00005374      -0.00002166      -0.00000554
Pb      16.61777535      13.44195008      10.69274537      -0.00000088      -0.00002729       0.00000732
Pb      14.06122136       6.35236482       5.99785109       0.00003623      -0.00001276      -0.00000741
Pb      10.11981560       6.34683232       5.94923053       0.00000908       0.00000677       0.00001020
I        6.95162822       0.20473867       3.57995621      -0.00001238       0.00000438       0.00000794
I        4.31063910       5.35355365       3.52707634      -0.00000615      -0.00001013       0.00000589
I        6.98597588       0.33249573       7.70159363       0.00002342      -0.00002453      -0.00003528
I        4.25398368       4.69791375       7.89453109      -0.00002081       0.00001547      -0.00001586
I        8.23934110       3.79247883       5.53108868       0.00000053      -0.00001472      -0.00002829
I        3.00060202       1.23775691      10.06499611       0.00002605       0.00000949       0.00000746
I        8.19708019       7.28516327       8.33440056       0.00000930       0.00000036      -0.00000750
I        2.79153239      12.47472203       8.17055931       0.00002331      -0.00001531      -0.00000302
I        8.20997393       8.00165080       3.97162976       0.00004254       0.00000514      -0.00000011
I        2.80070249      12.28615155       4.04426715       0.00001411       0.00000255      -0.00000466
I        6.71654023      10.87965376      10.20987852       0.00001027      -0.00000123       0.00001361
I        4.27198315       8.88008399       6.29499933       0.00002189      -0.00003000       0.00000391
I       14.82602414       0.21939418       3.64838316      -0.00000196      -0.00000537      -0.00001226
I       12.18508862       5.36815592       3.59547738      -0.00001427      -0.00001416       0.00000031
I       14.86050613       0.34686485       7.76994435      -0.00001208       0.00000919       0.00000897
I       12.12851954       4.71238911       7.96289848      -0.00005008      -0.00001459       0.00000953
I       16.11386087       3.80702368       5.59951565      -0.00000406       0.00001130      -0.00001025
I       10.87514828       1.25224639      10.13339276       0.00001230       0.00003261       0.00001813
I       16.07152324       7.29966063       8.40287691       0.00000696      -0.00000140       0.00001890
I       10.66603991      12.48907339       8.23904674      -0.00000469       0.00002012       0.00000959
I       16.08456515       8.01623318       4.04014314       0.00001716      -0.00000656       0.00001841
I       10.67523655      12.30068431       4.11276008      -0.00000871       0.00000270       0.00001435
I       14.59111784      10.89415286      10.27848106      -0.00002726       0.00000822      -0.00000184
I       12.14649630       8.89459263       6.36352061       0.00000598       0.00002473      -0.00001790
Cs       3.60240264       0.88045094      14.08858328      -0.00000596       0.00000205      -0.00000844
Cs       7.63775860       4.14993392       1.50743982      -0.00001983       0.00000789       0.00000243
Cs       3.60522321       8.44560731      10.30024892      -0.00004207       0.00000425       0.00000920
Cs       7.36132763      10.78572207      14.69373020      -0.00002046      -0.00000106      -0.00001528
Cs      11.47680974       0.89481276      14.15705838      -0.00000267       0.00002298      -0.00001185
Cs      15.51211310       4.16438725       1.57583762       0.00001984      -0.00000661       0.00001158
Cs      11.47966533       8.46020033      10.36875763       0.00000371       0.00001621      -0.00000168
Cs      15.23577340      10.80038269      14.76225746       0.00000577      -0.00001729      -0.00001452
Pb       4.82403505      13.95011306       2.08661968      -0.00002125      -0.00000491       0.00001395
Pb       8.76544183      13.95558696       2.13520022      -0.00000912      -0.00001591       0.00001703
Pb       6.16453190       5.80960479      14.41844242      -0.00006010       0.00003402       0.00000372
Pb       2.22311857       5.80409920      14.36976325       0.00000262       0.00000498      -0.00001070
Pb      12.69854956      13.96459129       2.15506556       0.00005374      -0.00002166      -0.00000552
Pb      16.63995702      13.97015604       2.20373941      -0.00000087      -0.00002730       0.00000734
Pb      14.03903969       5.82415886      14.48685705       0.00003624      -0.00001276      -0.00000740
Pb      10.09763393       5.81862636      14.43823649       0.00000908       0.00000677       0.00001020
I        6.92944655      -0.32346729      12.06896217      -0.00001238       0.00000437       0.00000791
I        4.28845743       4.82534769      12.01608230      -0.00000615      -0.00001013       0.00000589
I        6.96379421      -0.19571023      16.19059959       0.00002341      -0.00002453      -0.00003528
I        4.23180201       4.16970779      16.38353705      -0.00002081       0.00001547      -0.00001586
I        8.21715943       3.26427287      14.02009464       0.00000053      -0.00001472      -0.00002829
I        3.02278369       1.76596287       1.57599015       0.00002605       0.00000950       0.00000746
I        8.17489852       6.75695731      16.82340652       0.00000930       0.00000036      -0.00000751
I        2.76935072      11.94651607      16.65956527       0.00002329      -0.00001531      -0.00000303
I        8.18779226       7.47344484      12.46063572       0.00004254       0.00000515      -0.00000011
I        2.77852082      11.75794559      12.53327311       0.00001411       0.00000256      -0.00000467
I        6.73872190      11.40785972       1.72087256       0.00001027      -0.00000123       0.00001361
I        4.24980148       8.35187803      14.78400529       0.00002189      -0.00003000       0.00000391
I       14.80384247      -0.30881178      12.13738912      -0.00000197      -0.00000537      -0.00001228
I       12.16290695       4.83994996      12.08448334      -0.00001427      -0.00001416       0.00000031
I       14.83832446      -0.18134111      16.25895031      -0.00001209       0.00000919       0.00000897
I       12.10633787       4.18418315      16.45190444      -0.00005008      -0.00001459       0.00000952
I       16.09167920       3.27881772      14.08852161      -0.00000406       0.00001130      -0.00001026
I       10.89732995       1.78045235       1.64438680       0.00001230       0.00003262       0.00001813
I       16.04934157       6.77145467      16.89188287       0.00000697      -0.00000140       0.00001888
I       10.64385824      11.96086743      16.72805270      -0.00000470       0.00002011       0.00000956
I       16.06238348       7.48802722      12.52914910       0.00001716      -0.00000656       0.00001840
I       10.65305488      11.77247835      12.60176604      -0.00000872       0.00000271       0.00001435
I       14.61329951      11.42235882       1.78947510      -0.00002726       0.00000822      -0.00000184
I       12.12431463       8.36638667      14.85252657       0.00000598       0.00002473      -0.00001790
Cs       3.37317418      16.13812069       6.50863448      -0.00000597       0.00000205      -0.00000844
Cs       7.36416680      18.35119175      10.90550294      -0.00001984       0.00000789       0.00000243
Cs       3.37599475      23.70327706       2.72030012      -0.00004207       0.00000425       0.00000920
Cs       7.13209917      26.04339182       7.11378140      -0.00002046      -0.00000106      -0.00001528
Cs      11.24758128      16.15248251       6.57710958      -0.00000267       0.00002298      -0.00001185
Cs      15.23852130      18.36564508      10.97390074       0.00001984      -0.00000661       0.00001158
Cs      11.25043687      23.71787008       2.78880883       0.00000371       0.00001621      -0.00000168
Cs      15.00654494      26.05805244       7.18230866       0.00000577      -0.00001729      -0.00001451
Pb       4.55044325      28.15137089      11.48468280      -0.00002125      -0.00000489       0.00001394
Pb       8.49185003      28.15684479      11.53326334      -0.00000912      -0.00001589       0.00001702
Pb       5.93530344      21.06727454       6.83849362      -0.00006010       0.00003402       0.00000373
Pb       1.99389011      21.06176895       6.78981445       0.00000262       0.00000498      -0.00001068
Pb      12.42495776      28.16584912      11.55312868       0.00005374      -0.00002164      -0.00000553
Pb      16.36636522      28.17141387      11.60180253      -0.00000089      -0.00002729       0.00000734
Pb      13.80981123      21.08182861       6.90690825       0.00003623      -0.00001276      -0.00000741
Pb       9.86840547      21.07629611       6.85828769       0.00000908       0.00000677       0.00001020
I        6.70021809      14.93420246       4.48901337      -0.00001238       0.00000438       0.00000794
I        4.05922897      20.08301744       4.43613350      -0.00000615      -0.00001013       0.00000589
I        6.73456575      15.06195952       8.61065079       0.00002343      -0.00002452      -0.00003529
I        4.00257355      19.42737754       8.80358825      -0.00002081       0.00001547      -0.00001586
I        7.98793097      18.52194262       6.44014584       0.00000053      -0.00001472      -0.00002829
I        2.74919189      15.96722070      10.97405327       0.00002605       0.00000951       0.00000746
I        7.94567006      22.01462706       9.24345772       0.00000930       0.00000036      -0.00000750
I        2.54012226      27.20418582       9.07961647       0.00002330      -0.00001531      -0.00000301
I        7.95856380      22.73111459       4.88068692       0.00004254       0.00000515      -0.00000011
I        2.54929236      27.01561534       4.95332431       0.00001412       0.00000254      -0.00000465
I        6.46513010      25.60911755      11.11893568       0.00001027      -0.00000122       0.00001361
I        4.02057302      23.60954778       7.20405649       0.00002190      -0.00003000       0.00000391
I       14.57461401      14.94885797       4.55744032      -0.00000195      -0.00000536      -0.00001226
I       11.93367849      20.09761971       4.50453454      -0.00001427      -0.00001416       0.00000031
I       14.60909600      15.07632864       8.67900151      -0.00001208       0.00000920       0.00000897
I       11.87710941      19.44185290       8.87195564      -0.00005008      -0.00001459       0.00000953
I       15.86245074      18.53648747       6.50857281      -0.00000406       0.00001132      -0.00001025
I       10.62373815      15.98171018      11.04244992       0.00001231       0.00003264       0.00001813
I       15.82011311      22.02912442       9.31193407       0.00000696      -0.00000139       0.00001890
I       10.41462978      27.21853718       9.14810390      -0.00000469       0.00002012       0.00000959
I       15.83315502      22.74569697       4.94920030       0.00001716      -0.00000656       0.00001840
I       10.42382642      27.03014810       5.02181724      -0.00000871       0.00000270       0.00001436
I       14.33970771      25.62361665      11.18753822      -0.00002726       0.00000822      -0.00000184
I       11.89508617      23.62405642       7.27257777       0.00000598       0.00002473      -0.00001790
Cs       3.35099251      15.60991473      14.99764044      -0.00000597       0.00000205      -0.00000844
Cs       7.38634847      18.87939771       2.41649699      -0.00001983       0.00000789       0.00000243
Cs       3.35381308      23.17507110      11.20930608      -0.00004207       0.00000425       0.00000920
Cs       7.10991750      25.51518586      15.60278736      -0.00002046      -0.00000106      -0.00001528
Cs      11.22539961      15.62427655      15.06611554      -0.00000267       0.00002299      -0.00001185
Cs      15.26070297      18.89385104       2.48489479       0.00001984      -0.00000661       0.00001158
Cs      11.22825520      23.18966412      11.27781479       0.00000371       0.00001621      -0.00000168
Cs      14.98436327      25.52984648      15.67131462       0.00000577      -0.00001729      -0.00001451
Pb       4.57262492      28.67957685       2.99567685      -0.00002124      -0.00000489       0.00001392
Pb       8.51403170      28.68505075       3.04425739      -0.00000911      -0.00001589       0.00001700
Pb       5.91312177      20.53906858      15.32749958      -0.00006010       0.00003402       0.00000372
Pb       1.97170844      20.53356299      15.27882041       0.00000262       0.00000498      -0.00001070
Pb      12.44713943      28.69405508       3.06412273       0.00005374      -0.00002164      -0.00000556
Pb      16.38854689      28.69961983       3.11279658      -0.00000088      -0.00002729       0.00000731
Pb      13.78762956      20.55362265      15.39591421       0.00003624      -0.00001276      -0.00000740
Pb       9.84622380      20.54809015      15.34729365       0.00000908       0.00000677       0.00001020
I        6.67803642      14.40599650      12.97801933      -0.00001238       0.00000438       0.00000793
I        4.03704730      19.55481148      12.92513946      -0.00000615      -0.00001013       0.00000589
I        6.71238408      14.53375356      17.09965675       0.00002342      -0.00002451      -0.00003530
I        3.98039188      18.89917158      17.29259421      -0.00002081       0.00001547      -0.00001586
I        7.96574930      17.99373666      14.92915180       0.00000053      -0.00001472      -0.00002829
I        2.77137356      16.49542666       2.48504732       0.00002605       0.00000952       0.00000746
I        7.92348839      21.48642110      17.73246368       0.00000930       0.00000036      -0.00000751
I        2.51794059      26.67597986      17.56862243       0.00002330      -0.00001531      -0.00000302
I        7.93638213      22.20290863      13.36969288       0.00004254       0.00000515      -0.00000011
I        2.52711069      26.48740938      13.44233027       0.00001411       0.00000255      -0.00000466
I        6.48731177      26.13732351       2.62992973       0.00001027      -0.00000122       0.00001361
I        3.99839135      23.08134182      15.69306245       0.00002189      -0.00003000       0.00000391
I       14.55243234      14.42065201      13.04644628      -0.00000196      -0.00000536      -0.00001226
I       11.91149682      19.56941375      12.99354050      -0.00001427      -0.00001416       0.00000031
I       14.58691433      14.54812268      17.16800747      -0.00001208       0.00000921       0.00000895
I       11.85492774      18.91364694      17.36096160      -0.00005008      -0.00001459       0.00000952
I       15.84026907      18.00828151      14.99757877      -0.00000406       0.00001130      -0.00001026
I       10.64591982      16.50991614       2.55344397       0.00001231       0.00003264       0.00001812
I       15.79793144      21.50091846      17.80094003       0.00000697      -0.00000140       0.00001888
I       10.39244811      26.69033122      17.63710986      -0.00000470       0.00002012       0.00000959
I       15.81097335      22.21749101      13.43820626       0.00001715      -0.00000656       0.00001840
I       10.40164475      26.50194214      13.51082320      -0.00000871       0.00000271       0.00001434
I       14.36188938      26.15182261       2.69853227      -0.00002726       0.00000822      -0.00000184
I       11.87290450      23.09585046      15.76158373       0.00000598       0.00002473      -0.00001790
Cs      19.37361005       1.43772191       5.73658205      -0.00000597       0.00000205      -0.00000844
Cs      23.36460267       3.65079297      10.13345051      -0.00001984       0.00000789       0.00000242
Cs      19.37643062       9.00287828       1.94824769      -0.00004207       0.00000425       0.00000920
Cs      23.13253504      11.34299304       6.34172897      -0.00002046      -0.00000106      -0.00001528
Cs      27.24801715       1.45208373       5.80505715      -0.00000267       0.00002299      -0.00001185
Cs      31.23895717       3.66524630      10.20184831       0.00001984      -0.00000661       0.00001157
Cs      27.25087274       9.01747130       2.01675640       0.00000371       0.00001621      -0.00000168
Cs      31.00698081      11.35765366       6.41025623       0.00000577      -0.00001729      -0.00001452
Pb      20.55087912      13.45097211      10.71263037      -0.00002125      -0.00000489       0.00001392
Pb      24.49228590      13.45644601      10.76121091      -0.00000911      -0.00001589       0.00001699
Pb      21.93573931       6.36687576       6.06644119      -0.00006010       0.00003402       0.00000372
Pb      17.99432598       6.36137017       6.01776202       0.00000261       0.00000498      -0.00001070
Pb      28.42539363      13.46545034      10.78107625       0.00005373      -0.00002165      -0.00000556
Pb       0.86874961      13.41288507      10.55574064      -0.00000087      -0.00002730       0.00000733
Pb      29.81024710       6.38142983       6.13485582       0.00003623      -0.00001276      -0.00000742
Pb      25.86884134       6.37589733       6.08623526       0.00000908       0.00000677       0.00001020
I       22.70065396       0.23380368       3.71696094      -0.00001238       0.00000438       0.00000792
I       20.05966484       5.38261866       3.66408107      -0.00000615      -0.00001013       0.00000589
I       22.73500162       0.36156074       7.83859836       0.00002342      -0.00002451      -0.00003530
I       20.00300942       4.72697876       8.03153582      -0.00002081       0.00001547      -0.00001586
I       23.98836684       3.82154384       5.66809341       0.00000053      -0.00001472      -0.00002829
I       18.74962776       1.26682192      10.20200084       0.00002604       0.00000950       0.00000746
I       23.94610593       7.31422828       8.47140529       0.00000930       0.00000036      -0.00000751
I       18.54055813      12.50378704       8.30756404       0.00002330      -0.00001531      -0.00000302
I       23.95899967       8.03071581       4.10863449       0.00004254       0.00000515      -0.00000011
I       18.54972823      12.31521656       4.18127188       0.00001411       0.00000256      -0.00000467
I       22.46556597      10.90871877      10.34688325       0.00001027      -0.00000122       0.00001361
I       20.02100889       8.90914900       6.43200406       0.00002189      -0.00003000       0.00000391
I       30.57504988       0.24845919       3.78538789      -0.00000196      -0.00000537      -0.00001227
I       27.93411436       5.39722093       3.73248211      -0.00001427      -0.00001416       0.00000031
I       30.60953187       0.37592986       7.90694908      -0.00001208       0.00000920       0.00000896
I       27.87754528       4.74145412       8.09990321      -0.00005008      -0.00001459       0.00000952
I        0.36483513       3.77795867       5.46251092      -0.00000406       0.00001130      -0.00001025
I       26.62417402       1.28131140      10.27039749       0.00001231       0.00003264       0.00001813
I        0.32249750       7.27059562       8.26587218       0.00000697      -0.00000139       0.00001891
I       26.41506565      12.51813840       8.37605147      -0.00000469       0.00002012       0.00000958
I        0.33553941       7.98716817       3.90313841       0.00001716      -0.00000657       0.00001841
I       26.42426229      12.32974932       4.24976481      -0.00000871       0.00000271       0.00001434
I       30.34014358      10.92321787      10.41548579      -0.00002727       0.00000821      -0.00000184
I       27.89552204       8.92365764       6.50052534       0.00000598       0.00002473      -0.00001790
Cs      19.35142838       0.90951595      14.22558800      -0.00000597       0.00000205      -0.00000844
Cs      23.38678434       4.17899893       1.64444455      -0.00001984       0.00000789       0.00000243
Cs      19.35424895       8.47467232      10.43725364      -0.00004207       0.00000425       0.00000920
Cs      23.11035337      10.81478708      14.83073492      -0.00002046      -0.00000106      -0.00001527
Cs      27.22583548       0.92387777      14.29406310      -0.00000267       0.00002298      -0.00001185
Cs      31.26113884       4.19345226       1.71284235       0.00001984      -0.00000661       0.00001158
Cs      27.22869107       8.48926534      10.50576235       0.00000371       0.00001621      -0.00000168
Cs      30.98479914      10.82944770      14.89926218       0.00000577      -0.00001729      -0.00001451
Pb      20.57306079      13.97917807       2.22362441      -0.00002125      -0.00000489       0.00001395
Pb      24.51446757      13.98465197       2.27220495      -0.00000911      -0.00001590       0.00001702
Pb      21.91355764       5.83866980      14.55544714      -0.00006010       0.00003402       0.00000373
Pb      17.97214431       5.83316421      14.50676797       0.00000261       0.00000498      -0.00001068
Pb      28.44757530      13.99365630       2.29207029       0.00005373      -0.00002165      -0.00000553
Pb       0.89093128      13.94109103       2.06673469      -0.00000088      -0.00002730       0.00000733
Pb      29.78806543       5.85322387      14.62386177       0.00003623      -0.00001276      -0.00000740
Pb      25.84665967       5.84769137      14.57524121       0.00000908       0.00000677       0.00001020
I       22.67847229      -0.29440228      12.20596689      -0.00001238       0.00000439       0.00000795
I       20.03748317       4.85441270      12.15308702      -0.00000615      -0.00001013       0.00000589
I       22.71281995      -0.16664522      16.32760431       0.00002342      -0.00002452      -0.00003529
I       19.98082775       4.19877280      16.52054177      -0.00002080       0.00001547      -0.00001585
I       23.96618517       3.29333788      14.15709936       0.00000053      -0.00001472      -0.00002829
I       18.77180943       1.79502788       1.71299488       0.00002604       0.00000950       0.00000746
I       23.92392426       6.78602232      16.96041124       0.00000930       0.00000036      -0.00000750
I       18.51837646      11.97558108      16.79656999       0.00002330      -0.00001531      -0.00000301
I       23.93681800       7.50250985      12.59764044       0.00004254       0.00000515      -0.00000011
I       18.52754656      11.78701060      12.67027783       0.00001411       0.00000255      -0.00000465
I       22.48774764      11.43692473       1.85787729       0.00001027      -0.00000122       0.00001361
I       19.99882722       8.38094304      14.92101001       0.00002190      -0.00003000       0.00000391
I       30.55286821      -0.27974677      12.27439384      -0.00000196      -0.00000536      -0.00001224
I       27.91193269       4.86901497      12.22148806      -0.00001427      -0.00001416       0.00000031
I       30.58735020      -0.15227610      16.39595503      -0.00001208       0.00000920       0.00000897
I       27.85536361       4.21324816      16.58890916      -0.00005009      -0.00001459       0.00000953
I        0.34265346       3.24975271      13.95151688      -0.00000406       0.00001130      -0.00001025
I       26.64635569       1.80951736       1.78139153       0.00001231       0.00003264       0.00001813
I        0.30031583       6.74238966      16.75487814       0.00000696      -0.00000140       0.00001889
I       26.39288398      11.98993244      16.86505742      -0.00000470       0.00002012       0.00000959
I        0.31335774       7.45896221      12.39214437       0.00001717      -0.00000656       0.00001840
I       26.40208062      11.80154336      12.73877076      -0.00000871       0.00000270       0.00001436
I       30.36232525      11.45142383       1.92647983      -0.00002727       0.00000822      -0.00000184
I       27.87334037       8.39545168      14.98953129       0.00000598       0.00002473      -0.00001790
Cs      19.12219992      16.16718571       6.64563921      -0.00000596       0.00000205      -0.00000844
Cs      23.11319254      18.38025677      11.04250767      -0.00001983       0.00000788       0.00000242
Cs      19.12502049      23.73234208       2.85730485      -0.00004207       0.00000425       0.00000920
Cs      22.88112491      26.07245684       7.25078613      -0.00002046      -0.00000106      -0.00001528
Cs      26.99660702      16.18154753       6.71411431      -0.00000267       0.00002298      -0.00001185
Cs      30.98754704      18.39471010      11.11090547       0.00001984      -0.00000662       0.00001157
Cs      26.99946261      23.74693510       2.92581356       0.00000371       0.00001622      -0.00000168
Cs      30.75557068      26.08711746       7.31931339       0.00000577      -0.00001729      -0.00001451
Pb      20.29946899      28.18043591      11.62168753      -0.00002126      -0.00000491       0.00001394
Pb      24.24087577      28.18590981      11.67026807      -0.00000911      -0.00001592       0.00001701
Pb      21.68432918      21.09633956       6.97549835      -0.00006010       0.00003401       0.00000372
Pb      17.74291585      21.09083397       6.92681918       0.00000261       0.00000496      -0.00001070
Pb      28.17398350      28.19491414      11.69013341       0.00005373      -0.00002167      -0.00000555
Pb       0.61733948      28.14234886      11.46479781      -0.00000086      -0.00002729       0.00000731
Pb      29.55883697      21.11089363       7.04391298       0.00003623      -0.00001277      -0.00000740
Pb      25.61743121      21.10536113       6.99529242       0.00000908       0.00000677       0.00001020
I       22.44924383      14.96326748       4.62601810      -0.00001238       0.00000437       0.00000792
I       19.80825471      20.11208246       4.57313823      -0.00000615      -0.00001013       0.00000589
I       22.48359149      15.09102454       8.74765552       0.00002342      -0.00002453      -0.00003528
I       19.75159929      19.45644256       8.94059298      -0.00002081       0.00001547      -0.00001586
I       23.73695671      18.55100764       6.57715057       0.00000053      -0.00001472      -0.00002829
I       18.49821763      15.99628572      11.11105800       0.00002604       0.00000949       0.00000746
I       23.69469580      22.04369208       9.38046245       0.00000930       0.00000036      -0.00000751
I       18.28914800      27.23325084       9.21662120       0.00002330      -0.00001531      -0.00000302
I       23.70758954      22.76017961       5.01769165       0.00004254       0.00000515      -0.00000011
I       18.29831810      27.04468036       5.09032904       0.00001412       0.00000254      -0.00000465
I       22.21415584      25.63818257      11.25594041       0.00001027      -0.00000123       0.00001361
I       19.76959876      23.63861280       7.34106122       0.00002189      -0.00003000       0.00000391
I       30.32363975      14.97792299       4.69444505      -0.00000196      -0.00000537      -0.00001227
I       27.68270423      20.12668473       4.64153927      -0.00001427      -0.00001416       0.00000031
I       30.35812174      15.10539366       8.81600624      -0.00001208       0.00000919       0.00000897
I       27.62613515      19.47091792       9.00896037      -0.00005009      -0.00001459       0.00000952
I        0.11342500      18.50742246       6.37156809      -0.00000406       0.00001131      -0.00001026
I       26.37276389      16.01077520      11.17945465       0.00001231       0.00003261       0.00001813
I        0.07108737      22.00005941       9.17492935       0.00000697      -0.00000140       0.00001888
I       26.16365552      27.24760220       9.28510863      -0.00000469       0.00002012       0.00000958
I        0.08412928      22.71663196       4.81219558       0.00001716      -0.00000655       0.00001839
I       26.17285216      27.05921312       5.15882197      -0.00000871       0.00000270       0.00001435
I       30.08873345      25.65268167      11.32454295      -0.00002727       0.00000820      -0.00000184
I       27.64411191      23.65312144       7.40958250       0.00000599       0.00002473      -0.00001790