768
Lattice="31.44907051976841 0.365171960951608 -0.055855885419994714 0.45399357994295997 29.949780747638037 0.6843898095014016 -0.02805637531551095 -0.30603580234294103 17.31730621775573" Properties=species:S:1:pos:R:3:forces:R:3 energy=-3352.305405274354 stress="0.0013913670345071264 0.0007674017374007824 0.0003372010785233457 0.0007674017374007824 0.0027376394726894193 2.9294302932394048e-05 0.0003372010785233457 2.9294302932394048e-05 0.0027434146968362736" free_energy=-3352.305405274354 pbc="T T T"
I        7.35699574       4.97835807       3.55359741      -0.00000150      -0.00000220       0.00000185
I        1.97420268       9.86100731       2.74745304      -0.00000467      -0.00000176       0.00000015
I        7.29955091       5.12107785       7.84397628       0.00000713       0.00000372      -0.00000821
I        2.01768731       9.56525341       7.11572955      -0.00000116       0.00000306       0.00000387
I        5.90756455       8.57462064       4.89095891       0.00000383      -0.00000364       0.00000059
I        3.40965885       6.11173304      10.06872539      -0.00000168      -0.00000297       0.00000013
H        4.08255925       6.18788965       6.02485453      -0.00000792       0.00000068       0.00000196
H        6.79051720       9.04408030       8.22432462      -0.00000446       0.00000197       0.00000968
H        2.52675667       5.64233522       6.73541005      -0.00000930      -0.00001075       0.00000392
H        5.23468475       8.49843188       8.93474581      -0.00000250      -0.00000452      -0.00000320
H        3.20367330       4.79512359       5.30324570       0.00000801       0.00000490       0.00000261
H        6.80448618       9.19712319      -0.43431802       0.00000464       0.00000080       0.00000306
H        1.42852901       6.30862484       4.65364501       0.00001325       0.00001549       0.00000171
H        6.45545404       7.83564402      10.94223321      -0.00000620      -0.00000202      -0.00000022
H        2.86170223       6.85066047       4.01743783       0.00001286       0.00000153      -0.00002153
H        7.88864682       8.37770215      10.30608984      -0.00000250       0.00000197      -0.00000557
H        2.21334475       7.62013261       5.37536325       0.00000749      -0.00000333      -0.00001056
H        7.10386203       7.06620626       9.58431427      -0.00000661       0.00000275       0.00000417
C        3.09803903       5.76026022       5.80988136       0.00001400       0.00000229      -0.00000582
C        6.23316751       9.07911936       0.49117856       0.00000224      -0.00000528      -0.00000560
Pb       5.54175086      18.50578432      10.28155291      -0.00000505       0.00000091      -0.00000612
Pb       1.61041411      18.52313977      10.28132434      -0.00000297      -0.00000506      -0.00000744
N        2.35835117       6.69693146       4.91232674      -0.00003985      -0.00000252       0.00003401
N        6.95883563       7.98939683      10.04736571      -0.00000157      -0.00000117      -0.00000497
I        5.92534315      12.58575292       7.17802665      -0.00000069      -0.00000120       0.00000620
I        3.61885755      17.07545506       8.12385613      -0.00000017       0.00000991      -0.00000260
I        5.90036033      12.50311101       2.80902914      -0.00000692      -0.00000334      -0.00000350
I        3.65788377      17.31116589       3.83420030       0.00000152      -0.00000069       0.00000028
I        7.61875215      16.14486337       1.65022512      -0.00000650      -0.00000525       0.00000862
I        1.93949500      13.66940447       4.99300848      -0.00000400       0.00000051       0.00000433
H        2.20514889      12.38384856       1.05298944       0.00000238      -0.00001660       0.00000331
H        6.54858587      16.60704724       6.96830269       0.00000789      -0.00000153      -0.00000340
H        2.99569487      13.05404766       8.33368286      -0.00001953       0.00000235       0.00001596
H        8.14589239      16.02689667       6.38577163       0.00001529      -0.00000350       0.00000854
H        2.19111510      12.23078614       9.71174468       0.00000072      -0.00000700       0.00000563
H        7.35301268      17.43044578       5.59023155      -0.00000435      -0.00000865       0.00000035
H        2.48807103      14.43777688       2.34940727       0.00000149       0.00000262       0.00000627
H        6.30903202      14.62217615       5.59410521      -0.00000489      -0.00000650       0.00000315
H        3.23515349      15.03903487       9.70775752       0.00000842       0.00001561      -0.00000953
H        7.07015389      15.37648292       4.29382753       0.00000554       0.00000177      -0.00000315
H        3.95895253      13.86814339       1.82340076       0.00000486      -0.00000521       0.00001081
H        5.59926586      15.94609916       4.81983220       0.00000671       0.00000261       0.00000019
C        2.35448888      13.19017570       9.20955457       0.00003361       0.00000913      -0.00003228
C        7.18971449      16.47101096       6.09236103      -0.00001516       0.00001155      -0.00000562
Pb       4.00242873      11.15544238       5.02033540      -0.00000023      -0.00000156      -0.00000134
Pb       7.93375983      11.13806930       5.02055263       0.00000169      -0.00000111      -0.00000400
N        3.05460562      14.27099190       1.49819409      -0.00002374      -0.00002881      -0.00002423
N        6.50362061      15.54326932       5.14504116      -0.00000834       0.00001278      -0.00000703
I       15.21926017       5.06963976       3.53962638      -0.00000308      -0.00000024       0.00000118
I        9.83647936       9.95228496       2.73349867      -0.00000035       0.00000061       0.00000402
I       15.16183030       5.21239180       7.82998276      -0.00000391      -0.00000260       0.00000246
I        9.87994430       9.65655898       7.10177888      -0.00000447      -0.00000369      -0.00000169
I       13.76981569       8.66590988       4.87701088       0.00001196       0.00000413      -0.00000123
I       11.27194247       6.20304490      10.05475903       0.00000390       0.00000071       0.00000333
H       11.06600767       4.88642409       5.28921719       0.00000275      -0.00000295       0.00000551
H       13.09701558       8.58979649       8.92062132      -0.00001137      -0.00000913       0.00000101
H       11.94479799       6.27916991       6.01098077       0.00000370       0.00000756       0.00000163
H       13.97572005       9.98250920       9.64255590      -0.00000476      -0.00001279      -0.00000724
H       10.38897352       5.73349931       6.72140437       0.00000361       0.00000682      -0.00001042
H       13.98977001      10.13549080       0.98387292       0.00000233      -0.00000116       0.00000056
H       10.07562544       7.71141387       5.36145112      -0.00000099       0.00000160       0.00000491
H       15.75083797       8.46896513      10.29222725      -0.00000865      -0.00000731      -0.00001792
H        9.29081485       6.39993081       4.63968104       0.00000214       0.00000358      -0.00000618
H       14.96608729       7.15751458       9.57032756      -0.00000070      -0.00000957       0.00000340
H       10.72399966       6.94198233       4.00351250      -0.00000517       0.00000409      -0.00000642
H       14.31758056       7.92690433      10.92822285       0.00000003      -0.00000512       0.00000751
C       10.96030715       5.85151887       5.79591872      -0.00002380      -0.00000028      -0.00000391
C       14.09546964       9.17038165       0.47719850      -0.00001125      -0.00000713       0.00000112
Pb      13.40401624      18.59708753      10.26760674       0.00000963       0.00000284      -0.00001002
Pb       9.47268817      18.61445417      10.26739750       0.00000312      -0.00000554      -0.00000440
N       10.22063409       6.78822622       4.89838857       0.00000750      -0.00000715       0.00001021
N       14.82104012       8.08068754      10.03340679       0.00001559       0.00000164       0.00000602
I       13.78761101      12.67706993       7.16405574       0.00000181      -0.00000024       0.00000184
I       11.48111241      17.16678084       8.10991022       0.00000754      -0.00000150       0.00000555
I       13.76262131      12.59439161       2.79505960      -0.00000675      -0.00000058      -0.00000339
I       11.52015389      17.40245317       3.82025515       0.00000524       0.00000020      -0.00000009
I       15.48104361      16.23616901       1.63627572      -0.00001376      -0.00000291      -0.00000220
I        9.80175122      13.76069676       4.97904640       0.00000141      -0.00000055       0.00000218
H        9.27459402      13.87866126       0.24351447      -0.00002422       0.00001100      -0.00000194
H       14.41090972      16.69833076       6.95436847       0.00000444       0.00000117      -0.00001040
H       10.05347608      12.32206995       9.69765808      -0.00000781      -0.00000475      -0.00000242
H       16.00821328      16.11822597       6.37178514      -0.00000669      -0.00000558      -0.00000118
H        9.26054446      13.72561776       8.90216564       0.00000511      -0.00000166       0.00000308
H       15.21528830      17.52177875       5.57629853       0.00000415       0.00001744      -0.00000788
H       10.35033235      14.52905428       2.33546989      -0.00000062       0.00000632       0.00000116
H       13.46156649      16.03743725       4.80587546      -0.00002087       0.00000506      -0.00000216
H       11.09740435      15.13035749       9.69383348       0.00000118      -0.00000563       0.00000709
H       14.17132798      14.71350283       5.58013055       0.00000643      -0.00000641       0.00000043
H       11.82121908      13.95943957       1.80945906      -0.00002108       0.00000622      -0.00000605
H       14.93245181      15.46782519       4.27985986      -0.00001084      -0.00000171       0.00001349
C       10.21673967      13.28152135       9.19554977       0.00000316       0.00000263      -0.00000074
C       15.05201932      16.56232914       6.07840732      -0.00001593      -0.00002124       0.00001566
Pb      11.86469332      11.24674191       5.00637973       0.00000121      -0.00000667      -0.00000023
Pb      15.79602194      11.22936543       5.00657901       0.00000706      -0.00000045       0.00000090
N       10.91686473      14.36227528       1.48425356       0.00002140      -0.00004508       0.00000978
N       14.36591999      15.63460047       5.13107797       0.00003425      -0.00000016      -0.00000539
I        7.34301597       4.82537678      12.21225399       0.00000317      -0.00000928      -0.00000538
I        1.96012360       9.70792807      11.40613648       0.00000772       0.00000898       0.00000589
I        7.28548207       4.96805478      16.50262293      -0.00000622       0.00000200       0.00000287
I        2.00360024       9.41221780      15.77441450      -0.00000013       0.00000473      -0.00000390
I        5.89351283       8.42158817      13.54961846      -0.00000688       0.00000599       0.00000518
I        3.42362427       6.26474827       1.41006528       0.00000056      -0.00000256       0.00000805
H        4.06847460       6.03490268      14.68368251      -0.00000160      -0.00001112       0.00000407
H        5.24867023       8.65147234       0.27613673       0.00000069      -0.00000495       0.00000018
H        2.51261745       5.48922211      15.39402489      -0.00000449       0.00000066       0.00000625
H        6.12748052      10.04422116       0.99786939      -0.00000021      -0.00000032       0.00000154
H        3.18974034       4.64213731      13.96188525       0.00000126      -0.00000011       0.00000332
H        6.11347015       9.89119361       9.65648393       0.00000010      -0.00000025       0.00000387
H        1.41456334       6.15562432      13.31224237       0.00000217       0.00000472      -0.00000424
H        6.46948586       7.98865344       2.28358353      -0.00000008       0.00000871      -0.00000492
H        2.84777513       6.69767881      12.67613772       0.00000105       0.00000930      -0.00001322
H        7.90266466       8.53071787       1.64741485       0.00000712       0.00000067      -0.00000135
H        2.19933237       7.46711813      14.03403853      -0.00000256      -0.00000557      -0.00000620
H        7.11786342       7.21923144       0.92564098       0.00000028      -0.00000474      -0.00000343
C        3.08400094       5.60723661      14.46857001       0.00001207       0.00000520      -0.00001281
C        6.21917432       8.92608596       9.14980784       0.00001657       0.00000163      -0.00000640
Pb       5.55581041      18.65881320       1.62288657       0.00000341       0.00000757      -0.00000174
Pb       1.62447982      18.67619977       1.62266760       0.00000104      -0.00000258      -0.00000462
N        2.34436882       6.54392750      13.57099058      -0.00001689      -0.00000343       0.00002201
N        6.97284814       8.14241666       1.38870640      -0.00000644      -0.00000384       0.00000755
I        5.91127743      12.43273050      15.83667360       0.00000185       0.00000585       0.00000252
I        3.60484465      16.92246772      16.78250499       0.00000060      -0.00000372      -0.00000109
I        5.88626451      12.35006590      11.46768948      -0.00000246       0.00000256      -0.00000416
I        3.64381093      17.15812827      12.49286321      -0.00000469       0.00000082      -0.00000211
I        7.60469116      15.99182792      10.30889849      -0.00000134       0.00000069       0.00000118
I        1.92541744      13.51635044      13.65167111       0.00000148      -0.00000258       0.00000116
H        1.39835283      13.63429669       8.91601793      -0.00001573       0.00000803       0.00000725
H        8.13186420      15.87385417      15.04442756       0.00000281       0.00000263       0.00000305
H        1.41234561      13.78742681       0.25742273      -0.00000772      -0.00000562      -0.00000024
H        7.33898062      17.27743726      14.24894945      -0.00000284      -0.00001400       0.00000333
H        3.00964319      13.20720879      -0.32506568      -0.00001135       0.00000303       0.00000922
H        6.53457186      16.45399589      15.62700598       0.00000707      -0.00000262      -0.00000311
H        2.47393882      14.28481362      11.00802714       0.00002983      -0.00001163      -0.00002801
H        6.29497658      14.46917685      14.25274370       0.00000679       0.00000844      -0.00000519
H        3.24921055      15.19208664       1.04914140       0.00000487       0.00000568      -0.00000639
H        7.05608781      15.22352140      12.95247862       0.00000114      -0.00000335       0.00000255
H        3.94485845      13.71514838      10.48215246       0.00000983      -0.00000526      -0.00000408
H        5.58521191      15.79312987      13.47852335       0.00000332      -0.00000067      -0.00000262
C        2.36849770      13.34327367       0.55085946       0.00003155       0.00002615       0.00000895
C        7.17568427      16.31798600      14.75104853      -0.00000361       0.00001538      -0.00000424
Pb       3.98835781      11.00239935      13.67901178       0.00000351      -0.00000142      -0.00000547
Pb       7.91969820      10.98504952      13.67919532       0.00000085       0.00000611       0.00000691
N        3.04052872      14.11796927      10.15686271      -0.00004459      -0.00000996       0.00004244
N        6.48956811      15.39028271      13.80370752      -0.00000490      -0.00002034       0.00000080
I       15.20531430       4.91668016      12.19824840      -0.00000668       0.00000617      -0.00000051
I        9.82244046       9.79927345      11.39215716      -0.00000128       0.00000316      -0.00000057
I       15.14772175       5.05933320      16.48865562       0.00000329       0.00000231       0.00000259
I        9.86587023       9.50353765      15.76043342      -0.00000802       0.00000434       0.00000264
I       13.75575768       8.51289168      13.53567604      -0.00000476      -0.00000620      -0.00000026
I       11.28589936       6.35601934       1.39612482       0.00000122      -0.00000106       0.00000358
H       11.93073404       6.12617996      14.66971987      -0.00000301      -0.00000045      -0.00000078
H       14.66682398       9.28836863      -0.44827834      -0.00000551       0.00000580       0.00000196
H       10.37486442       5.58054203      15.38006932       0.00001126      -0.00000108      -0.00001295
H       13.11097768       8.74273695       0.26212655       0.00000683       0.00000195      -0.00000139
H       11.05196591       4.73342916      13.94793538       0.00000556       0.00001278       0.00000808
H       14.65293229       9.13549334       8.21041988      -0.00000445      -0.00000284      -0.00000366
H       10.71005052       6.78898367      12.66217760      -0.00000500      -0.00000130       0.00000568
H       14.98012581       7.31049120       0.91171852      -0.00000166      -0.00000439       0.00000171
H       10.06160236       7.55842691      14.02007328       0.00000769      -0.00000772      -0.00000295
H       14.33172416       8.07994636       2.26963156       0.00000144      -0.00000337      -0.00000193
H        9.27682777       6.24693998      13.29827045       0.00001363       0.00000593       0.00000165
H       15.76492781       8.62197964       1.63348991      -0.00001208      -0.00000644      -0.00000805
C       10.94624999       5.69853576      14.45461210      -0.00001114      -0.00001063      -0.00000239
C       14.08148017       9.01743470       9.13582711       0.00000501       0.00002063       0.00000781
Pb      13.41808721      18.75011237       1.60894109      -0.00000030       0.00000136      -0.00000046
Pb       9.48675599      18.76747725       1.60871688       0.00000214      -0.00000048       0.00000441
N       10.20663534       6.63523502      13.55702643      -0.00001110       0.00000863       0.00000242
N       14.83511188       8.23368572       1.37476487       0.00001306       0.00000994       0.00000254
I       13.77356235      12.52404510      15.82273124      -0.00000189      -0.00000138       0.00000323
I       11.46713023      17.01375664      16.76855955       0.00000261      -0.00000771       0.00000095
I       13.74855634      12.44137197      11.45372914      -0.00000029      -0.00000099      -0.00000061
I       11.50609393      17.24943924      12.47892636       0.00000616      -0.00000478       0.00000678
I       15.46695545      16.08312865      10.29492801      -0.00000684      -0.00000355       0.00000090
I        9.78769374      13.60767375      13.63769736      -0.00000130      -0.00000278      -0.00000345
H       10.85785624      13.14552483       8.31959327      -0.00000124       0.00000002       0.00000391
H       15.99415965      15.96517983      15.03045179      -0.00000008       0.00000067       0.00000101
H       10.87189806      13.29850356      -0.33901205       0.00000345       0.00000219      -0.00000289
H       15.20128525      17.36873306      14.23491222      -0.00000209      -0.00001262       0.00000505
H       10.06746379      12.47510599       1.03905486       0.00000103       0.00001466      -0.00000870
H       14.39687112      16.54535783      15.61300472       0.00000438       0.00000240       0.00000146
H       10.33629036      14.37601910      10.99410123       0.00000468       0.00000775      -0.00000207
H       14.15725379      14.56048184      14.23883215       0.00000703      -0.00000181      -0.00000834
H       11.11145767      15.28336972       1.03519731       0.00000250       0.00002682      -0.00001487
H       14.91838033      15.31475496      12.93853613      -0.00001088       0.00000710       0.00001727
H       11.80718360      13.80642871      10.46808552       0.00000318      -0.00000260       0.00000055
H       13.44750915      15.88440937      13.46454840      -0.00001094       0.00000490      -0.00000379
C       10.23076805      13.43454147       0.53692796       0.00002492      -0.00002517       0.00001123
C       15.03798248      16.40930492      14.73705326      -0.00000421       0.00000476      -0.00000183
Pb      11.85063614      11.09372328      13.66505698       0.00000015      -0.00000221      -0.00000371
Pb      15.78195736      11.07633738      13.66524441       0.00000193      -0.00000029       0.00000179
N       10.90282510      14.20925521      10.14288339      -0.00001519       0.00000352       0.00000417
N       14.35185837      15.48156509      13.78975359       0.00001327      -0.00000836      -0.00001919
I        7.58403720      19.95326864       3.89576573      -0.00000643      -0.00000424       0.00000860
I        2.20115637      24.83587617       3.08964721       0.00000272      -0.00000092       0.00000206
I        7.52650948      20.09596224       8.18616788      -0.00000591       0.00000115      -0.00000365
I        2.24457952      24.54015556       7.45793731       0.00000498      -0.00000183       0.00000075
I        6.13448883      23.54948373       5.23318899       0.00000309       0.00000167      -0.00000123
I        3.63659566      21.08659751      10.41090312       0.00000273       0.00000550       0.00000744
H        2.75353726      20.61707042       7.07747905       0.00001324      -0.00000128      -0.00000811
H        6.34046562      24.86609205       9.99870531      -0.00000550      -0.00001268      -0.00001462
H        3.43071936      19.77007996       5.64531147      -0.00000129      -0.00000406       0.00000642
H        7.01743059      24.01896100       8.56651750       0.00000741      -0.00000145      -0.00000886
H        4.30940733      21.16281980       6.36721355       0.00000235      -0.00000698       0.00000258
H        5.47572429      23.62630499       0.61823316       0.00000058       0.00000251      -0.00000705
H        2.44028309      22.59504958       5.71758282       0.00000425      -0.00000567      -0.00000323
H        8.11564950      23.35258807      10.64823878      -0.00000557      -0.00000485       0.00000733
H        1.65552031      21.28358064       4.99573024       0.00001155       0.00000853       0.00000139
H        7.33082330      22.04109345       9.92650854       0.00000020       0.00000165      -0.00000258
H        3.08873736      21.82566198       4.35965898       0.00000749       0.00000695      -0.00000136
H        6.68247926      22.81054958      11.28445020       0.00000505      -0.00000346      -0.00000491
C        3.32494782      20.73514852       6.15204817      -0.00000348       0.00000530       0.00001542
C        6.46018919      24.05397379       0.83337894      -0.00000081       0.00001052      -0.00001756
Pb       5.31479184       3.53091136       9.93937420       0.00000381       0.00000695       0.00000066
Pb       1.38346986       3.54827712       9.93913642      -0.00000128      -0.00000452       0.00000220
N        2.58532356      21.67187610       5.25450121      -0.00002134      -0.00000265       0.00000222
N        7.18582437      22.96428880      10.38955879       0.00000539      -0.00000111       0.00000576
I        6.15229964      27.56065429       7.52020991       0.00000001      -0.00000319       0.00000113
I        3.39191314       2.10057018       7.78168642      -0.00000916       0.00000171      -0.00000164
I        6.12729181      27.47794756       3.15122241       0.00000611       0.00000535       0.00000345
I        3.43083844       2.33628213       3.49203150      -0.00000197      -0.00000372      -0.00000324
I        7.39168754       1.16995179       1.30803724       0.00000129       0.00000045       0.00000637
I        2.16643607      28.64427870       5.33517851       0.00000543       0.00000373       0.00000530
H        3.23659251      28.18208454       0.01713851       0.00000845       0.00000140      -0.00000492
H        7.91896103       1.05198287       6.04350824       0.00000041      -0.00000153       0.00000716
H        1.62529992      28.60928044       9.25829589      -0.00000651      -0.00000368       0.00000193
H        7.12599191       2.45557774       5.24813945      -0.00000498      -0.00000001      -0.00000640
H        3.22259649      28.02911030       8.67575943      -0.00000444      -0.00000148      -0.00000240
H        6.32168267       1.63204649       6.62620174       0.00000484       0.00000004      -0.00001154
H        2.71505044      29.41268038       2.69160361      -0.00000259      -0.00000244       0.00001136
H        6.08204785      -0.35270392       5.25186858      -0.00000854       0.00000351       0.00000232
H        3.46217387      30.01393435      10.05002509       0.00000273       0.00000083      -0.00000666
H        6.84310874       0.40169003       3.95160043      -0.00001069       0.00000163       0.00000929
H        4.18592484      28.84302564       2.16560112      -0.00000379      -0.00000285       0.00000669
H        5.37224361       0.97126339       4.47771043       0.00000011       0.00000365      -0.00000376
C        2.58146453      28.16513288       9.55170058       0.00000759      -0.00000020      -0.00000260
C        6.96275116       1.49609864       5.75020227      -0.00001445       0.00000338       0.00000549
Pb       4.22937267      26.13031819       5.36255113      -0.00000484       0.00000211      -0.00000597
Pb       8.16070464      26.11292891       5.36274781      -0.00001516      -0.00000115       0.00000224
N        3.28158085      29.24587891       1.84039099      -0.00000405      -0.00000976      -0.00001750
N        6.27661407       0.56841730       4.80285395       0.00001740      -0.00000187      -0.00000879
I       15.44633659      20.04457786       3.88180494      -0.00000171       0.00000157       0.00000120
I       10.06342434      24.92713974       3.07569849       0.00000632       0.00000615       0.00000894
I       15.38874951      20.18726049       8.17219429       0.00000266      -0.00000051       0.00000188
I       10.10686998      24.63141044       7.44398418      -0.00000284       0.00000658       0.00000097
I       13.99676852      23.64077366       5.21924337       0.00000643       0.00000339      -0.00000029
I       11.49887796      21.17790980      10.39698700       0.00000022       0.00000258      -0.00000834
H       11.29303852      19.86132842       5.63141085      -0.00000245       0.00000321       0.00000505
H       13.32391439      23.56461589       9.26303533       0.00000956       0.00000287       0.00000345
H       12.17172213      21.25407558       6.35330410       0.00000273       0.00000228       0.00000064
H       14.20275412      24.95737736       9.98471062      -0.00000190      -0.00000933       0.00000283
H       10.61584415      20.70833838       7.06356058       0.00001151       0.00000009      -0.00001030
H       14.21669376      25.11039259       1.32608368      -0.00000024       0.00000200       0.00000472
H       10.95107760      21.91691173       4.34573430      -0.00001028      -0.00000621       0.00000986
H       15.19308541      22.13236798       9.91257691      -0.00000287       0.00000474      -0.00000401
H       10.30258962      22.68629460       5.70364363       0.00000535       0.00000068      -0.00000226
H       14.54473435      22.90185023      11.27050004      -0.00000107       0.00000086      -0.00001344
H        9.51785390      21.37481600       4.98177987      -0.00000410       0.00000763      -0.00000085
H       15.97791768      23.44386395      10.63429655      -0.00001568       0.00000009       0.00000395
C       11.18726398      20.82640394       6.13813381      -0.00001597       0.00001177      -0.00000292
C       14.32242675      24.14528945       0.81940524       0.00000146      -0.00000746      -0.00000477
Pb      13.17706916       3.62221447       9.92539050       0.00000258      -0.00000229      -0.00000133
Pb       9.24573847       3.63958613       9.92520966      -0.00000262      -0.00000409      -0.00000385
N       10.44764816      21.76312142       5.24056729       0.00001571      -0.00000719       0.00000766
N       15.04809064      23.05557149      10.37561154       0.00001500      -0.00000213       0.00001008
I       14.01453541      27.65193744       7.50627281       0.00000631      -0.00000163      -0.00000088
I       11.25414597       2.19188349       7.76772990      -0.00000652      -0.00000140      -0.00000240
I       13.98956273      27.56925505       3.13728406      -0.00000206      -0.00000622      -0.00000101
I       11.29311389       2.42752242       3.47806489      -0.00000253       0.00000617       0.00000174
I       15.25396871       1.26123025       1.29407698       0.00000110      -0.00000144      -0.00000155
I       10.02869781      28.73554713       5.32123024       0.00000470      -0.00000369       0.00000542
H        9.50154675      28.85351066       0.58571217       0.00000395      -0.00000198       0.00000042
H       14.98825222       2.54685816       5.23413301       0.00000638      -0.00000361       0.00000016
H       10.28040014      27.29696914      10.03988626       0.00000077      -0.00000497      -0.00000428
H       14.18384197       1.72341670       6.61218758       0.00000532      -0.00000072       0.00000131
H        9.48750747      28.70054497       9.24440626      -0.00000080       0.00000028      -0.00000357
H       15.78115640       1.14330376       6.02964105      -0.00000332      -0.00000307      -0.00000128
H       10.57728024      29.50391339       2.67765799      -0.00000887      -0.00000203       0.00000959
H       13.94429027      -0.26141749       5.23795070       0.00000468       0.00000056       0.00000299
H       11.32442412      30.10522154      10.03603536      -0.00000092       0.00000595      -0.00000297
H       14.70543126       0.49290501       3.93769240      -0.00000710       0.00000048      -0.00000220