768
Lattice="32.02500273337611 -0.3383098033004087 0.23372914800987352 0.251727044973982 30.907294753182846 0.327696953363583 -0.36516376636284514 -0.12791612959087437 17.646268719176913" Properties=species:S:1:pos:R:3:forces:R:3 energy=-3660.141069991111 stress="0.0030974446068495302 -4.5059156806366316e-05 1.88993405585128e-06 -4.5059156806366316e-05 0.0012291928592328288 9.017460499203026e-05 1.88993405585128e-06 9.017460499203026e-05 0.0016978738778588313" free_energy=-3660.141069991111 pbc="T T T"
H        2.89060665       2.01228778       8.20916380      -0.00000190       0.00000503      -0.00000240
H        2.70017116       2.63642284       5.98014390       0.00001373      -0.00000270      -0.00001499
H        3.02307661       1.03758051       5.37496438       0.00000911      -0.00001166      -0.00000870
H        3.41414165      -0.74772034       7.15302800      -0.00000546      -0.00001811      -0.00000450
H        3.36462541      -0.17067933       8.81000913      -0.00002430       0.00000473       0.00001433
H        6.93005395       2.36374656       3.84711215       0.00000219       0.00000920       0.00000422
H        7.24974440       1.79606502       1.61813184       0.00000094      -0.00002177       0.00000036
H        6.94978397       3.40697608       1.03496045       0.00000037      -0.00000121      -0.00001649
H        6.44353470       5.14463114       2.83042851      -0.00000688       0.00000919       0.00000703
H        6.40240165       4.52615467       4.47364098       0.00000643       0.00000282      -0.00002726
C        3.02551132       1.25562147       7.42836863       0.00000637      -0.00002087       0.00001202
C        6.83184018       3.13843343       3.07873409      -0.00000432       0.00000327       0.00002158
N        2.89359558       1.65113237       6.18320772      -0.00000096       0.00001204       0.00002743
N        3.29999393       0.03050151       7.81154566      -0.00001227       0.00003339      -0.00001328
N        7.04306237       2.77562175       1.83426496      -0.00000289       0.00002013      -0.00000140
N        6.52081920       4.35050834       3.47507651       0.00000047      -0.00000242       0.00000248
Pb       5.74664758      29.25784595       3.29213080       0.00000317      -0.00001102       0.00000859
Pb       1.74321584      29.28969391       3.22744462       0.00000622      -0.00000109      -0.00000386
I        7.78401509      30.72660418       5.34698618       0.00000538       0.00000620      -0.00001695
I        2.39420926       5.08461048       5.02758977      -0.00000259      -0.00000472      -0.00000501
I        7.59661078      30.19882988       9.74763827       0.00000100       0.00000510       0.00000556
I        2.32551386       4.54115015       9.44118535       0.00000110      -0.00000979      -0.00000898
I        6.37708362       3.48450936       7.09326053      -0.00000416      -0.00000954       0.00000344
I        3.51481941       0.91551070       2.63122497      -0.00000147       0.00000835      -0.00000501
H        3.05260327       9.78740030       2.19806938      -0.00000399      -0.00001040       0.00000527
H        2.54761377       7.62372248       1.55589045      -0.00000540      -0.00000376       0.00000363
H        2.48528134       7.01666928       3.20225424       0.00000452      -0.00000944       0.00001529
H        2.90060080       8.76371407       5.01378686       0.00001780      -0.00000329      -0.00000128
H        3.24809068      10.36785050       4.43818604      -0.00001646      -0.00000012       0.00001015
H        7.02949918      10.07479016       6.65622101      -0.00000135       0.00000519       0.00002064
H        6.70325829       9.46846333       8.87434077      -0.00001480      -0.00000830       0.00000237
H        7.02442115      11.06425003       9.48823520       0.00000688      -0.00001341       0.00000089
H        7.55281783      12.82896962       7.72631020      -0.00000353      -0.00000866      -0.00000134
H       15.59124544      12.15797173       6.13018914       0.00000502      -0.00000295      -0.00003138
C        2.90488862       9.01848283       2.96446038      -0.00000655       0.00000753       0.00000351
C        7.13807083      10.83300006       7.43954214      -0.00000082      -0.00000422       0.00001625
N        2.61307653       7.80489983       2.55823214       0.00000005       0.00000151      -0.00002103
N        3.04001073       9.38962788       4.21682050       0.00000215       0.00001784      -0.00001272
N        6.92319827      10.44927119       8.67707056       0.00000440      -0.00000243       0.00000811
N        7.46434374      12.04850042       7.06657037       0.00000029       0.00000224      -0.00000031
Pb       4.39177200       6.04461939       7.44284655      -0.00000272       0.00000047      -0.00000881
Pb       0.38855087       6.09802218       7.38026852      -0.00001623      -0.00000589      -0.00000183
I        6.38193786       7.01480971       9.82509550      -0.00000544       0.00001014      -0.00000283
I        3.47151399      12.26297132       9.85980549       0.00001162       0.00000350      -0.00000598
I        6.39011126       7.56127366       5.41195233       0.00000556       0.00000753      -0.00000953
I        3.59225914      12.79098959       5.46118458       0.00000603       0.00000377       0.00000339
I        7.58570594      11.22900533       3.42926383       0.00000429       0.00001316      -0.00000288
I        2.42077162       8.61560415       7.75861676       0.00000469      -0.00000474       0.00002136
H       10.89670904       1.92756481       8.26763242       0.00001360      -0.00001280      -0.00002533
H       11.37042919      -0.25551928       8.86833617      -0.00000362       0.00001297      -0.00000019
H       11.42008190      -0.83240990       7.21131384       0.00000417      -0.00001319       0.00000538
H       11.02943303       0.95309380       5.43336101      -0.00000667      -0.00001641      -0.00002833
H       10.70660309       2.55191232       6.03863861       0.00000258       0.00000066      -0.00000429
H       14.93625584       2.27927477       3.90554871      -0.00000127       0.00001590      -0.00000491
H       15.25585590       1.71146030       1.67659116      -0.00000049       0.00002528       0.00000505
H       14.95593782       3.32234910       1.09333549      -0.00000741      -0.00000664       0.00001300
H       14.44980691       5.06012699       2.88873652      -0.00000324       0.00003205      -0.00001493
H       14.40871106       4.44174141       4.53197812      -0.00000254       0.00000917       0.00002416
C       11.03163147       1.17095252       7.48678652       0.00000826      -0.00000974       0.00005519
C       14.83804505       3.05392514       3.13713289      -0.00000348      -0.00000564       0.00001007
N       11.30592021      -0.05423495       7.86988668      -0.00000370       0.00002719      -0.00001270
N       10.89993665       1.56659251       6.24164392      -0.00001357       0.00001194      -0.00000601
N       15.04920293       2.69103499       1.89267549       0.00000799      -0.00000906      -0.00001400
N       14.52708843       4.26603410       3.53342184       0.00000141      -0.00003866      -0.00001001
Pb      13.75289817      29.17320958       3.35050859      -0.00000664      -0.00000103       0.00000640
Pb       9.74945764      29.20498846       3.28590987       0.00001128      -0.00000343       0.00000084
I       15.79019020      30.64210429       5.40533359       0.00000597      -0.00000779       0.00000806
I       10.40047666       5.00006329       5.08597672       0.00000733      -0.00000885      -0.00000343
I       15.60284706      30.11426220       9.80602731       0.00000398       0.00000086       0.00000540
I       10.33183933       4.45649013       9.49955231      -0.00000310       0.00000040       0.00000500
I       14.38334839       3.40002544       7.15166464       0.00001217      -0.00000790      -0.00000081
I       11.52099057       0.83082647       2.68965134      -0.00000219       0.00000609      -0.00001225
H       11.05854230       9.70284646       2.25652843       0.00000322      -0.00000354       0.00001674
H       10.55361256       7.53922712       1.61416036      -0.00001305      -0.00001475       0.00000457
H       10.49131458       6.93201358       3.26047500       0.00001932       0.00002305       0.00001056
H       10.90664711       8.67889077       5.07215154      -0.00001220      -0.00000766       0.00002536
H       11.25407326      10.28309539       4.49670164       0.00000964       0.00001310      -0.00000360
H       15.03587232       9.99021447       6.71470358      -0.00000969      -0.00001712       0.00000627
H       14.70965585       9.38397234       8.93284975      -0.00001032      -0.00001643       0.00000235
H       15.03092666      10.97975970       9.54668731      -0.00001217       0.00000071       0.00001240
H       15.55929904      12.74440707       7.78468940       0.00001456       0.00001139      -0.00001654
H        7.58480743      12.24259326       6.07179506       0.00000184      -0.00001137      -0.00002499
C       10.91086171       8.93385858       3.02285541       0.00000276      -0.00001112       0.00001129
C       15.14449620      10.74844357       7.49799784       0.00000929       0.00003432      -0.00001477
N       10.61907402       7.72030545       2.61652182       0.00000553      -0.00000546       0.00000419
N       11.04600273       9.30489093       4.27524710       0.00001371       0.00001401      -0.00002295
N       14.92964639      10.36476220       8.73554460       0.00000728       0.00002146      -0.00002042
N       15.47080806      11.96391872       7.12497590      -0.00002954      -0.00002280       0.00004501
Pb      12.39802370       5.96010804       7.50124639       0.00000291      -0.00000019      -0.00000870
Pb       8.39480403       6.01335190       7.43869165      -0.00000987       0.00000034      -0.00000369
I       14.38815061       6.93034299       9.88349771      -0.00000316       0.00000406      -0.00001161
I       11.47774299      12.17833581       9.91820133       0.00000011      -0.00000724       0.00000828
I       14.39635867       7.47677308       5.47036124       0.00000783      -0.00000286       0.00000182
I       11.59855585      12.70624301       5.51956464      -0.00000338       0.00000006       0.00000353
I       15.59210354      11.14448345       3.48770215       0.00000706       0.00000158      -0.00000414
I       10.42690362       8.53101016       7.81706236      -0.00000775      -0.00000462      -0.00001143
H        2.70802477       1.94832972      17.03229816      -0.00000191       0.00000503      -0.00000240
H        2.51758928       2.57246478      14.80327826       0.00001373      -0.00000270      -0.00001499
H        2.84049473       0.97362245      14.19809874       0.00000911      -0.00001166      -0.00000870
H        3.23155977      -0.81167840      15.97616236      -0.00000546      -0.00001811      -0.00000449
H        3.18204353      -0.23463739      17.63314349      -0.00002430       0.00000473       0.00001434
H        6.74747207       2.29978850      12.67024651       0.00000219       0.00000920       0.00000422
H        7.06716252       1.73210696      10.44126620       0.00000094      -0.00002177       0.00000036
H        6.76720209       3.34301802       9.85809481       0.00000037      -0.00000121      -0.00001649
H        6.26095282       5.08067308      11.65356287      -0.00000688       0.00000920       0.00000703
H        6.21981977       4.46219661      13.29677534       0.00000643       0.00000282      -0.00002725
C        2.84292944       1.19166341      16.25150299       0.00000637      -0.00002087       0.00001202
C        6.64925830       3.07447537      11.90186845      -0.00000432       0.00000327       0.00002159
N        2.71101370       1.58717431      15.00634208      -0.00000096       0.00001204       0.00002743
N        3.11741205      -0.03345655      16.63468002      -0.00001227       0.00003338      -0.00001329
N        6.86048049       2.71166369      10.65739932      -0.00000288       0.00002013      -0.00000140
N        6.33823732       4.28655028      12.29821087       0.00000047      -0.00000242       0.00000248
Pb       5.56406570      29.19388789      12.11526516       0.00000317      -0.00001104       0.00000860
Pb       1.56063396      29.22573585      12.05057898       0.00000622      -0.00000110      -0.00000384
I        7.60143321      30.66264612      14.17012054       0.00000537       0.00000619      -0.00001695
I        2.21162738       5.02065242      13.85072413      -0.00000260      -0.00000472      -0.00000501
I        7.77919267      30.26278795       0.92450391       0.00000099       0.00000508       0.00000556
I        2.50809574       4.60510821       0.61805099       0.00000111      -0.00000977      -0.00000899
I        6.19450174       3.42055130      15.91639489      -0.00000416      -0.00000954       0.00000344
I        3.33223753       0.85155264      11.45435933      -0.00000147       0.00000835      -0.00000501
H        2.87002139       9.72344224      11.02120374      -0.00000399      -0.00001040       0.00000527
H        2.36503189       7.55976442      10.37902481      -0.00000540      -0.00000376       0.00000363
H        2.30269946       6.95271122      12.02538860       0.00000452      -0.00000944       0.00001529
H        2.71801892       8.69975601      13.83692122       0.00001780      -0.00000329      -0.00000128
H        3.06550880      10.30389244      13.26132040      -0.00001646      -0.00000012       0.00001015
H        6.84691730      10.01083210      15.47935537      -0.00000135       0.00000519       0.00002064
H        6.52067641       9.40450527      17.69747513      -0.00001480      -0.00000830       0.00000234
H        6.84183926      11.00029196      18.31136956       0.00000692      -0.00001320       0.00000109
H        7.37023595      12.76501156      16.54944456      -0.00000353      -0.00000866      -0.00000134
H       15.40866356      12.09401367      14.95332350       0.00000502      -0.00000295      -0.00003138
C        2.72230674       8.95452477      11.78759474      -0.00000656       0.00000753       0.00000351
C        6.95548895      10.76904200      16.26267650      -0.00000081      -0.00000420       0.00001626
N        2.43049465       7.74094177      11.38136650       0.00000006       0.00000151      -0.00002103
N        2.85742885       9.32566982      13.03995486       0.00000215       0.00001785      -0.00001272
N        6.74061639      10.38531313      17.50020492       0.00000436      -0.00000266       0.00000793
N        7.28176186      11.98454236      15.88970473       0.00000028       0.00000223      -0.00000032
Pb       4.20919012       5.98066133      16.26598091      -0.00000273       0.00000046      -0.00000881
Pb       0.20596899       6.03406412      16.20340288      -0.00001625      -0.00000590      -0.00000183
I        6.56451974       7.07876777       1.00196114      -0.00000543       0.00001015      -0.00000282
I        3.65409587      12.32692938       1.03667113       0.00001162       0.00000351      -0.00000597
I        6.20752938       7.49731560      14.23508669       0.00000555       0.00000753      -0.00000953
I        3.40967726      12.72703153      14.28431894       0.00000603       0.00000376       0.00000340
I        7.40312406      11.16504727      12.25239819       0.00000429       0.00001313      -0.00000289
I        2.23818974       8.55164609      16.58175112       0.00000468      -0.00000474       0.00002136
H       10.71412716       1.86360675      17.09076678       0.00001360      -0.00001280      -0.00002533
H       11.18784731      -0.31947734      17.69147053      -0.00000362       0.00001297      -0.00000019
H       11.23750002      -0.89636796      16.03444820       0.00000417      -0.00001319       0.00000538
H       10.84685115       0.88913574      14.25649537      -0.00000667      -0.00001641      -0.00002833
H       10.52402121       2.48795426      14.86177297       0.00000258       0.00000066      -0.00000429
H       14.75367396       2.21531671      12.72868307      -0.00000127       0.00001590      -0.00000491
H       15.07327402       1.64750224      10.49972552      -0.00000049       0.00002528       0.00000505
H       14.77335594       3.25839104       9.91646985      -0.00000741      -0.00000664       0.00001299
H       14.26722503       4.99616893      11.71187088      -0.00000324       0.00003205      -0.00001493
H       14.22612918       4.37778335      13.35511248      -0.00000254       0.00000917       0.00002415
C       10.84904959       1.10699446      16.30992088       0.00000826      -0.00000975       0.00005519
C       14.65546317       2.98996708      11.96026725      -0.00000348      -0.00000564       0.00001007
N       11.12333833      -0.11819301      16.69302104      -0.00000370       0.00002718      -0.00001271
N       10.71735477       1.50263445      15.06477828      -0.00001357       0.00001194      -0.00000601
N       14.86662105       2.62707693      10.71580985       0.00000799      -0.00000907      -0.00001400
N       14.34450655       4.20207604      12.35655620       0.00000141      -0.00003866      -0.00001001
Pb      13.57031629      29.10925152      12.17364295      -0.00000664      -0.00000105       0.00000641
Pb       9.56687576      29.14103040      12.10904423       0.00001127      -0.00000345       0.00000085
I       15.60760832      30.57814623      14.22846795       0.00000597      -0.00000780       0.00000806
I       10.21789478       4.93610523      13.90911108       0.00000733      -0.00000885      -0.00000343
I       15.78542895      30.17822027       0.98289295       0.00000397       0.00000084       0.00000540
I       10.51442121       4.52044819       0.67641795      -0.00000310       0.00000041       0.00000499
I       14.20076651       3.33606738      15.97479900       0.00001216      -0.00000792      -0.00000081
I       11.33840869       0.76686841      11.51278570      -0.00000219       0.00000608      -0.00001225
H       10.87596042       9.63888840      11.07966279       0.00000323      -0.00000354       0.00001674
H       10.37103068       7.47526906      10.43729472      -0.00001305      -0.00001475       0.00000457
H       10.30873270       6.86805552      12.08360936       0.00001932       0.00002305       0.00001057
H       10.72406523       8.61493271      13.89528590      -0.00001220      -0.00000766       0.00002536
H       11.07149138      10.21913733      13.31983600       0.00000964       0.00001310      -0.00000360
H       14.85329044       9.92625641      15.53783794      -0.00000969      -0.00001712       0.00000628
H       14.52707397       9.32001428      17.75598411      -0.00001032      -0.00001643       0.00000232
H       14.84834477      10.91580163      18.36982167      -0.00001212       0.00000091       0.00001259
H       15.37671716      12.68044901      16.60782376       0.00001456       0.00001139      -0.00001653
H        7.40222555      12.17863520      14.89492942       0.00000184      -0.00001137      -0.00002499
C       10.72827983       8.86990052      11.84598977       0.00000276      -0.00001113       0.00001129
C       14.96191432      10.68448551      16.32113220       0.00000929       0.00003434      -0.00001476
N       10.43649214       7.65634739      11.43965618       0.00000553      -0.00000545       0.00000419
N       10.86342085       9.24093287      13.09838146       0.00001371       0.00001401      -0.00002295
N       14.74706451      10.30080414      17.55867896       0.00000724       0.00002123      -0.00002060
N       15.28822618      11.89996066      15.94811026      -0.00002955      -0.00002281       0.00004501
Pb      12.21544182       5.89614998      16.32438075       0.00000289      -0.00000020      -0.00000870
Pb       8.21222215       5.94939384      16.26182601      -0.00000986       0.00000033      -0.00000368
I       14.57073249       6.99430105       1.06036335      -0.00000316       0.00000408      -0.00001160
I       11.66032487      12.24229387       1.09506697       0.00000011      -0.00000722       0.00000829
I       14.21377679       7.41281502      14.29349560       0.00000782      -0.00000287       0.00000182
I       11.41597397      12.64228495      14.34269900      -0.00000338       0.00000005       0.00000354
I       15.40952166      11.08052539      12.31083651       0.00000707       0.00000156      -0.00000414
I       10.24432174       8.46705210      16.64019672      -0.00000775      -0.00000462      -0.00001143
H        3.01647017      17.46593516       8.37301228      -0.00000191       0.00000503      -0.00000240
H        2.82603468      18.09007022       6.14399238       0.00001373      -0.00000270      -0.00001499
H        3.14894013      16.49122789       5.53881286       0.00000911      -0.00001166      -0.00000870
H        3.54000517      14.70592704       7.31687648      -0.00000544      -0.00001822      -0.00000459
H        3.49048893      15.28296805       8.97385761      -0.00002432       0.00000474       0.00001422
H        7.05591747      17.81739394       4.01096063       0.00000219       0.00000920       0.00000422
H        7.37560792      17.24971240       1.78198032       0.00000094      -0.00002177       0.00000036
H        7.07564749      18.86062346       1.19880893       0.00000037      -0.00000121      -0.00001649
H        6.56939822      20.59827852       2.99427699      -0.00000688       0.00000920       0.00000703
H        6.52826517      19.97980205       4.63748946       0.00000643       0.00000282      -0.00002725
C        3.15137484      16.70926885       7.59221711       0.00000637      -0.00002087       0.00001201
C        6.95770370      18.59208081       3.24258257      -0.00000432       0.00000327       0.00002158
N        3.01945910      17.10477975       6.34705620      -0.00000097       0.00001204       0.00002743
N        3.42585745      15.48414889       7.97539414      -0.00001227       0.00003349      -0.00001307
N        7.16892589      18.22926913       1.99811344      -0.00000288       0.00002013      -0.00000140
N        6.64668272      19.80415572       3.63892499       0.00000047      -0.00000242       0.00000248
Pb       5.62078406      13.80419858       3.12828233       0.00000317      -0.00001105       0.00000857
Pb       1.61735232      13.83604654       3.06359615       0.00000622      -0.00000111      -0.00000388
I        7.65815157      15.27295681       5.18313771       0.00000537       0.00000619      -0.00001696
I        2.52007278      20.53825786       5.19143825      -0.00000259      -0.00000472      -0.00000501
I        7.47074726      14.74518251       9.58378980       0.00000100       0.00000508       0.00000555
I        2.45137738      19.99479753       9.60503383       0.00000110      -0.00000979      -0.00000898
I        6.50294714      18.93815674       7.25710901      -0.00000416      -0.00000954       0.00000344
I        3.64068293      16.36915808       2.79507345      -0.00000146       0.00000836      -0.00000501
H        3.17846679      25.24104768       2.36191786      -0.00000399      -0.00001040       0.00000527
H        2.67347729      23.07736986       1.71973893      -0.00000540      -0.00000375       0.00000363
H        2.61114486      22.47031666       3.36610272       0.00000452      -0.00000944       0.00001529
H        3.02646432      24.21736145       5.17763534       0.00001780      -0.00000329      -0.00000128
H        3.37395420      25.82149788       4.60203452      -0.00001646      -0.00000012       0.00001016
H        7.15536270      25.52843754       6.82006949      -0.00000135       0.00000519       0.00002064
H        6.82912181      24.92211071       9.03818925      -0.00001480      -0.00000830       0.00000237
H        7.15028467      26.51789741       9.65208368       0.00000688      -0.00001341       0.00000089
H        7.67868135      28.28261700       7.89015868      -0.00000353      -0.00000866      -0.00000134
H       15.71710896      27.61161911       6.29403762       0.00000502      -0.00000295      -0.00003138
C        3.03075214      24.47213021       3.12830886      -0.00000655       0.00000753       0.00000351
C        7.26393435      26.28664744       7.60339062      -0.00000082      -0.00000421       0.00001625
N        2.73894005      23.25854721       2.72208062       0.00000006       0.00000151      -0.00002103
N        3.16587425      24.84327526       4.38066898       0.00000215       0.00001784      -0.00001272
N        7.04906179      25.90291857       8.84091904       0.00000440      -0.00000243       0.00000811
N        7.59020726      27.50214780       7.23041885       0.00000029       0.00000223      -0.00000032
Pb       4.51763552      21.49826677       7.60669503      -0.00000272       0.00000047      -0.00000881
Pb       0.51441439      21.55166956       7.54411700      -0.00001624      -0.00000590      -0.00000183
I        6.50780138      22.46845709       9.98894398      -0.00000544       0.00001013      -0.00000283
I        3.59737751      27.71661870      10.02365397       0.00001161       0.00000349      -0.00000600
I        6.51597478      23.01492104       5.57580081       0.00000556       0.00000753      -0.00000953
I        3.71812266      28.24463697       5.62503306       0.00000603       0.00000377       0.00000337
I        7.71156946      26.68265271       3.59311231       0.00000430       0.00001313      -0.00000289
I        2.54663514      24.06925153       7.92246524       0.00000469      -0.00000474       0.00002136
H       11.02257256      17.38121219       8.43148090       0.00001360      -0.00001280      -0.00002533
H       11.49629271      15.19812810       9.03218465      -0.00000363       0.00001298      -0.00000030
H       11.54594542      14.62123748       7.37516232       0.00000419      -0.00001331       0.00000529
H       11.15529655      16.40674118       5.59720949      -0.00000667      -0.00001641      -0.00002833
H       10.83246661      18.00555970       6.20248709       0.00000258       0.00000066      -0.00000429
H       15.06211936      17.73292215       4.06939719      -0.00000127       0.00001590      -0.00000491
H       15.38171942      17.16510768       1.84043964      -0.00000049       0.00002528       0.00000505
H       15.08180134      18.77599648       1.25718397      -0.00000741      -0.00000664       0.00001299
H       14.57567043      20.51377437       3.05258500      -0.00000324       0.00003205      -0.00001493
H       14.53457458      19.89538879       4.69582660      -0.00000254       0.00000918       0.00002415
C       11.15749499      16.62459990       7.65063500       0.00000827      -0.00000974       0.00005518
C       14.96390857      18.50757252       3.30098137      -0.00000348      -0.00000564       0.00001007
N       11.43178373      15.39941243       8.03373516      -0.00000370       0.00002729      -0.00001248
N       11.02580017      17.02023989       6.40549240      -0.00001357       0.00001194      -0.00000601
N       15.17506645      18.14468237       2.05652397       0.00000799      -0.00000906      -0.00001400
N       14.65295195      19.71968148       3.69727032       0.00000141      -0.00003866      -0.00001001
Pb      13.62703465      13.71956221       3.18666012      -0.00000664      -0.00000105       0.00000639
Pb       9.62359412      13.75134109       3.12206140       0.00001127      -0.00000346       0.00000082
I       15.66432668      15.18845692       5.24148512       0.00000597      -0.00000781       0.00000804
I       10.52634018      20.45371067       5.24982520       0.00000733      -0.00000885      -0.00000343
I       15.47698354      14.66061483       9.64217884       0.00000398       0.00000084       0.00000538
I       10.45770285      19.91013751       9.66340079      -0.00000311       0.00000039       0.00000500
I       14.50921191      18.85367282       7.31551312       0.00001217      -0.00000791      -0.00000081
I       11.64685409      16.28447385       2.85349982      -0.00000219       0.00000609      -0.00001225
H       11.18440582      25.15649384       2.42037691       0.00000323      -0.00000355       0.00001674
H       10.67947608      22.99287450       1.77800884      -0.00001305      -0.00001475       0.00000456
H       10.61717810      22.38566096       3.42432348       0.00001932       0.00002306       0.00001057
H       11.03251063      24.13253815       5.23600002      -0.00001220      -0.00000766       0.00002536
H       11.37993678      25.73674277       4.66055012       0.00000964       0.00001310      -0.00000360
H       15.16173584      25.44386185       6.87855206      -0.00000969      -0.00001712       0.00000627
H       14.83551937      24.83761972       9.09669823      -0.00001032      -0.00001643       0.00000235
H       15.15679018      26.43340708       9.71053579      -0.00001217       0.00000070       0.00001240
H       15.68516256      28.19805445       7.94853788       0.00001456       0.00001139      -0.00001653
H        7.71067095      27.69624064       6.23564354       0.00000184      -0.00001137      -0.00002499
C       11.03672523      24.38750596       3.18670389       0.00000276      -0.00001112       0.00001129
C       15.27035972      26.20209095       7.66184632       0.00000929       0.00003432      -0.00001477
N       10.74493754      23.17395283       2.78037030       0.00000553      -0.00000546       0.00000419
N       11.17186625      24.75853831       4.43909558       0.00001371       0.00001401      -0.00002295
N       15.05550991      25.81840958       8.89939308       0.00000728       0.00002146      -0.00002042
N       15.59667158      27.41756610       7.28882438      -0.00002954      -0.00002281       0.00004500