96
Lattice="15.929240818904947 -0.04235196245033261 -0.034463511361077837 0.04736468579605106 15.225216765363434 0.2692753017061835 -0.03146807067071553 -0.13349769924392355 8.747244747684451" Properties=species:S:1:pos:R:3:forces:R:3 energy=-418.80609318506356 stress="0.0029934189756300363 7.795080915590753e-06 0.00013629852032433768 7.795080915590753e-06 0.004298032941811688 2.4810242492872903e-05 0.00013629852032433768 2.4810242492872903e-05 0.0036730374865418915" free_energy=-418.80609318506356 pbc="T T T"
I        5.74465597       2.02812796       2.23377855       0.00000752      -0.00000060      -0.00001253
I        3.35521355       6.72756087       3.40736228      -0.00001153       0.00002711      -0.00002267
I        5.67858042       1.82778380       6.61844136       0.00000551      -0.00001256       0.00000708
I        3.38979652       6.79443726       7.76995716      -0.00000252       0.00000071      -0.00000318
I        7.38990318       5.57196813       5.54429678      -0.00001467       0.00000422       0.00001631
I        1.67839109       3.05025819       8.84403559       0.00000016       0.00000802       0.00001987
H        1.17465214       3.26218181       4.19497195      -0.00001556       0.00002427       0.00000750
H        7.10192400       6.91299904       0.71286966       0.00000059       0.00000644      -0.00000459
H        2.76063295       2.71197163       3.55451202       0.00001760       0.00000069      -0.00001563
H        6.33948618       6.04366214       2.08674799      -0.00001125       0.00000547       0.00000143
H        1.99806707       1.84272337       4.92837176       0.00000848       0.00002194      -0.00000439
H        7.92539760       5.49348083       1.44609011      -0.00000624      -0.00000063       0.00000429
H        3.01727890       4.66055284       4.98548504       0.00002033       0.00000297       0.00000200
H        6.08263013       4.09520286       0.65568506      -0.00002290      -0.00001280       0.00000485
H        3.75694700       3.31742460       5.69958651       0.00000930      -0.00000782       0.00000417
H        6.80386017       4.90245333      -0.64068090      -0.00000589       0.00000880      -0.00001413
H        2.29602168       3.85331035       6.28184648      -0.00001560      -0.00000312      -0.00001297
H        5.34298556       5.43838501      -0.05833540      -0.00000724       0.00000847      -0.00000575
C        2.14173410       2.81803768       4.45079714      -0.00001682      -0.00002627       0.00003539
C        6.95829459       5.93765522       1.19039303      -0.00002033      -0.00000852      -0.00002400
Pb       3.80139454      15.73765368       9.10747353       0.00003668      -0.00001034       0.00000555
Pb      -0.18108037      15.67778985       9.11499705      -0.00001441       0.00000712      -0.00000084
N        2.84262813       3.72379443       5.40968595      -0.00000355      -0.00001550      -0.00002933
N        6.25730078       5.03196805       0.23150909       0.00001528       0.00000992       0.00001504
I        7.37961555       9.41623226       7.80783063       0.00000476       0.00000673       0.00000475
I        1.73615588      14.43121642       6.84979455      -0.00001941      -0.00001236      -0.00000960
I        7.34515660       9.63552487       3.44920648      -0.00000882      -0.00001433      -0.00000208
I        1.80197357      14.34547413       2.46118758       0.00001258      -0.00000885       0.00000176
I        5.72567567      13.26519754       0.26683868      -0.00000551      -0.00000259      -0.00001224
I        3.42143653      10.71574133       5.64355173      -0.00000935      -0.00000430       0.00001259
H        3.09600939       9.37662787       9.51099526      -0.00000245      -0.00001646      -0.00001622
H        6.01942938      14.47081654       5.14659953       0.00001705      -0.00000876       0.00000386
H        3.92816006      10.76436713      10.29367812       0.00001564       0.00000711       0.00001602
H        6.77531273      13.64792352       3.74091153      -0.00001101      -0.00000878       0.00000466
H        2.34036444      10.19965786      10.91673150      -0.00000943       0.00000508      -0.00000824
H        5.18749842      13.08303335       4.36375539      -0.00002419      -0.00000355      -0.00001201
H        2.09170950      12.20001724       9.55777926      -0.00003187      -0.00001128       0.00000783
H        6.30951736      12.41134808       6.42600871       0.00000624      -0.00000478      -0.00001856
H        1.34344474      10.88741750       8.79735972      -0.00000463       0.00000334       0.00000567
H        7.77209792      12.96011945       5.86029332       0.00001201       0.00000786       0.00001239
H        2.80601355      11.43611543       8.23155368       0.00001493       0.00000786       0.00001427
H        7.02393630      11.64749868       5.09981749       0.00000367      -0.00000683      -0.00001978
C        2.95833651      10.33477708      10.02374589       0.00002564      -0.00000396      -0.00000039
C        6.15724939      13.51270343       4.63381916       0.00002464       0.00000641       0.00002885
Pb       5.31428903       8.10982148       5.55019066       0.00002109      -0.00000268      -0.00000843
Pb       9.29676307       8.16964349       5.54257452       0.00000209      -0.00000688       0.00001162
N        2.26043296      11.27824746       9.09965947       0.00002353      -0.00001445       0.00000226
N        6.85514160      12.56925494       5.55793872      -0.00004231       0.00002244      -0.00000975
I       13.70924543       2.00687627       2.21657093      -0.00000008       0.00000765      -0.00001039
I       11.31975003       6.70638255       3.39003023       0.00000658       0.00001530       0.00001415
I       13.64316508       1.80659851       6.60122795      -0.00001067      -0.00000822      -0.00001307
I       11.35437631       6.77324185       7.75260656       0.00000094       0.00000473       0.00000728
I       15.35451811       5.55074725       5.52702812      -0.00000139      -0.00000329       0.00001008
I        9.64308143       3.02904969       8.82682044       0.00000801       0.00000002      -0.00000153
H       10.72513448       2.69084348       3.53718936       0.00001315       0.00000335       0.00000417
H       14.30371768       6.02250935       2.06934919       0.00000731       0.00000767      -0.00000417
H        9.96258515       1.82156640       4.91104163      -0.00000195       0.00001669       0.00000289
H       15.88968974       5.47221353       1.42893722       0.00001696      -0.00000628      -0.00000041
H        9.13918712       3.24107445       4.17771393      -0.00000524       0.00000882       0.00000250
H       15.06636249       6.89170623       0.69549883       0.00000111      -0.00000742       0.00000239
H       10.98191192       4.63935194       4.96820921      -0.00000851      -0.00000321      -0.00000524
H       13.30743903       5.41708856      -0.07575657      -0.00000027      -0.00001032      -0.00001053
H       11.72149821       3.29617581       5.68231113      -0.00000512       0.00001284      -0.00001806
H       14.04700954       4.07392919       0.63839430       0.00001400      -0.00000491       0.00001246
H       10.26059516       3.83214288       6.26455155       0.00000498       0.00000098       0.00000479
H       14.76835941       4.88110306      -0.65794782      -0.00001437       0.00000801      -0.00000522
C       10.10626381       2.79689319       4.43349656       0.00000421      -0.00002092       0.00001025
C       14.92263756       5.91640511       1.17308199      -0.00001469       0.00000586       0.00000088
Pb      11.76601879      15.71639646       9.09025044       0.00001628      -0.00000358      -0.00000284
Pb       7.78354514      15.65661014       9.09776229       0.00000368       0.00001626      -0.00000692
N       10.80720560       3.70259931       5.39239905       0.00001169      -0.00002003      -0.00000501
N       14.22172492       5.01067101       0.21418531       0.00000546       0.00000595       0.00000628
I       15.34414431       9.39499663       7.79057351      -0.00001655      -0.00001305       0.00000344
I        9.70075959      14.41003118       6.83254074      -0.00000496      -0.00000425      -0.00000075
I       15.30985387       9.61426170       3.43193563       0.00000926       0.00000264      -0.00001116
I        9.76657479      14.32421586       2.44393878       0.00000202       0.00000424       0.00001354
I       13.69032909      13.24395682       0.24959201       0.00000075       0.00001185      -0.00001110
I       11.38611924      10.69455775       5.62624156       0.00000550       0.00000199       0.00001061
H       10.30483676      10.17811197      10.89929769       0.00001467       0.00000745       0.00000921
H       13.98412526      14.44957202       5.12956774       0.00000183      -0.00001870      -0.00000925
H       11.06093726       9.35544927       9.49359608      -0.00000932      -0.00000036      -0.00000318
H       14.74005617      13.62687014       3.72379659      -0.00000119      -0.00001082      -0.00000342
H       11.89272082      10.74314406      10.27675769       0.00000806      -0.00000045      -0.00000842
H       13.15223233      13.06187495       4.34652593      -0.00000623       0.00000971      -0.00000263
H       10.77092606      11.41506119       8.21443011       0.00000364       0.00000206      -0.00001583
H       14.27420577      12.38994754       6.40872010       0.00001024       0.00000587      -0.00002624
H       10.05637819      12.17874408       9.54064162      -0.00000569      -0.00000119      -0.00002989
H       15.73679344      12.93881662       5.84311442       0.00000832       0.00001888      -0.00000974
H        9.30829096      10.86620816       8.77993768       0.00001676      -0.00000465       0.00000604
H       14.98867345      11.62627109       5.08246036      -0.00001111      -0.00000626       0.00000780
C       10.92302005      10.31348401      10.00649605      -0.00000471      -0.00002039       0.00000231
C       14.12197055      13.49152521       4.61666958       0.00000158       0.00001969       0.00001421
Pb      13.27890640       8.08860145       5.53284317      -0.00000296      -0.00000166       0.00001472
Pb      17.26139173       8.14839994       5.52540272       0.00000144      -0.00000266       0.00000554
N       10.22521912      11.25704246       9.08242237      -0.00002598       0.00001465       0.00004765
N       14.81985272      12.54797186       5.54068793      -0.00001527      -0.00001447       0.00001914
