40
Lattice="18.20669881431856 0.006207763888840552 -1.0422889025079511 0.023046412535145003 10.67351291267293 0.22077275290044313 0.5592934282692351 -0.19505022897282354 9.739888066881955" Properties=species:S:1:pos:R:3:forces:R:3 energy=-124.15348172434706 stress="0.0045116395184653145 3.753669163832082e-05 1.1115394643329127e-05 3.753669163832082e-05 0.004398752270387097 3.494640893980017e-05 1.1115394643329127e-05 3.494640893980017e-05 0.00459339970928932" free_energy=-124.15348172434706 pbc="T T T"
Cs      -2.17400792       7.65653511      -1.11316216      -0.00001280      -0.00000325       0.00000809
Cs       4.00363836      16.69355055      -3.72303373       0.00000202      -0.00000287      -0.00000541
Cs      -4.96702043      12.99240202      -0.84205551       0.00000845       0.00000029       0.00000474
Cs       6.79660739      11.35760394      -3.99414072       0.00000584       0.00001822       0.00000985
Cs      -1.89440683       7.55896062       3.75678718       0.00001142       0.00001005       0.00000447
Cs       4.28329348      16.59600155       1.14690597      -0.00000423      -0.00000070      -0.00001257
Cs      -4.68735980      12.89489455       4.02789541       0.00000816       0.00000174      -0.00000651
Cs       7.07626764      11.26013602       0.87580936      -0.00000273      -0.00000353       0.00000618
Pb      -7.17218648       8.58333590      -3.25177125       0.00001054       0.00002280       0.00003834
Pb       9.00181892      15.76671777      -1.58437025      -0.00003475      -0.00003895      -0.00001774
Pb      -0.24683165      13.92303010      -3.53712299       0.00001897       0.00002886       0.00001702
Pb       2.07644665      10.42702075      -1.29908945      -0.00003418      -0.00000317      -0.00001112
Pb      -6.89254590       8.48579055       1.61818390       0.00004312       0.00005355      -0.00003050
Pb       9.28143845      15.66921123       3.28558033      -0.00003088      -0.00006523       0.00001751
Pb       0.03281371      13.82551076       1.33281569       0.00001605       0.00001994      -0.00000832
Pb       2.35608936      10.32951668       3.57083959      -0.00002419      -0.00001045       0.00001450
I       -8.13787546      10.40027302      -0.71560991      -0.00000254      -0.00000828      -0.00001653
I       -8.23921677      13.94354697      -3.07821774      -0.00000871       0.00003653      -0.00000950
I        1.00601192      15.73863929      -1.12826047       0.00000912      -0.00002373       0.00000780
I        0.82360218       8.61144846      -3.70797621      -0.00001452       0.00000304       0.00000619
I        7.94657827       7.18393353      -4.14761659       0.00000183      -0.00000967      -0.00001437
I       -6.11695624      17.16612731      -0.68850179      -0.00000813       0.00000106      -0.00001464
I        2.83727423      12.51639377      -3.74459599       0.00000303      -0.00000026      -0.00001262
I       -1.00766272      11.83365766      -1.09161038       0.00000477       0.00001388       0.00000553
I       -4.39455980      10.00454543      -3.38118006      -0.00000385       0.00000427      -0.00000199
I        6.22418440      14.34549186      -1.45501973       0.00001915       0.00001890       0.00000644
I       -3.02011975      15.34430118      -3.34870682      -0.00000265       0.00000178      -0.00001010
I        4.84972562       9.00574258      -1.48746036       0.00002118      -0.00000308       0.00000433
I       -7.85822516      10.30274668       4.15431129      -0.00000988       0.00000596      -0.00000366
I       -7.95955005      13.84605242       1.79173758      -0.00001057       0.00000781       0.00000448
I        1.28565970      15.64110179       3.74168247       0.00000496      -0.00001755       0.00000343
I        1.10324350       8.51391301       1.16199193      -0.00001223       0.00000967       0.00001226
I        8.22621725       7.08638690       0.72231490       0.00000671       0.00001961      -0.00000729
I       -5.83732027      17.06861386       4.18145599       0.00000246      -0.00004400      -0.00000512
I        3.11691171      12.41888767       1.12531627       0.00002283      -0.00001665       0.00000558
I       -0.72801461      11.73615485       3.77834694      -0.00001410      -0.00001331      -0.00001584
I       -4.11491102       9.90702095       1.48877151      -0.00003867      -0.00001836       0.00000416
I        6.50379887      14.24798844       3.41495423       0.00005397       0.00000809      -0.00000312
I       -2.74046741      15.24678320       1.52118572      -0.00002954       0.00000564       0.00001944
I        5.12936218       8.90823007       3.38245255       0.00002459      -0.00000864       0.00000660
