40
Lattice="12.60019781808765 -0.31880100592449173 -0.4690857923476575 0.3239047338535295 12.642823192179128 0.24677459030082666 0.46925427117395097 -0.2846792211316161 12.664815924525568" Properties=species:S:1:pos:R:3:forces:R:3 energy=-122.99423154632254 stress="0.004782370882435578 1.3660770969841928e-05 4.1443543278647366e-05 1.3660770969841928e-05 0.005001330274224721 0.0005340490034572905 4.1443543278647366e-05 0.0005340490034572905 0.005235412251919597" free_energy=-122.99423154632254 pbc="T T T"
Cs      11.20168395       6.14913235       1.53953835      -0.00000846       0.00000415      -0.00000715
Cs       4.73083719       0.77146757       0.89687359       0.00000070      -0.00001742      -0.00001363
Cs       4.97768709       0.81823638       7.42904761      -0.00000709       0.00001162       0.00001009
Cs      11.44847686       6.19614063       8.07176916       0.00000932       0.00000587       0.00001424
Cs      11.27434378      -0.31449834       7.74862822      -0.00001699      -0.00000378      -0.00000584
Cs       5.12752269       6.95052175       7.35260713      -0.00001666       0.00000302       0.00000673
Cs       4.90494439       7.28219203       1.22010350       0.00000361      -0.00000682      -0.00001549
Cs      11.05205154       0.01701857       1.61601276      -0.00001335       0.00000790       0.00000732
Pb       1.62757334      -2.67822419       4.59547435       0.00002441      -0.00000798       0.00001202
Pb       8.08969047       3.48374259       4.48433753      -0.00000225       0.00001806      -0.00001998
Pb       1.78959257       3.64317543       4.71888288      -0.00000049       0.00001618       0.00000076
Pb       7.92771144      -2.83764202       4.36088527      -0.00000168      -0.00002448       0.00003279
Pb       1.39298460      -2.53587050      -1.73694222      -0.00000063       0.00000658       0.00001496
Pb       7.85507029       3.62608765      -1.84805601      -0.00002394       0.00001139       0.00000136
Pb       1.55499528       3.78555076      -1.61356248      -0.00000060      -0.00000121       0.00001754
Pb       7.69309551      -2.69530528      -1.97147779      -0.00001477       0.00000025      -0.00001208
I        1.21798016       0.48381173       5.23497195      -0.00000064      -0.00002622      -0.00000841
I        7.63859522       6.66870480       4.00508121       0.00000338      -0.00001031      -0.00000633
I       14.96133930       6.48378330       3.73376767       0.00000679      -0.00000158      -0.00001099
I        8.54077514       0.29879548       4.96354476       0.00000206       0.00000271       0.00000562
I       11.27076936       3.95697205       4.82566880       0.00001147      -0.00001708       0.00002352
I        5.13370251      10.32759638       5.28718512       0.00001495      -0.00000318       0.00002646
I        4.90860513       3.01057438       4.14300842      -0.00000118       0.00000443      -0.00001365
I       11.04557852      -3.36013629       3.68131256       0.00000716       0.00002356      -0.00001153
I       13.74549784       6.62877948      -1.44319611       0.00000604      -0.00001833       0.00000793
I        7.24202752       0.48964057      -2.45071999      -0.00000563       0.00001026       0.00000331
I        2.43384646       0.33885138      10.41184187       0.00000025       0.00000316      -0.00000922
I        8.93732065       6.47787979      11.41933077       0.00000702       0.00000644       0.00001167
I        5.20644144       3.86390431      11.49641244      -0.00000792      -0.00000578      -0.00000597
I       11.34341163      -2.50675561      11.03469207       0.00002486      -0.00001634       0.00000608
I       10.97295009       3.10372313      -2.52767197       0.00003764       0.00001358      -0.00000200
I        4.83589860       9.47439276      -2.06606952      -0.00001033      -0.00001453       0.00000246
I        1.55557935       9.34993364       8.01545460       0.00000315      -0.00000194      -0.00001475
I        7.72238751       3.98254963       7.68104563       0.00000613       0.00000888      -0.00000917
I       14.62369107      -2.38226529       0.95322589      -0.00000775      -0.00000950      -0.00002417
I        8.45703159       2.98483673       1.28761995      -0.00001935       0.00002162       0.00000359
I        1.15911606       3.17081063       1.55964988      -0.00001624       0.00001422       0.00000915
I        7.64968165      10.44636249       1.47199576       0.00000395       0.00001557      -0.00000169
I       15.02039293       3.79680176       7.40901413      -0.00001428      -0.00002462      -0.00001003
I        8.52955566      -3.47881985       7.49662052       0.00001734       0.00000164      -0.00001552
