768
Lattice="25.041009913 -0.0637585141819 -0.0845858384241 -0.0638174166242 24.9312988033 -0.19545375349600003 -0.08473454295060001 -0.194622360007 24.9897686507" Properties=species:S:1:pos:R:3:forces:R:3 stress="-0.0046452915448758495 0.0014753230132766146 0.00011013222119786907 0.0014753230132766146 -0.0030588578976723014 -0.0015580381198881618 0.00011013222119786907 -0.0015580381198881618 -0.0019214641881759758" energy=-3270.65018459 pbc="T T T"
I       -0.12693855      -0.12362907       3.01724397      -0.15171488      -0.25281800       0.26212005
I        0.43161170      -0.33495759       9.65790163      -0.09123566      -0.00048251      -0.39761165
I       -0.43733890       0.58397822      15.70541183       0.04302157      -0.09820526      -0.66732929
I        0.16281433      -0.72816754      21.58331528      -0.00393571       0.15969821       0.62289807
I       -0.00806484       6.50703380       3.22805059      -0.21988696       0.32943793      -0.33356630
I        0.18000064       6.43375747       9.38270603      -0.00376539      -0.13368511       0.36891908
I       -1.19547588       6.31464205      15.79324709       0.29845218      -0.33116030      -0.20589061
I        0.27772562       5.25873806      22.06170189      -0.14843149      -0.06719109       0.23407578
I        0.53239969      12.32605288       2.80154856       0.14892511       0.06992528       0.38332069
I        0.85623174      11.97904605       9.19604347      -0.56068897       0.50417214       0.16363666
I       -0.83026023      12.66090051      15.59334191      -0.01268428      -0.19305494       0.40921443
I        1.32979003      12.46612488      21.66771774      -0.46480035      -0.09080292       0.02591415
I       -0.01694164      18.46773871       2.92198279      -0.06713348       0.18038613       0.73813277
I        0.60475675      19.52874132       9.46535966      -0.07006325      -0.09369932      -0.50158589
I        0.39189858      18.25312462      15.49934897      -0.61888663       0.14319241       0.98615625
I        0.04449391      18.22740878      21.83607709      -0.56441146       0.35201171      -0.12721374
I        6.32150608      -0.70965437       3.13746226       0.47311609       0.01944627       0.08741924
I        5.78104473       0.72560857       9.35699279      -0.06638548      -0.10384852       0.48814503
I        6.15381720      -0.37564974      15.58226534       0.20589901      -0.24387995      -0.21867754
I        5.07055848       0.41157493      21.78317502       0.26439460      -0.16438368      -0.03783208
I        7.41489708       6.11631759       3.02826851       0.15670956       0.33011309      -0.62934732
I        6.45819143       5.92158066       9.08359918       0.66458811       0.84165102       0.67801858
I        5.81516712       5.93447381      16.04253449       0.08630278       0.26067279      -0.81063063
I        5.30456696       5.67929292      22.25142911      -0.01163392       0.05480174      -0.46059856
I        6.23706120      12.04411138       2.82694942       0.18969561      -0.01523614       0.39453741
I        5.61106910      13.07086960       9.04789133       0.31607399      -0.04755897       0.31044925
I        5.96196664      12.23993646      15.40769204       0.33425289       0.02098666       0.07142121
I        5.68692687      12.54218491      21.76002887       0.31514218      -0.36169676      -0.36990054
I        6.63041711      18.80846874       2.73489736      -0.00655933       0.24094675       0.28966464
I        5.40475708      18.54531958       9.18285899       0.79638616       0.14404578      -0.02608891
I        6.95819973      18.50261260      15.55549314       0.29335470      -0.01130727      -1.12764732
I        5.95138683      18.93665211      21.26846453       0.15101060      -0.22825072       1.06945667
I       11.59829854      -0.61216875       3.01887867       0.07912090       0.22011281       0.37465479
I       13.06639940      -0.02346769       9.30085381      -0.03189575       0.22733043      -0.55222133
I       12.23519678      -0.46860709      15.62198592       0.11127329       0.34926346      -0.42177508
I       12.62809679       0.16531336      21.66914299      -0.55011568      -0.21248847       1.02733000
I       12.62957582       6.50200215       3.40584989       0.00619352       0.03363098      -0.15513189
I       12.54358891       5.34458946       9.46466807      -0.13539147      -0.24936328       0.22536212
I       12.35793952       6.16569694      15.93197694       0.02145970      -0.06949540      -0.47248465
I       13.15912266       5.73660565      22.22556773      -0.99659212      -0.17268297      -0.17836373
I       12.32623468      12.81973129       2.99607685       0.22321391      -0.39454662       0.48145608
I       12.07611057      12.49581934       9.35951198       0.22860629       0.10322386      -0.07294295
I       12.53530735      12.39542622      15.67580330      -0.22985451       0.42330615      -0.25397547
I       13.30759926      11.88529547      21.96655145      -0.20544868       0.10910446      -0.61162748
I       12.61497849      18.43577732       3.24342834      -0.34226850      -0.17963170      -0.81362706
I       12.07823198      18.70987949       9.18520949      -0.06787136      -0.05491915       0.81123327
I       11.82037745      18.61884193      15.74976443       0.28713126       0.30309419      -0.63506792
I       12.80479482      18.70480649      21.86774292       0.08146502      -0.10767261       1.12072670
I       18.86785257       0.08196245       2.88290813       0.01749527       0.11862036       0.47760601
I       18.72886660       0.06848497       9.30402924      -0.40608224      -0.14653798      -0.22356462
I       17.96652769       0.04032220      15.68726637      -0.02459681      -0.13396389      -0.30602560
I       18.32631947      -0.09329554      21.75431644       0.31747430       0.14070378       0.41039019
I       19.38911489       5.77568117       2.97783240      -0.09355532       0.96830292      -0.07905584
I       19.24942094       6.32824226       9.22905735      -0.31822452      -0.07627638       0.09504712
I       18.33853273       6.57575218      15.65109061      -0.13730932      -0.32943837      -0.99836157
I       18.78816160       5.59824590      21.71329236       0.32237053       0.25562736       0.03790383
I       18.66494273      12.92843866       3.14898559       0.14878997      -0.15084496      -0.21533171
I       18.87666897      11.65651008       9.52349563       0.00119333       0.03431271      -1.40464256
I       19.20141167      12.80942515      15.60631536       0.14745997      -0.36806938      -0.21343813
I       19.31893924      12.71642572      21.86453477      -0.06195333      -0.20787680       0.11686487
I       18.69234112      18.37008381       3.17424753      -0.28485806      -0.12237227       0.03179789
I       18.47406472      18.81719207       9.36830087      -0.01096280       0.08762747      -0.20774592
I       18.18583177      17.96795005      15.47255370       0.54653788       0.00859027      -0.02627117
I       19.46242047      18.11123834      22.01696150      -0.32950366       0.57859440      -0.42793967
I        3.35998001      -0.25958850       1.11911145      -0.57416572      -0.08615650      -0.05071562
I        3.05338799       0.00340976       6.09220471       0.02995503       0.20896203      -0.17439196
I        3.08385138      -0.16598729      12.86120759      -0.72927650       0.11443592       0.15682624
I        3.26512021      -0.29312542      18.20435850      -0.07046007       0.14280717      -0.15332699
I        3.24439535       6.28320971       1.05278801      -0.48521018      -0.28932249      -0.28089592
I        3.28034099       6.13690198       6.43142704      -0.76838470       0.67632571      -0.78537069
I        3.15901464       5.75872324      11.84467305       0.34764721       0.07957976       0.43503174
I        3.08799914       6.08674485      18.58176153      -0.56523083      -0.05331155       0.00141619
I        3.41187611      11.88730672      -0.09529244      -0.58747604      -0.21168090       0.14342671
I        3.28395990      13.14553543       5.87803466      -0.53108512      -0.09301920      -0.13939298
I        3.18691193      12.40561342      12.92519430       0.26510307      -0.03685829      -0.08187615
I        2.82446903      12.55712258      17.77179881       0.20221925      -0.06982167      -0.21412119
I        3.01309948      18.78366851      -0.19230307       0.14262182      -0.31272668      -0.34877364
I        3.36498319      18.94612067       5.03828098       0.26610483      -0.49487327       0.65738180
I        3.27076613      19.22604978      12.58570987       0.10446277       0.01974123       0.14828888
I        3.07068500      18.88601685      19.32869087      -1.19280963      -0.12220161      -0.39355803
I        9.37691834       0.33725435      -0.75235951      -0.21045161       0.01121440       0.14374628
I        9.21634276       0.06132525       7.12915997       0.18238678       0.23154339      -0.20544296
I        9.52935653      -0.20142439      12.63077693      -0.48456814       0.28776230      -0.17120843
I        9.27690214      -1.27509979      19.20709537       0.33678179       0.39893945       0.34960325
I        9.03737341       5.88675023      -0.91121509       0.58335999       0.04513654       0.14476256
I        9.36422414       6.58492301       6.53571235       0.41122757      -0.26140011       0.08358139
I        9.69891701       6.74182580      12.47541851      -0.31486447      -0.00364768      -0.23894978
I        9.21631684       6.05149521      18.50682790       0.58758280      -0.29362859       0.05155085
I        9.53192886      11.96777556       0.19041123       0.15744529      -0.14394557      -0.16775630
I        9.28175085      12.58005702       6.42244862       0.51852162       0.42105912      -0.11884777
I        9.03815667      11.61218626      12.87512384       0.57699081      -0.00921675      -0.13219895
I        9.11360026      12.24771633      18.26291235      -0.53970798      -0.34420347       0.04663849
I        8.96478563      18.64888884      -1.68036101       0.26157844      -0.20852305       0.30308691
I        9.33009900      18.88011609       6.01519883       0.55402983      -0.24675709       0.03697583
I        9.71823168      18.14021996      12.13072197      -0.53960323       0.53963096       0.12816400
I        9.47428886      18.94247271      19.08528424      -1.08870752       0.00881127       0.03312344
I       15.54255655      -0.04883027       0.32593166       0.53869555      -0.14874472       0.01396591
I       15.35250048      -0.48299816       5.29272328       0.17856558      -0.05260052       0.13755357
I       15.57678065       0.06814474      12.41634265      -0.00451629      -0.09659529       0.05039897
I       15.32258014       0.17586247      19.44339751       0.52806388      -0.06523523      -1.09532028
I       15.83872796       6.36910984       0.49780946      -0.57589330       0.09337355       0.19101331
I       15.71878096       6.39023442       6.11314896       0.39135985      -0.09125383       0.13967442
I       15.91153204       5.61761527      11.89467922      -0.29012657       0.21983230       0.05783217
I       15.33319023       6.28194493      18.75659614      -0.17857041      -0.51917051      -0.79992281
I       16.28871806      11.66949535      -0.45904214      -0.62120468       0.48638825       0.15680350
I       15.92222010      13.12004695       5.80679825      -0.26852565      -0.22369644       0.26185086
I       15.75947376      12.41118780      12.13897654      -0.58604150       0.03655216      -0.16425886
I       15.39550525      12.63218988      18.76984549       0.21430922       0.07092695      -0.06881676
I       15.41714801      18.06081830      -0.34774844       0.33426479       0.29271636       0.25246574
I       15.71478993      19.06529558       5.89414854       0.24509683       0.05890877      -0.06042773
I       15.89798107      18.75388016      12.42734705      -0.58841617      -0.46026921      -0.08126831
I       15.39818526      19.10710631      18.47405693       0.92579174      -0.35259595       0.24834844
I       22.13072775      -0.38776477      -1.00490061      -0.12845494       0.06346346       0.15085545
I       22.01536038      -0.47888387       6.67711928      -0.60764309      -0.08690553      -0.69205860
I       21.43955896      -0.54278495      11.81040631       0.98542826       0.14297343      -0.01545084
I       21.69412475      -0.50437015      18.41926758       0.11055729       0.00391194       0.02193847
I       21.94576243       5.51428247      -0.43101733      -0.02164650       0.06308712       0.17011618
I       21.82850782       6.55739137       6.40179419       0.33955737      -0.17856746      -0.23887598
I       22.00455465       5.84507734      11.87904478       0.07657925      -0.10650567       0.18928561
I       21.52145859       6.46860480      18.74370283       0.47537248      -0.07649468       0.12405939
I       22.17010513      12.39337212       0.71127444       0.49068670       0.12984908      -0.12222977
I       22.22421746      12.18076367       5.88941988      -0.04099591       0.07373319       0.03924692
I       22.04579426      12.03635341      12.06563170       0.13227103       0.23677176      -0.13668108
I       21.92988184      12.30874240      19.33681777      -0.27886302      -0.30267534      -0.29858625
I       21.78947240      18.70045276      -0.05946509       0.16651765      -0.00492045       0.17984423
I       22.19365513      19.05188480       5.52658607       0.08835630       0.29703842       0.45541875
I       22.14956747      18.76384034      11.87678186      -0.39904842      -0.12664212       0.17605461
I       21.59597561      18.33479928      18.00068473       0.37690328      -0.03172157       0.08420423
I        0.01841242       2.93450028       1.01934957      -0.96474897       0.76850394      -0.74279887
I       -0.21912769       3.43489320       5.35816542       0.08274095      -0.46723382       0.52152036
I        0.40157671       2.88369574      12.24764560      -0.24859060       0.63424056      -0.37166174
I       -0.48601628       2.76982302      18.92637027      -0.05190395       0.70974099       0.26870643
I       -0.28440630       9.28547416      -0.36484078       0.13912847      -0.21799105      -0.01981832
I        0.20704484       9.52801420       5.56860721       0.09769434      -0.85446005      -0.11957533
I        0.18641554       9.28120172      12.70180384       0.10988168      -0.06748502      -0.11413047
I       -0.05887856       9.18529967      18.56372279      -0.06566627       0.89477617      -0.01536589
I        0.29238547      15.59610007       0.07399533      -0.15732985      -0.25653427      -0.00757723
I       -0.32046954      15.59402794       6.24644628       0.15158360       0.40627864      -0.09758401
I        0.82019335      15.58566431      12.11116053      -0.43368238       0.05050280       0.07459539
I        0.54857798      15.42919981      18.87223489      -0.20360166       0.23839338      -0.11974625
I       -0.02750445      21.99171317      -0.17949387       0.20841751      -0.34583186      -0.09013946
I        0.51902444      22.08066159       6.20478276      -0.12073264      -0.19319502       0.00517296
I       -0.12668177      21.82455282      12.98086693      -0.14839757       0.14828855       0.02411612
I        0.15949345      21.79005773      18.19245316      -0.56202184      -1.26587069       0.10210606
I        5.51855073       3.16281227       0.00887608       0.23705432       0.15594536      -0.06318105
I        6.16946242       3.29466741       6.18667373       0.36427322      -0.46901399      -0.26263585
I        6.72890858       3.29978450      11.92713596       0.16108300      -0.90023615       0.36137762
I        6.22234994       2.75172666      18.02328570       0.10542997       0.47303323       0.22205764
I        6.61891119       9.24225472      -0.80777728       0.00263411       1.19729348      -0.03195229
I        6.43545744       9.39789564       6.45348716      -0.13487567       0.36237400      -0.00493369
I        5.44424238       9.19086537      12.65488798       0.57279451       0.36811491      -0.44715338
I        5.80378194       9.17243912      18.79051147       0.05676683      -0.17485134       0.05523027
I        6.99557576      15.65898198      -0.41722824      -0.29296777      -0.22002873       0.46282550
I        5.88033046      15.49151153       5.38514374       0.56570751       0.02882285      -0.07566343
I        5.69260148      15.84159340      12.58575352       0.28648275      -0.25779721       0.17215175
I        6.16355704      15.35019288      18.47630195       0.06670788       1.38472629      -0.29293180
I        6.37885708      21.94777367      -0.89238114       0.03921502       0.61816542       0.22980658
I        6.23664854      21.84721791       6.62570990       0.06007800      -0.54767564      -0.18102818
I        6.29419762      21.89282065      12.20125423      -0.19600370       0.12590739       0.37843510
I        6.35704698      21.54106434      18.20819840      -0.05508857       0.50928395      -0.01500268
I       12.83108711       3.02902846      -0.38530038      -0.19607653       0.04663556       0.55156724
I       12.97271981       3.40159424       5.73230918      -0.25539858      -0.44148330       0.11859022
I       12.17757613       3.08351098      12.87630042       0.12393898       0.54293359       0.08796458
I       11.80793268       2.90781702      18.52974347       0.20347708       0.55604260       0.09179541
I       13.00399403       9.38478257      -0.06028633      -0.10167976      -0.19610732       0.12319907
I       11.75450640       9.41153092       6.03472979       0.80563786      -0.01836643       0.53911043
I       13.19844653       9.24131798      12.28889064       0.00833517      -0.00198550      -0.00344234
I       12.37381246       9.58103365      18.42918511       0.01577792      -1.58271161       0.02558734
I       12.55758528      15.67507355      -0.10594307      -0.01947451      -0.78197135      -0.23247500
I       12.57167108      15.67290753       5.80540188       0.03035539      -0.07458758       0.54816265
I       12.58094257      15.88473646      12.19964760       0.25654957      -0.82863458       0.11690904
I       11.71123270      15.57679446      18.27522341       0.37010743      -0.10346206       0.11654037
I       12.49809863      21.45701460       0.07992930       0.03739576       0.28808957      -0.41666641
I       11.35675341      22.23490822       5.96777992       0.56579316      -0.64319200       0.17899986
I       12.31341716      21.83952815      11.69913972       0.03710915       0.67613158      -0.04845298
I       12.33061606      21.69680580      18.88878404       0.35923760       0.34262746      -0.00899750
I       17.88300474       3.04191451      -0.28577418      -0.08106053       0.31508118       0.04864215
I       19.86603244       2.76056223       5.75803101      -0.57908595       0.27581075       0.73534827
I       18.92964454       3.00143754      11.90768227       0.08041497      -0.25497851       0.08943705
I       19.01943262       2.85393767      18.31782019       0.10205806      -0.20550482       0.21504094
I       19.05440852       9.15949375      -0.26884709       0.66830421       0.13869637       0.16232115
I       18.88508083       9.38197697       6.44289327       0.35367120      -0.26975273      -0.83222250
I       19.11994264       9.40809760      12.38158276      -0.50471265      -0.52874808      -0.13638758
I       18.59409953       9.12924178      19.09590696      -0.11276897       0.30020053      -0.01609487
I       18.80823864      15.52992332      -0.52140153       0.02051177       0.20151737       0.32758917
I       18.91499647      15.62821910       6.59165712       0.13027446       0.61644090       0.03220567
I       19.35216542      15.57993992      11.26846188      -0.01157411       0.10155440      -0.02774695
I       18.56760062      15.35596652      18.57957849       0.20521233       0.72231080      -0.07605016
I       18.67210513      22.14959214      -0.24149820       0.06860458      -0.80804661       0.00479378
I       18.83872345      21.83665779       4.91210428       0.03312953       0.02719031       0.35550384
I       18.18612587      21.47436235      12.52394742       0.34080038       1.24736461       0.17046001
I       18.70487201      21.22112308      17.41532346       0.23758623       0.85549665       0.70549945
Pb       0.61601609       0.22060772      -0.14394736      -0.21275235      -0.86896181      -0.08907801
Pb       0.03839154       0.01407555       6.54060846       0.24055484       0.99226451      -0.40490966
Pb      -0.53121233       0.10888608      12.58530429       0.13625398      -0.51720964       0.28028316
Pb       0.25561316      -0.24606202      18.58466982      -0.05819181       0.29010881       0.20700834
Pb      -0.14387469       5.96103116       0.19036405       0.24332927       0.15238222      -0.24280660
Pb       0.15165610       6.51948768       6.37017981      -0.31555040      -0.35815578      -0.14962518
Pb      -0.11436744       6.16073626      12.59525198       0.25696191      -0.11144184       0.27940580
Pb      -0.19041694       6.39486284      19.17421066      -0.27183695      -1.28966551      -0.46522901
Pb       0.11883721      12.42891537      -0.13071352       0.36817474       0.00407406      -0.53722637
Pb       0.35326208      12.38508039       6.06840361      -0.17059867       0.96736383       0.66510161
Pb       0.24815553      12.60346255      12.73448648      -0.74536780      -0.31537789      -0.72120736
Pb      -0.17487650      12.33379405      18.86174250       0.52977514       0.16522287       0.12116160
Pb      -0.07426343      18.66775492      -0.02440138      -0.44897223       0.60020653      -0.20422985
Pb       0.60357736      19.18051691       6.27268000      -0.56255644      -1.21421242       0.38588810
Pb       0.08530796      18.63079624      12.63027193       0.28439032       0.39188711      -0.60447587
Pb      -0.28681346      18.39375503      18.77709386       0.29937575       0.25649290      -0.53903363
Pb       6.07313736       0.18478176      -0.26104694       0.46994489       0.20593905       0.01865192
Pb       6.09065959      -0.10109190       6.48774025       0.16699809       0.29585822      -0.57862456
Pb       5.98972652       0.10763382      12.63408795       0.95974661       0.18888019      -0.72899458
Pb       6.62326016      -0.22823297      18.48049559      -1.09167630       0.46502289       0.76267683
Pb       6.16307246       6.60320489       0.21829756       0.35488087      -1.35596919       0.25751313
Pb       6.31875718       6.38015929       5.74923934       0.31371391      -0.10551695       0.78114289
Pb       6.50798267       6.08996132      12.57271080      -0.45268228       0.49313973      -0.13731663
Pb       6.44387901       6.10402021      19.24812916      -1.24348974      -0.29448499      -0.37520621
Pb       6.39449381      12.52164127      -0.09013547       0.28480342       0.35475007      -0.54802437
Pb       6.26377312      12.49302567       5.86834454       0.24172317      -0.83121757       0.42444892
Pb       6.31586897      12.82063609      12.26302525      -0.16347515      -0.51074353      -0.18068703
Pb       5.87251293      12.55559812      18.52146777      -0.27335870      -1.43481769       0.21870906
Pb       6.05763229      19.16359280      -0.24424092       0.26545316      -0.94104357      -0.48427922
Pb       6.45604169      18.20892249       6.14489301      -0.93440475       1.37867529       0.32598207
Pb       6.69590095      18.77414635      12.46038688       0.05986439       0.30354933      -0.05795088
Pb       5.90891204      18.68970497      18.28761443       0.12654541      -0.53398661       0.52684816
Pb      12.61905174      -0.11239547       0.20234762      -0.39656044       0.24449131      -0.88813482
Pb      12.37858729       0.26686670       6.06512346      -0.17515672      -0.15840643       0.30090020
Pb      12.51923521       0.25989103      12.38035794      -0.55885122      -1.14197482       0.14595620
Pb      12.07389569      -0.14744624      18.75157758       0.47453295       0.25524561       0.10689018
Pb      12.49641770       6.30945041       0.29474235      -0.03911583      -0.21777589      -0.49279334
Pb      12.81088030       6.28690750       6.65004709      -1.14275811       0.48354337      -0.57785525
Pb      12.81388966       6.07501423      12.36748492       0.27397464       0.59893927       0.53933114
Pb      12.33990792       6.32492198      19.03175419      -0.05546358      -0.18240900       0.14102456
Pb      12.51270906      12.62417755      -0.21428412       0.09430754      -0.57342401       0.37254215
Pb      12.94510586      12.18978446       6.12617641      -0.29091694       0.65700547      -0.07861362
Pb      12.64253133      12.78370253      12.44308317      -0.23667756      -0.12964586      -0.02143257
Pb      12.03163734      12.40165193      18.92708945       0.77822437       1.24204369       0.17782870
Pb      11.60925462      18.41006304      -0.19474198       0.08908126       0.93321270      -0.26147716
Pb      12.73380995      18.77101925       6.36436407      -0.07782047       0.09206424      -0.60885555
Pb      12.93098218      19.09353713      12.39585515      -0.74629982      -0.57639790       0.46265451
Pb      12.42680735      18.68835682      18.96043191      -0.22067268      -0.76012294      -0.79093219
Pb      19.14018456       0.26786112      -0.13831451       0.11641381      -0.09407102      -0.29840210
Pb      18.42433754      -0.16832343       6.18703036       0.30536226       0.06878947      -0.48477193
Pb      18.51601173      -0.22803863      12.62971696      -0.18861662       0.23609978       0.19188114
Pb      18.55627466      -0.32456632      18.72114938      -0.02912834      -0.10996406      -0.36200619
Pb      18.74261599       6.10572574      -0.29165852       0.44860540      -0.48171510       0.04228373
Pb      18.77091278       5.87550696       6.18637548       1.01781512       0.23689109       0.12239268
Pb      18.94800814       6.27335711      12.35894093      -0.25448338       0.09156909       0.29037809
Pb      18.42338993       6.11598711      18.52979315       0.50606391      -0.06043215       0.57094831
Pb      19.23486275      12.32972536      -0.02340849      -0.75335712       0.36037493      -0.01718623
Pb      19.24637460      12.58730665       6.20115257      -0.27867134      -0.39290960       0.01983369
Pb      18.81423153      12.78016166      12.13889500       0.69856477      -0.00976730       0.99435528
Pb      18.54317447      12.41966606      18.53412664      -0.22128375      -0.57756145       0.41977385
Pb      18.42934758      18.72960929       0.16781820       0.23083164      -0.21661102      -0.39910093
Pb      19.18931669      18.84625703       6.44816353      -0.15477990      -0.20849063      -0.44902543
Pb      18.89305116      18.55494283      12.45708002       0.65100828      -0.67116440       0.39081622
Pb      18.60567748      18.53137717      19.02413246      -0.29071491      -0.20601418      -0.41943599
C        3.78454475       3.02668683       3.27563394       0.46677705      -0.22072835      -0.33476578
N        2.40934306       3.34848264       2.89254251      -2.48127331      -1.89181661       0.76879903
H        4.43716040       3.12181654       2.35326343      -0.72048349      -0.75295147       0.75011812
H        3.79494120       2.05417753       3.80288687       0.37436289       0.42948792      -0.24659661
H        4.11990271       3.85805527       3.87779651       0.17610391       0.10194525       0.82506117
H        2.45265622       4.21162933       2.37454106      -0.48372502       0.82593752      -0.74101936
H        1.79184774       2.61503310       2.35139848       1.88901006       0.98175676       0.03955681
H        1.62644700       3.43025492       3.64694277       1.54459052       0.48787822       0.01874023
C        2.82248282       3.39110509       8.99861779      -1.61241297      -3.99665899       2.94690372
N        4.00917945       4.08211137       8.76952978       1.89621536       1.07109176      -3.14216670
H        2.45149568       3.84914067       9.93804069      -0.48844838      -0.48322392      -0.31038268
H        3.07506856       2.26060926       9.27010641      -0.53997838       2.00043779      -0.49704656
H        2.00369104       3.36277785       8.29194700       0.20762827       0.44306206      -0.86441553
H        4.26611835       4.60926316       9.59509437       0.58410749       0.36127999       0.46751252
H        4.84332034       3.55219140       8.37237012      -0.69785315       0.09758951       0.65738366
H        3.88033630       4.81631181       7.93845770       0.07438569      -0.72636997       1.42440874
C        1.89263643       3.65619938      15.19763332       3.86911708      -2.04834638       1.31650341
N        2.30218104       3.11066450      16.55808502      -0.38215769      -1.54178780       0.55569398
H        0.92207258       3.87913148      15.04056702      -3.64546083       0.25108659       0.43774517
H        2.18047895       2.76648947      14.68465694       0.05070530      -0.16388666      -1.75069404
H        2.43779087       4.52846265      14.91626799       1.07785787       0.52798768      -0.02816950
H        2.10875480       3.74990491      17.31343061       0.10799058       0.80257153       0.89720144
H        1.74749805       2.22807096      16.79854599       0.05290721       1.00888087      -0.48889175
H        3.28635905       2.71430405      16.68222527      -0.68274073       1.09264618      -0.57438500
C        2.99920214       2.85990439      20.24309804       0.48762752       0.80834388       1.22894162