40
Lattice="16.01161140017708 0.0365822806404481 -0.25512517865314 -0.032497114010479354 13.909146255940847 -0.04577322037433889 0.13434068778017572 0.028074174310600494 8.430574290762534" Properties=species:S:1:pos:R:3:forces:R:3 energy=-123.50650572001733 stress="5.0304472217568965e-08 7.277904135468563e-09 2.425354928120717e-08 7.277904135468563e-09 -5.726746655012052e-08 2.1910991819582883e-08 2.425354928120717e-08 2.1910991819582883e-08 5.919294084355417e-08" free_energy=-123.50650572001733 pbc="T T T"
Cs       1.48742058       2.63872222       3.51322527       0.00000276       0.00000184       0.00000516
Cs       5.40912830       5.25304858       7.65860166      -0.00001731      -0.00000128      -0.00002500
Cs       1.26168189       9.57894710      -0.72265106      -0.00001611      -0.00000895       0.00001169
Cs       5.46803698      12.19394114       3.41800030       0.00000315      -0.00002573       0.00000937
Cs       9.49325935       2.65700397       3.38561428      -0.00001314      -0.00000853       0.00000971
Cs      13.41490802       5.27134188       7.53098372       0.00000283       0.00000760      -0.00000874
Cs       9.26748619       9.59721334      -0.85015657      -0.00001046      -0.00000390      -0.00000615
Cs      13.47383537      12.21221044       3.29046513       0.00001047      -0.00000481       0.00000472
Pb       4.18482422      14.38066038       7.64756767       0.00001576       0.00000222      -0.00001514
Pb       8.18770992      14.40131395       7.58377330      -0.00002055      -0.00002257       0.00001414
Pb       2.67921057       7.42022157       3.47834683      -0.00005175       0.00002582      -0.00000852
Pb      -1.32367124       7.39960270       3.54221543       0.00002520       0.00002043       0.00000983
Pb      12.19063605      14.39897384       7.52007726       0.00003709      -0.00001577      -0.00000803
Pb      16.19351175      14.41961490       7.45623189      -0.00000391      -0.00001383      -0.00001472
Pb      10.68501931       7.43853180       3.35089854      -0.00000824      -0.00000966      -0.00000543
Pb       6.68214160       7.41787404       3.41464733      -0.00000398       0.00002072       0.00000856
I        6.19414901       1.77230566       1.40009340       0.00005727      -0.00001365      -0.00000129
I        0.56795039       6.09135113       1.34107640       0.00000501      -0.00000235      -0.00001236
I        6.25929928       1.78592457       5.48112462      -0.00000718       0.00001516      -0.00000007
I        0.63729949       6.10587851       5.69062631      -0.00000929      -0.00002687       0.00000670
I        4.58521980       4.89772659       3.45642005       0.00001636      -0.00000423      -0.00000557
I        2.31133745       2.99402414       7.71535923      -0.00002831       0.00002289      -0.00001740
I        4.63400672       8.73724102       5.61817237       0.00003555       0.00001104       0.00002708
I        2.22994935      13.06367921       5.50773546       0.00001417       0.00000492       0.00002659
I        4.56478425       8.72276473       1.26863153       0.00002628       0.00000204       0.00001760
I        2.16494816      13.05005510       1.42672957      -0.00000072      -0.00000603      -0.00001432
I        6.29350763      11.87012050       7.62226933       0.00000505       0.00001181       0.00002619
I        0.57052840       9.93078349       3.50360433       0.00002934      -0.00001962      -0.00001367
I       14.20001560       1.79065596       1.27255096       0.00000631      -0.00000236       0.00000479
I        8.57385478       6.10968992       1.21353047      -0.00002280       0.00000496       0.00000081
I       14.26505129       1.80416889       5.35356884       0.00001764       0.00002024       0.00001860
I        8.64303827       6.12406459       5.56307262       0.00000163       0.00002855      -0.00002022
I       12.59103881       4.91603703       3.32894611      -0.00000769      -0.00002825      -0.00000785
I       10.31712507       3.01231970       7.58787706      -0.00002622       0.00001465      -0.00001591
I       12.63988474       8.75556078       5.49069654      -0.00001593      -0.00000174      -0.00000018
I       10.23583183      13.08199775       5.38021258      -0.00002534      -0.00000557      -0.00001324
I       12.57054035       8.74106607       1.14115539      -0.00000037       0.00000608      -0.00001764
I       10.17072433      13.06829293       1.29917145      -0.00001349       0.00000203       0.00002296
I       14.29930723      11.88843145       7.49484377       0.00000706      -0.00000052       0.00001695
I        8.57634711       9.94906420       3.37616620      -0.00001616       0.00000319      -0.00000998
