40
Lattice="15.900576088407206 -0.2734056392018524 0.5758555802312237 0.18029596024772301 14.99058653577589 -1.5466872076606182 -0.2561374293566919 0.9324068765784426 8.541608640226388" Properties=species:S:1:pos:R:3:forces:R:3 energy=-122.94528181177564 stress="0.0034717575787375715 8.60324018661033e-06 -8.038468786211866e-05 8.60324018661033e-06 0.005074943560344184 -3.053824672161004e-05 -8.038468786211866e-05 -3.053824672161004e-05 0.0038200703844267964" free_energy=-122.94528181177564 pbc="T T T"
Cs      -4.84839141      11.34523471       0.88985607       0.00000754       0.00000435      -0.00001023
Cs      -1.19048390      14.51812943       4.80146314      -0.00000792      -0.00000742       0.00001597
Cs      -4.72605055      18.64285740      -4.30550887       0.00000763      -0.00001146       0.00000573
Cs      -0.87620106      21.27877403      -0.09134405      -0.00000084      -0.00002813      -0.00001103
Cs       3.10188821      11.20858683       1.17764015      -0.00001834       0.00000339       0.00002808
Cs       6.75997180      14.38122359       5.08950049       0.00001947      -0.00000185       0.00000973
Cs       3.22416709      18.50596298      -4.01763956       0.00000914      -0.00000038       0.00001785
Cs       7.07399160      21.14206123       0.19655249      -0.00001238      -0.00002025      -0.00001348
Pb      -2.26789099      24.42314961       3.94752115      -0.00001177       0.00002474       0.00000051
Pb       1.68871626      24.34899334       4.07582590       0.00001596      -0.00001383      -0.00000714
Pb      -3.59059406      16.43081798       0.19719379      -0.00002751      -0.00001080      -0.00000383
Pb      -7.54720915      16.50490181       0.06888064       0.00000585      -0.00000605       0.00000576
Pb       5.68238942      24.28638380       4.23533602      -0.00000220      -0.00002119       0.00001468
Pb       9.63899352      24.21225552       4.36382497       0.00000816      -0.00001092      -0.00000909
Pb       4.35968861      16.29394474       0.48515808       0.00000657       0.00002643      -0.00000225
Pb       0.40308606      16.36819774       0.35671712      -0.00000632       0.00002051       0.00000937
I       -0.19716608       9.63508724      -0.69008618       0.00000170       0.00000850       0.00000637
I       -5.58544744      15.29586566      -2.16012093       0.00000008      -0.00000516       0.00000077
I       -0.32192206      10.80828679       3.40440178       0.00001512      -0.00000731      -0.00001825
I       -5.71683261      15.05507718       2.28703302      -0.00001217      -0.00000237      -0.00002378
I       -1.70468475      13.83404380       0.26904571      -0.00002805      -0.00001029       0.00002287
I       -4.33415854      12.02929464       5.42223386       0.00000547      -0.00000201       0.00000484
I       -1.73126488      17.75692457       2.46658746       0.00000456       0.00000042       0.00000938
I       -4.12718070      23.09700729       1.67812728      -0.00000629      -0.00000371       0.00001747
I       -1.54065950      17.71760314      -1.92647469       0.00001262      -0.00000041      -0.00000784
I       -4.06169261      22.20403906      -2.47035706       0.00000881      -0.00002339      -0.00001806
I       -0.26089938      21.79206729       3.92264622      -0.00000604       0.00000162       0.00000638
I       -5.59764549      19.06186661       0.22207545       0.00001655      -0.00000297       0.00000150
I        7.75299123       9.49842787      -0.40223364       0.00002427      -0.00000865      -0.00002140
I        2.36482977      15.15899416      -1.87218464       0.00000407       0.00000036      -0.00001530
I        7.62847640      10.67140931       3.69223760      -0.00001562       0.00002397      -0.00000267
I        2.23328771      14.91830916       2.57492168       0.00001472       0.00001440      -0.00000192
I        6.24567212      13.69722935       0.55711332      -0.00000116       0.00001031      -0.00000542
I        3.61622898      11.89257604       5.71015919      -0.00002501       0.00000586      -0.00001850
I        6.21893025      17.62002161       2.75462801       0.00000804       0.00001932      -0.00000270
I        3.82303413      22.96038085       1.96587583       0.00001727      -0.00000863       0.00001168
I        6.40962581      17.58078742      -1.63846621      -0.00002025       0.00000605      -0.00000183
I        3.88860211      22.06713004      -2.18264518      -0.00000320       0.00002640       0.00000907
I        7.68937490      21.65530129       4.21062107       0.00000531      -0.00000241      -0.00000558
I        2.35278289      18.92508134       0.50991606      -0.00001384       0.00001295       0.00000229
