320
Lattice="25.290226820985534 -0.24910213588256794 -0.26223396746044314 0.235650164811407 25.023589357995988 1.0850922526817068 0.18573296399695735 -1.2006138283410719 25.021193503022033" Properties=species:S:1:pos:R:3:forces:R:3 energy=-985.2922472926009 stress="0.004026745720919288 -1.732253026746564e-05 -7.01203515070655e-05 -1.732253026746564e-05 0.0033164964236251384 0.0007038713220861422 -7.01203515070655e-05 0.0007038713220861422 0.00345620603496323" free_energy=-985.2922472926009 pbc="T T T"
Cs      14.63463306      10.54769576       6.74904325      -0.00001040       0.00000708       0.00000843
Cs       8.25455349       5.21390375       5.75856406      -0.00000960      -0.00001813       0.00001354
Cs       8.30276555       4.71738616      11.79880988      -0.00001408      -0.00000770      -0.00001002
Cs      14.68278727      10.05127505      12.78908595       0.00000251      -0.00000472      -0.00000862
Cs      14.62210792       3.99178153      12.73304578      -0.00000312      -0.00001688      -0.00001646
Cs       8.35991485      11.16968175      12.28507373      -0.00000948      -0.00001251       0.00000546
Cs       8.31516564      11.27340694       5.81458996       0.00000395       0.00000625      -0.00000134
Cs      14.57753141       4.09550387       6.26258687      -0.00001429       0.00000801      -0.00000054
Pb       5.08719458       1.43893560       9.06812876       0.00000671       0.00001342       0.00000024
Pb      11.46868249       7.63254372       9.27388026      -0.00002620       0.00000444      -0.00000105
Pb       5.14613453       7.69481435       9.33944106      -0.00000403       0.00000500      -0.00000541
Pb      11.40976059       1.37667774       9.00251831       0.00000697       0.00000521       0.00000943
Pb       5.04075499       1.73909516       2.81281402       0.00000778       0.00000663       0.00001192
Pb      11.42222622       7.93275428       3.01860253       0.00000532      -0.00000981      -0.00000891
Pb       5.09966699       7.99501369       3.08411959      -0.00000852       0.00000266       0.00000332
Pb      11.36333138       1.67685723       2.74725046      -0.00000408      -0.00000217       0.00000837
I        5.59749354       4.59079150       8.55511158      -0.00001868      -0.00000395       0.00000182
I       11.98803536      10.72787730      10.04612917       0.00000816       0.00000405       0.00002181
I       17.33993106      10.67433197       9.99261224       0.00000076      -0.00001613      -0.00000283
I       10.94931937       4.53725677       8.50149633      -0.00001361      -0.00000936       0.00000112
I       14.62057699       7.16940301       8.72264295       0.00002538       0.00002387       0.00000623
I        8.35685296      13.44228058       9.10059204       0.00000877       0.00000564       0.00001218
I        8.31675976       8.09562042       9.82520334      -0.00000378       0.00001460      -0.00002279
I       14.58049300       1.82287493       9.44704294       0.00001192      -0.00001589      -0.00000638
I       18.25508649      11.02231563       2.43993649      -0.00001973      -0.00002453      -0.00000180
I       11.88273113       4.77215854       3.51963080      -0.00000518       0.00001861      -0.00000626
I        4.68230364       4.24284644      16.10771157       0.00000524       0.00001804       0.00000416
I       11.05459513      10.49302729      15.02810767       0.00001112      -0.00000463      -0.00000604
I        8.34435468       6.88627964      15.08480238       0.00000597       0.00000259      -0.00000699
I       14.60810415       0.61344631      14.70642476       0.00000359      -0.00000224       0.00003722
I       14.59294797       8.37898695       3.46292544       0.00001552      -0.00001758       0.00001314
I        8.32924287      14.65176371       3.84111557       0.00000211      -0.00001740       0.00000307
I        5.71942166      14.43886727      12.76470780      -0.00001026       0.00001826      -0.00002450
I       11.97045809       6.83587305      12.36709882       0.00001403       0.00002419       0.00000370
I       17.21791222       0.82624187       5.78298166       0.00001210       0.00000278      -0.00001768
I       10.96678583       8.42928279       6.18068900       0.00000524      -0.00001151      -0.00003282
I        5.61393928       8.48314759       6.23816428       0.00001122       0.00001161      -0.00000402
I       11.98316268      13.39199349       6.38299368      -0.00001307      -0.00001987       0.00000952
I       17.32334139       6.78194629      12.30957639       0.00001980       0.00002025       0.00000553
I       10.95431029       1.87318791      12.16462689      -0.00000604      -0.00000816       0.00000425
Cs      14.72749954       9.94738885      19.25964000      -0.00001040       0.00000708       0.00000843
Cs       8.34741997       4.61359684      18.26916081      -0.00000960      -0.00001813       0.00001355
Cs       8.39563203       4.11707925      24.30940663      -0.00001408      -0.00000770      -0.00001002
Cs      14.77565375       9.45096814      25.29968270       0.00000251      -0.00000473      -0.00000862
Cs      14.52924144       4.59208844       0.22244903      -0.00000313      -0.00001688      -0.00001646
Cs       8.45278133      10.56937484      24.79567048      -0.00000948      -0.00001251       0.00000546
Cs       8.40803212      10.67310003      18.32518671       0.00000395       0.00000625      -0.00000134
Cs      14.67039789       3.49519696      18.77318362      -0.00001429       0.00000801      -0.00000054
Pb       5.18006106       0.83862869      21.57872551       0.00000671       0.00001341       0.00000026
Pb      11.56154897       7.03223681      21.78447701      -0.00002620       0.00000443      -0.00000105
Pb       5.23900101       7.09450744      21.85003781      -0.00000403       0.00000499      -0.00000539
Pb      11.50262707       0.77637083      21.51311506       0.00000697       0.00000519       0.00000945
Pb       5.13362147       1.13878825      15.32341077       0.00000778       0.00000662       0.00001193
Pb      11.51509270       7.33244737      15.52919928       0.00000532      -0.00000982      -0.00000891
Pb       5.19253347       7.39470678      15.59471634      -0.00000852       0.00000265       0.00000332
Pb      11.45619786       1.07655032      15.25784721      -0.00000408      -0.00000218       0.00000838
I        5.69036002       3.99048459      21.06570833      -0.00001868      -0.00000396       0.00000182
I       12.08090184      10.12757039      22.55672592       0.00000816       0.00000403       0.00002182
I       17.43279754      10.07402506      22.50320899       0.00000076      -0.00001614      -0.00000283
I       11.04218585       3.93694986      21.01209308      -0.00001361      -0.00000936       0.00000112
I       14.71344347       6.56909610      21.23323970       0.00002538       0.00002387       0.00000623
I        8.44971944      12.84197367      21.61118879       0.00000877       0.00000563       0.00001218
I        8.40962624       7.49531351      22.33580009      -0.00000379       0.00001460      -0.00002279
I       14.67335948       1.22256802      21.95763969       0.00001193      -0.00001589      -0.00000638
I       18.34795297      10.42200872      14.95053324      -0.00001973      -0.00002456      -0.00000180
I       11.97559761       4.17185163      16.03022755      -0.00000518       0.00001861      -0.00000626
I        4.58943716       4.84315335       3.59711482       0.00000524       0.00001806       0.00000416
I       10.96172865      11.09333420       2.51751092       0.00001112      -0.00000462      -0.00000604
I        8.25148820       7.48658655       2.57420563       0.00000597       0.00000259      -0.00000699
I       14.51523767       1.21375322       2.19582801       0.00000359      -0.00000224       0.00003722
I       14.68581445       7.77868004      15.97352219       0.00001552      -0.00001758       0.00001314
I        8.42210935      14.05145680      16.35171232       0.00000211      -0.00001741       0.00000306
I        5.81228814      13.83856036      25.27530455      -0.00001026       0.00001825      -0.00002450
I       12.06332457       6.23556614      24.87769557       0.00001403       0.00002419       0.00000370
I       17.31077870       0.22593496      18.29357841       0.00001210       0.00000278      -0.00001768
I       11.05965231       7.82897588      18.69128575       0.00000524      -0.00001151      -0.00003282
I        5.70680576       7.88284068      18.74876103       0.00001122       0.00001161      -0.00000401
I       12.07602916      12.79168658      18.89359043      -0.00001307      -0.00001988       0.00000952
I       17.41620787       6.18163938      24.82017314       0.00001980       0.00002025       0.00000553
I       11.04717677       1.27288100      24.67522364      -0.00000604      -0.00000816       0.00000426
Cs      14.75245814      23.05949044       7.29158938      -0.00001039       0.00000708       0.00000843
Cs       8.37237857      17.72569843       6.30111019      -0.00000960      -0.00001813       0.00001354
Cs       8.42059063      17.22918084      12.34135601      -0.00001408      -0.00000770      -0.00001002
Cs      14.80061235      22.56306973      13.33163208       0.00000251      -0.00000473      -0.00000862
Cs      14.73993300      16.50357621      13.27559191      -0.00000313      -0.00001688      -0.00001646
Cs       8.47773993      23.68147643      12.82761986      -0.00000948      -0.00001251       0.00000546
Cs       8.43299072      23.78520162       6.35713609       0.00000395       0.00000625      -0.00000135
Cs      14.69535649      16.60729855       6.80513300      -0.00001429       0.00000801      -0.00000055
Pb       5.20501966      13.95073028       9.61067489       0.00000671       0.00001342       0.00000025
Pb      11.58650757      20.14433840       9.81642639      -0.00002620       0.00000444      -0.00000105
Pb       5.26395961      20.20660903       9.88198719      -0.00000403       0.00000500      -0.00000540
Pb      11.52758567      13.88847242       9.54506444       0.00000697       0.00000520       0.00000944
Pb       5.15858007      14.25088984       3.35536015       0.00000778       0.00000662       0.00001192
Pb      11.54005130      20.44454896       3.56114866       0.00000532      -0.00000981      -0.00000892
Pb       5.21749207      20.50680837       3.62666572      -0.00000851       0.00000267       0.00000331
Pb      11.48115646      14.18865191       3.28979659      -0.00000407      -0.00000217       0.00000837
I        5.71531862      17.10258618       9.09765771      -0.00001868      -0.00000395       0.00000182
I       12.10586044      23.23967198      10.58867530       0.00000816       0.00000404       0.00002181
I       17.45775614      23.18612665      10.53515837       0.00000076      -0.00001614      -0.00000283
I       11.06714445      17.04905145       9.04404246      -0.00001361      -0.00000936       0.00000112
I       14.73840207      19.68119769       9.26518908       0.00002538       0.00002387       0.00000623
I        8.23902788       0.93048590       8.55804591       0.00000877       0.00000564       0.00001218
I        8.43458484      20.60741510      10.36774947      -0.00000378       0.00001460      -0.00002279
I       14.69831808      14.33466961       9.98958907       0.00001193      -0.00001589      -0.00000638
I       18.37291157      23.53411031       2.98248262      -0.00001972      -0.00002454      -0.00000181
I       12.00055621      17.28395322       4.06217693      -0.00000518       0.00001861      -0.00000626
I        4.80012872      16.75464112      16.65025770       0.00000524       0.00001802       0.00000416
I       11.17242021      23.00482197      15.57065380       0.00001113      -0.00000463      -0.00000604
I        8.46217976      19.39807432      15.62734851       0.00000597       0.00000258      -0.00000699
I       14.72592923      13.12524099      15.24897089       0.00000359      -0.00000225       0.00003721
I       14.71077305      20.89078163       4.00547157       0.00001552      -0.00001758       0.00001314
I        8.21141779       2.13996903       3.29856944       0.00000211      -0.00001740       0.00000307
I        5.60159658       1.92707259      12.22216167      -0.00001026       0.00001826      -0.00002449
I       12.08828317      19.34766773      12.90964495       0.00001403       0.00002419       0.00000369
I       17.33573730      13.33803655       6.32552779       0.00001210       0.00000278      -0.00001769
I       11.08461091      20.94107747       6.72323513       0.00000524      -0.00001151      -0.00003282
I        5.73176436      20.99494227       6.78071041       0.00001122       0.00001161      -0.00000403
I       11.86533760       0.88019881       5.84044755      -0.00001307      -0.00001987       0.00000953
I       17.44116647      19.29374097      12.85212252       0.00001980       0.00002025       0.00000550
I       11.07213537      14.38498259      12.70717302      -0.00000604      -0.00000816       0.00000424
Cs      14.84532462      22.45918352      19.80218613      -0.00001040       0.00000709       0.00000843
Cs       8.46524505      17.12539151      18.81170694      -0.00000960      -0.00001812       0.00001355
Cs       8.51345711      16.62887392      24.85195276      -0.00001408      -0.00000770      -0.00001002
Cs      14.89347883      21.96276281      25.84222883       0.00000251      -0.00000472      -0.00000862
Cs      14.64706652      17.10388312       0.76499515      -0.00000313      -0.00001688      -0.00001646
Cs       8.57060641      23.08116951      25.33821661      -0.00000948      -0.00001251       0.00000545
Cs       8.52585720      23.18489470      18.86773284       0.00000395       0.00000626      -0.00000134
Cs      14.78822297      16.00699163      19.31572975      -0.00001429       0.00000801      -0.00000055
Pb       5.29788614      13.35042336      22.12127164       0.00000671       0.00001343       0.00000025
Pb      11.67937405      19.54403148      22.32702314      -0.00002620       0.00000444      -0.00000105
Pb       5.35682609      19.60630211      22.39258394      -0.00000403       0.00000501      -0.00000540
Pb      11.62045215      13.28816550      22.05566119       0.00000697       0.00000522       0.00000944
Pb       5.25144655      13.65058292      15.86595690       0.00000778       0.00000665       0.00001192
Pb      11.63291778      19.84424204      16.07174541       0.00000532      -0.00000981      -0.00000891
Pb       5.31035855      19.90650145      16.13726247      -0.00000852       0.00000268       0.00000332
Pb      11.57402294      13.58834499      15.80039334      -0.00000407      -0.00000216       0.00000837
I        5.80818510      16.50227926      21.60825446      -0.00001868      -0.00000395       0.00000182
I       12.19872692      22.63936506      23.09927205       0.00000816       0.00000406       0.00002181
I       17.55062262      22.58581973      23.04575512       0.00000076      -0.00001611      -0.00000283
I       11.16001093      16.44874453      21.55463921      -0.00001361      -0.00000935       0.00000112
I       14.83126855      19.08089077      21.77578583       0.00002538       0.00002387       0.00000623
I        8.33189436       0.33017899      21.06864267       0.00000877       0.00000563       0.00001218
I        8.52745132      20.00710818      22.87834622      -0.00000378       0.00001460      -0.00002279
I       14.79118456      13.73436269      22.50018582       0.00001193      -0.00001589      -0.00000638
I       18.46577805      22.93380339      15.49307937      -0.00001972      -0.00002452      -0.00000181
I       12.09342269      16.68364630      16.57277368      -0.00000518       0.00001863      -0.00000626
I        4.70726224      17.35494803       4.13966094       0.00000524       0.00001806       0.00000417
I       11.07955373      23.60512888       3.06005704       0.00001113      -0.00000462      -0.00000604
I        8.36931328      19.99838123       3.11675175       0.00000597       0.00000259      -0.00000698
I       14.63306275      13.72554790       2.73837413       0.00000359      -0.00000224       0.00003722
I       14.80363953      20.29047471      16.51606832       0.00001551      -0.00001758       0.00001314
I        8.30428427       1.53966212      15.80916620       0.00000211      -0.00001740       0.00000306
I        5.69446306       1.32676568      24.73275843      -0.00001026       0.00001826      -0.00002452
I       12.18114965      18.74736081      25.42024170       0.00001403       0.00002419       0.00000370
I       17.42860378      12.73772963      18.83612454       0.00001210       0.00000279      -0.00001769
I       11.17747739      20.34077055      19.23383188       0.00000524      -0.00001151      -0.00003282
I        5.82463084      20.39463535      19.29130716       0.00001122       0.00001161      -0.00000402
I       11.95820408       0.27989190      18.35104431      -0.00001307      -0.00001987       0.00000950
I       17.53403295      18.69343405      25.36271927       0.00001980       0.00002026       0.00000550
I       11.16500185      13.78467567      25.21776977      -0.00000604      -0.00000816       0.00000425
Cs       1.98951965      10.67224683       6.88016023      -0.00001040       0.00000708       0.00000843
Cs      20.89966690       5.08935268       5.62744708      -0.00000960      -0.00001812       0.00001354
Cs      20.94787896       4.59283509      11.66769290      -0.00001408      -0.00000770      -0.00001002
Cs       2.03767386      10.17582612      12.92020293       0.00000251      -0.00000473      -0.00000861
Cs       1.97699451       4.11633260      12.86416276      -0.00000313      -0.00001688      -0.00001646
Cs      21.00502826      11.04513068      12.15395675      -0.00000948      -0.00001251       0.00000546
Cs      20.96027905      11.14885587       5.68347298       0.00000395       0.00000625      -0.00000134
Cs       1.93241800       4.22005494       6.39370385      -0.00001429       0.00000801      -0.00000054
Pb      17.73230799       1.31438453       8.93701178       0.00000671       0.00001342       0.00000025
Pb      24.11379590       7.50799265       9.14276328      -0.00002620       0.00000444      -0.00000105
Pb      17.79124794       7.57026328       9.20832408      -0.00000403       0.00000501      -0.00000540
Pb      24.05487400       1.25212667       8.87140133       0.00000697       0.00000521       0.00000943
Pb      17.68586840       1.61454409       2.68169704       0.00000778       0.00000663       0.00001192
Pb      24.06733963       7.80820321       2.88748555       0.00000532      -0.00000981      -0.00000892
Pb      17.74478040       7.87046262       2.95300261      -0.00000852       0.00000267       0.00000331
Pb      24.00844479       1.55230616       2.61613348      -0.00000407      -0.00000217       0.00000837
I       18.24260695       4.46624043       8.42399460      -0.00001868      -0.00000395       0.00000182
I       24.63314877      10.60332623       9.91501219       0.00000816       0.00000405       0.00002181
I        4.69481765      10.79888304      10.12372922       0.00000075      -0.00001613      -0.00000282
I       23.59443278       4.41270570       8.37037935      -0.00001361      -0.00000936       0.00000112
I        1.97546358       7.29395408       8.85375993       0.00002538       0.00002387       0.00000623
I       21.00196637      13.31772951       8.96947506       0.00000877       0.00000564       0.00001218
I       20.96187317       7.97106935       9.69408636      -0.00000378       0.00001460      -0.00002279
I        1.93537959       1.94742600       9.57815992       0.00001192      -0.00001589      -0.00000637
I        5.60997308      11.14686670       2.57105347      -0.00001973      -0.00002455      -0.00000180
I       24.52784454       4.64760747       3.38851382      -0.00000519       0.00001863      -0.00000626
I       17.32741705       4.11829537      15.97659459       0.00000524       0.00001805       0.00000416
I       23.69970854      10.36847622      14.89699069       0.00001113      -0.00000462      -0.00000604
I       20.98946809       6.76172857      14.95368540       0.00000597       0.00000259      -0.00000699
I        1.96299074       0.73799738      14.83754174       0.00000359      -0.00000224       0.00003722
I        1.94783456       8.50353802       3.59404242       0.00001551      -0.00001758       0.00001314
I       20.97435628      14.52721264       3.70999859       0.00000211      -0.00001740       0.00000306
I       18.36453507      14.31431620      12.63359082      -0.00001026       0.00001826      -0.00002452
I       24.61557150       6.71132198      12.23598184       0.00001403       0.00002419       0.00000369
I        4.57279881       0.95079294       5.91409864       0.00001210       0.00000278      -0.00001767
I       23.61189924       8.30473172       6.04957202       0.00000524      -0.00001151      -0.00003283
I       18.25905269       8.35859652       6.10704730       0.00001122       0.00001161      -0.00000402
I       24.62827609      13.26744242       6.25187670      -0.00001307      -0.00001987       0.00000950
I        4.67822798       6.90649736      12.44069337       0.00001980       0.00002025       0.00000553
I       23.59942370       1.74863684      12.03350991      -0.00000604      -0.00000816       0.00000424
Cs       2.08238613      10.07193991      19.39075699      -0.00001040       0.00000709       0.00000843
Cs      20.99253338       4.48904577      18.13804383      -0.00000960      -0.00001813       0.00001355
Cs      21.04074544       3.99252818      24.17828965      -0.00001408      -0.00000770      -0.00001002
Cs       2.13054034       9.57551920      25.43079969       0.00000251      -0.00000472      -0.00000862
Cs       1.88412803       4.71663951       0.35356601      -0.00000313      -0.00001688      -0.00001646
Cs      21.09789474      10.44482377      24.66455350      -0.00000948      -0.00001251       0.00000545
Cs      21.05314553      10.54854896      18.19406973       0.00000395       0.00000625      -0.00000134
Cs       2.02528448       3.61974802      18.90430061      -0.00001429       0.00000801      -0.00000055
Pb      17.82517447       0.71407762      21.44760853       0.00000671       0.00001341       0.00000025
Pb      24.20666238       6.90768574      21.65336003      -0.00002620       0.00000444      -0.00000105
Pb      17.88411442       6.96995637      21.71892083      -0.00000403       0.00000501      -0.00000540
Pb      24.14774048       0.65181976      21.38199808       0.00000697       0.00000521       0.00000944
Pb      17.77873488       1.01423718      15.19229379       0.00000778       0.00000662       0.00001192
Pb      24.16020611       7.20789630      15.39808230       0.00000532      -0.00000982      -0.00000891
Pb      17.83764688       7.27015571      15.46359936      -0.00000852       0.00000267       0.00000332
Pb      24.10131127       0.95199925      15.12673023      -0.00000407      -0.00000217       0.00000838
I       18.33547343       3.86593352      20.93459135      -0.00001868      -0.00000396       0.00000182
I       24.72601525      10.00301932      22.42560894       0.00000816       0.00000404       0.00002181
I        4.78768413      10.19857612      22.63432598       0.00000075      -0.00001612      -0.00000283
I       23.68729926       3.81239879      20.88097610      -0.00001361      -0.00000936       0.00000112
I        2.06833006       6.69364716      21.36435669       0.00002538       0.00002387       0.00000623
I       21.09483285      12.71742260      21.48007181       0.00000877       0.00000564       0.00001218
I       21.05473965       7.37076244      22.20468311      -0.00000378       0.00001460      -0.00002279
I        2.02824607       1.34711908      22.08875668       0.00001192      -0.00001589      -0.00000638
I        5.70283956      10.54655978      15.08165023      -0.00001972      -0.00002453      -0.00000181
I       24.62071102       4.04730056      15.89911057      -0.00000518       0.00001861      -0.00000626
I       17.23455057       4.71860229       3.46599783       0.00000524       0.00001803       0.00000417
I       23.60684206      10.96878314       2.38639393       0.00001113      -0.00000465      -0.00000603
I       20.89660161       7.36203549       2.44308864       0.00000597       0.00000258      -0.00000698
I        1.87012426       1.33830429       2.32694499       0.00000359      -0.00000224       0.00003722
I        2.04070104       7.90323110      16.10463918       0.00001552      -0.00001758       0.00001313
I       21.06722276      13.92690573      16.22059534       0.00000211      -0.00001740       0.00000306
I       18.45740155      13.71400929      25.14418757      -0.00001026       0.00001826      -0.00002451
I       24.70843798       6.11101507      24.74657859       0.00001403       0.00002419       0.00000370
I        4.66566529       0.35048602      18.42469540       0.00001210       0.00000278      -0.00001770
I       23.70476572       7.70442481      18.56016877       0.00000524      -0.00001151      -0.00003282
I       18.35191917       7.75828961      18.61764405       0.00001122       0.00001161      -0.00000403
I       24.72114257      12.66713551      18.76247345      -0.00001307      -0.00001987       0.00000950
I        4.77109446       6.30619044      24.95129013       0.00001980       0.00002026       0.00000550
I       23.69229018       1.14832993      24.54410666      -0.00000604      -0.00000816       0.00000425
Cs       2.10734473      23.18404151       7.42270636      -0.00001039       0.00000708       0.00000843
Cs      21.01749198      17.60114736       6.16999320      -0.00000960      -0.00001812       0.00001354
Cs      21.06570404      17.10462977      12.21023902      -0.00001409      -0.00000770      -0.00001002
Cs       2.15549894      22.68762080      13.46274906       0.00000251      -0.00000473      -0.00000862
Cs       2.09481959      16.62812728      13.40670889      -0.00000312      -0.00001688      -0.00001646
Cs      21.12285334      23.55692536      12.69650287      -0.00000948      -0.00001251       0.00000546
Cs      21.07810413      23.66065055       6.22601910       0.00000395       0.00000625      -0.00000134
Cs       2.05024308      16.73184962       6.93624998      -0.00001429       0.00000801      -0.00000054
Pb      17.85013307      13.82617921       9.47955790       0.00000671       0.00001342       0.00000026
Pb      24.23162098      20.01978733       9.68530940      -0.00002620       0.00000444      -0.00000105
Pb      17.90907302      20.08205796       9.75087020      -0.00000402       0.00000501      -0.00000540
Pb      24.17269908      13.76392135       9.41394745       0.00000697       0.00000520       0.00000944
Pb      17.80369348      14.12633877       3.22424316       0.00000778       0.00000663       0.00001193
Pb      24.18516471      20.31999789       3.43003167       0.00000532      -0.00000981      -0.00000891
Pb      17.86260548      20.38225730       3.49554873      -0.00000852       0.00000267       0.00000332
Pb      24.12626987      14.06410084       3.15867960      -0.00000408      -0.00000217       0.00000837
I       18.36043203      16.97803511       8.96654072      -0.00001868      -0.00000395       0.00000182
I       24.75097385      23.11512091      10.45755831       0.00000816       0.00000404       0.00002182
I        4.81264273      23.31067772      10.66627535       0.00000076      -0.00001614      -0.00000283
I       23.71225786      16.92450038       8.91292547      -0.00001361      -0.00000936       0.00000112
I        2.09328866      19.80574876       9.39630606       0.00002538       0.00002387       0.00000623
I       20.88414129       0.80593483       8.42692893       0.00000877       0.00000564       0.00001218
I       21.07969825      20.48286403      10.23663248      -0.00000379       0.00001460      -0.00002279
I        2.05320467      14.45922068      10.12070605       0.00001192      -0.00001589      -0.00000638
I        5.72779816      23.65866138       3.11359960      -0.00001973      -0.00002456      -0.00000180
I       24.64566962      17.15940215       3.93105994      -0.00000518       0.00001863      -0.00000626
I       17.44524213      16.63009005      16.51914071       0.00000524       0.00001804       0.00000417
I       23.81753362      22.88027090      15.43953681       0.00001113      -0.00000462      -0.00000604
I       21.10729317      19.27352325      15.49623152       0.00000597       0.00000259      -0.00000699
I        2.08081582      13.24979206      15.38008787       0.00000359      -0.00000224       0.00003721
I        2.06565964      21.01533270       4.13658855       0.00001552      -0.00001758       0.00001314
I       20.85653120       2.01541796       3.16745246       0.00000211      -0.00001740       0.00000307
I       18.24670999       1.80252152      12.09104469      -0.00001026       0.00001826      -0.00002450
I       24.73339658      19.22311666      12.77852796       0.00001402       0.00002419       0.00000369
I        4.69062389      13.46258762       6.45664477       0.00001210       0.00000278      -0.00001768
I       23.72972432      20.81652640       6.59211814       0.00000524      -0.00001151      -0.00003282
I       18.37687777      20.87039120       6.64959342       0.00001122       0.00001161      -0.00000401
I       24.51045101       0.75564774       5.70933057      -0.00001307      -0.00001987       0.00000952
I        4.79605306      19.41829204      12.98323950       0.00001980       0.00002025       0.00000552
I       23.71724878      14.26043152      12.57605603      -0.00000604      -0.00000816       0.00000426