96
Lattice="12.663656518653115 -0.22227485332593586 -0.029976167160818756 0.2574558669051046 12.662660714900914 -0.14055561187417023 0.18945764921987948 0.15310589690302318 12.825596437204315" Properties=species:S:1:pos:R:3:forces:R:3 energy=-418.6381965141119 stress="0.006550955455951255 4.416000634986782e-05 0.0002869508237732816 4.416000634986782e-05 0.004998028122873377 2.154998377585513e-05 0.0002869508237732816 2.154998377585513e-05 0.004803978802709741" free_energy=-418.6381965141119 pbc="T T T"
I        5.13892613       2.75980034       3.06243369       0.00000277      -0.00001378       0.00001439
I        6.44699557      15.36538816       9.32575650       0.00000925       0.00000700      -0.00000378
I        6.55053844      12.42049978       5.88374533      -0.00000639       0.00000873      -0.00000567
I        4.99524558       6.11819735       5.93694989      -0.00000014      -0.00000368       0.00002249
I       -0.81849242      16.33879616       9.34217396      -0.00000883      -0.00001061      -0.00000452
I       12.44838783       3.48812175       3.02809008       0.00000210       0.00000526      -0.00000139
I       12.77913157       6.41273712       6.48742850       0.00001631       0.00000095      -0.00001068
I       -1.18227813      12.99536528       6.42993767      -0.00001215      -0.00001853      -0.00000635
I        9.10701421      16.52117680      12.90245843       0.00000786       0.00002001      -0.00000367
I        2.71316177      10.21541246       5.79561039      -0.00000312       0.00001108       0.00000098
I        2.39761954       2.53773277       6.65866129      -0.00001745       0.00000031      -0.00001417
I        9.00738714      16.44185389       5.70985384       0.00001718      -0.00000350       0.00001302
H        1.64245430       7.31293663       3.90732386       0.00001651      -0.00000655      -0.00003778
H       10.14718945       5.76005636       2.99723444       0.00001240       0.00000214      -0.00000461
H        9.86098603      13.47639184       3.82793164       0.00000698      -0.00000150      -0.00001153
H        3.46826445       5.44012629       8.54706667       0.00000969       0.00003116      -0.00003107
H        4.05646810      13.16853658       9.34410744       0.00000080       0.00002420      -0.00000044
H        9.45647878       7.14510163       2.08084601       0.00001372       0.00000857       0.00000260
H        8.30190096       5.35451694       8.54780421      -0.00000791      -0.00001485       0.00000981
H        3.46713015       5.47490610      10.34761569       0.00000889      -0.00001273      -0.00000935
H        1.64343385       7.27819712       2.10677104       0.00001525       0.00001420       0.00002830
H        9.47249902       7.17642747       3.87642856      -0.00000676       0.00000419       0.00000395
H        8.44818444      14.11814001       2.92427018       0.00000208      -0.00001163       0.00000489
H        2.03083921       4.86704326       9.45773808       0.00000692       0.00003835       0.00001536
H        3.41683079       5.62665820       2.19878230      -0.00001520      -0.00000286       0.00001819
H       10.00696093      13.30087404       8.50834751       0.00000406       0.00002680      -0.00000882
H        8.02494135      11.89261022       3.77531114       0.00000770      -0.00001187       0.00000509
H        4.20460026      12.98730231       2.93657810       0.00000932       0.00001291      -0.00001835
H        2.06680909       5.07236055       3.05154138      -0.00003920      -0.00001247       0.00000827
H       10.01242563      13.30908554      10.18674003      -0.00000315       0.00001620       0.00000173
H        9.35196718      11.26699188       2.93564600      -0.00001153       0.00000481      -0.00000503
H        3.49815572      11.68857542       2.10998229      -0.00001206       0.00002241      -0.00000418
H        3.42172835       5.65807924       3.87682185      -0.00001124       0.00004383      -0.00004136
H        7.28155257       6.59917000       3.00899773      -0.00000543       0.00002086       0.00001519
H        8.01957445      11.88445785       2.09691834      -0.00000276      -0.00000428       0.00002447
H        3.51618584      11.69712200       3.79201915       0.00000207       0.00000717       0.00002453
C        3.26240247      12.41428816       9.35436478       0.00001288      -0.00002625       0.00001650
C        9.37934721       6.54102468       2.99021130      -0.00002547      -0.00001141      -0.00000626
C        8.39510421       5.98985109       9.43406554       0.00002266       0.00002483      -0.00001370
C        2.85846761       5.58338699       9.44447209      -0.00002314      -0.00003288       0.00001387
Pb       5.76117732       9.29303960       6.19304006       0.00001074      -0.00000796      -0.00002238
Pb       5.93277090      15.62684022       6.12914023       0.00001459       0.00000051      -0.00002064
Pb      -0.29429469      16.19694473      12.55312122       0.00001215      -0.00000547      -0.00001010
Pb      -0.39292556      16.12283720       6.12070855      -0.00001655      -0.00000219      -0.00000631
N        2.82070889       5.78984479       3.03690054       0.00003939      -0.00001251       0.00000870
N        9.40594066      13.18063907       9.35021643      -0.00000661       0.00000116       0.00002345
N        8.62600114      12.01291940       2.93348254       0.00000481       0.00000553      -0.00001264
N        3.42530300      12.30125066       2.94850855      -0.00001591      -0.00002466       0.00001084
I        5.32612492       9.04279850       9.39621769       0.00001964       0.00000414       0.00000357
I        6.18672587       9.07703112       2.97155742       0.00001548      -0.00000777      -0.00000035
I        5.09912721       6.20237937      12.90591775       0.00000224      -0.00000307      -0.00000602
I        6.46640966      12.35323920       0.02248921      -0.00000766      -0.00001221       0.00002266
I       -1.07876318      10.05040985       2.98796756       0.00001088      -0.00000273      -0.00000429
I       12.63548956       9.77117660       9.36186145      -0.00000215      -0.00000529       0.00001679
I       11.37604564      12.68725430      -0.56432692       0.00000682      -0.00000221      -0.00000341
I        0.20116666       6.70394243      12.37391765      -0.00000801      -0.00000653       0.00000496
I        9.02449258       8.75172927       6.57388065       0.00001078       0.00000366      -0.00000891
I        2.55656153      15.10476574      -0.67201920      -0.00000515      -0.00000877      -0.00000363
I        2.81173503      10.31108536      12.98574506      -0.00001804      -0.00000884      -0.00001285
I        8.92493064       8.67235975      -0.61873051      -0.00000359      -0.00000533       0.00000134
H        3.31703061      11.78906244       8.45775814      -0.00000359       0.00000732       0.00000310
H        9.58358676      11.07540483       9.35947804      -0.00001521       0.00000357      -0.00000449
H        7.62726415       6.77082254       9.42714654       0.00000317       0.00000692      -0.00001055
H        2.03301627      13.62090383       2.06001270      -0.00002105       0.00000319       0.00001839
H        3.07971801       7.88625192       2.99653323      -0.00002163      -0.00002300       0.00000880
H        8.17067098      11.72525060      10.25683009      -0.00002004      -0.00000167       0.00001973
H        9.86122591      13.46844272       2.02701261       0.00000775      -0.00003137      -0.00002966
H        1.31183476      12.24713368       2.96950340       0.00002307       0.00001803       0.00000217
H        3.33523968      11.79483069      10.25365357       0.00001012       0.00000105      -0.00001226
H        8.17076232      11.71724316       8.45591048       0.00000008      -0.00000588       0.00001831
H        8.31802165       5.38570489      10.34338840      -0.00001333      -0.00001087       0.00001290
H        2.05112532      13.62665219       3.85591011      -0.00001212       0.00001425       0.00002181
H        1.87024656      13.72728150      10.20373645      -0.00002461      -0.00003322      -0.00001207
H        7.94197402       5.29493604       3.86471706      -0.00000927       0.00000117       0.00000277
H        9.84844653       7.26313669      10.24149938       0.00000643       0.00000505       0.00000161
H        1.68914201       7.09521048       8.57743781       0.00000724      -0.00001979      -0.00000847
H        1.16365595      12.42857453       9.37722785      -0.00001333       0.00000363      -0.00000487
H        7.92604622       5.26771335       2.18275246      -0.00001830      -0.00001109      -0.00000872
H        9.83246345       7.23594067       8.55953449       0.00000251       0.00000673       0.00001270
H        3.04416415       7.68078921       9.40266201      -0.00002367       0.00002625       0.00001384
H        1.85209851      13.71868371       8.52169862       0.00000643      -0.00000152       0.00000051
H        8.68003212      13.92662027       9.34807200      -0.00000778      -0.00001058      -0.00000826
H       10.49289291       5.93168393       9.41521182       0.00003957      -0.00001531      -0.00000370
H        1.69407229       7.12672987      10.25547008      -0.00000764      -0.00002482      -0.00002541
C        2.25219398       7.16978911       3.00985889       0.00002358      -0.00001147       0.00001654
C        8.78439533      11.82346459       9.35600663       0.00003622      -0.00000599      -0.00003053
C        9.24743603      13.37014471       2.92778234      -0.00000267       0.00002649       0.00002271
C        2.10584564      13.00144212       2.95929932       0.00002590      -0.00001278      -0.00003456
Pb       6.02514368      15.70238516      12.52539474      -0.00001023      -0.00001249      -0.00001131
Pb       5.85205273       9.37202393      12.58622612      -0.00000873       0.00000210      -0.00000571
Pb      -0.56455116       9.78903435       6.18459697       0.00000235      -0.00001154       0.00000526
Pb      -0.46740651       9.86658161      12.61393161      -0.00000858       0.00001183      -0.00000400
N        1.94299775      13.11457442       9.36522200       0.00001029       0.00003902       0.00002826
N        8.03674839       5.88660336       3.01323679       0.00002911       0.00000414       0.00000804
N        9.73770760       6.64426253       9.41100940      -0.00005107       0.00001154       0.00000406
N        2.29015766       6.96341329       9.41735389      -0.00000029      -0.00000495       0.00001135
