768
Lattice="25.79489961471896 0.0224340876846623 -0.0289842175183287 0.013932298117281097 25.84861609414108 -0.014523411134813783 0.055831912146677896 0.13217485953520758 25.7471695615935" Properties=species:S:1:pos:R:3:forces:R:3 energy=-3655.6488494116584 stress="0.004137228795139072 3.461986516535897e-05 2.8072837081736502e-05 3.461986516535897e-05 0.005220774174680853 -0.000757507704535195 2.8072837081736502e-05 -0.000757507704535195 0.004801451969106686" free_energy=-3655.6488494116584 pbc="T T T"
H       11.10363451       5.57746685       4.65579356       0.00001311      -0.00000887       0.00001651
H       11.09816349       0.13325698       5.65442345      -0.00001497       0.00001098       0.00000117
H       11.12809038      24.99701716      11.08160047      -0.00000073      -0.00001537      -0.00002189
H       11.11552724       6.62837488      12.08757282      -0.00001581       0.00000138       0.00001511
H        9.56925989       5.88400168       2.94281561       0.00000195       0.00000556      -0.00000209
H       11.03902217      -1.78676231       4.34705265      -0.00004162       0.00000475      -0.00002009
H        4.61654084       8.66097290      11.26501276      -0.00000755      -0.00001703      -0.00001121
H        9.58977787       8.34596963      11.76202402       0.00000814      -0.00001793       0.00000111
H        3.22573459       1.61744360       5.76706742       0.00001366       0.00000099      -0.00000598
H        3.22259108       5.47112726       3.17194689       0.00001568       0.00002030      -0.00002603
H        3.24285452       8.11245351      12.20032509       0.00000869       0.00003008      -0.00001440
H        8.77843684       7.51417215      10.43763287      -0.00000497      -0.00001082      -0.00000267
H        2.31388952      -0.63316551       5.18051116      -0.00000378      -0.00000401       0.00001736
H        2.32379626       6.08065857       5.42256825       0.00002419       0.00004581      -0.00000924
H        2.33126798       5.86186352      11.61343407       0.00001611       0.00000236       0.00000471
H        3.23335593      -0.95794031       9.61220087      -0.00000177      -0.00000209      -0.00000306
H       11.06159493       6.91234291       6.55692418       0.00005617      -0.00001896       0.00001703
H        3.13265842       7.41694227       6.23717524      -0.00002411       0.00001653       0.00005887
H        9.59371568      25.30366127       9.36863794      -0.00002419       0.00001907       0.00003650
H        4.60840453      -0.03157082       9.05026383       0.00005054       0.00003158      -0.00001719
C       10.34447165       6.36092695       4.74372332      -0.00001028       0.00003241       0.00002835
C        3.89431717       6.94416283       4.42947200       0.00003055      -0.00001852      -0.00005888
C        3.90423205       6.83881668      10.73642391       0.00004676       0.00000592       0.00001839
C        3.90479593       0.51509807      10.86988872      -0.00001268      -0.00003477      -0.00004743
N        3.88304485       1.45360820       5.00499832      -0.00000342       0.00002975       0.00000963
N        3.88327128       6.23238548       3.32598318      -0.00002588      -0.00002651       0.00006499
N        3.90028407       7.94876689      11.43832680      -0.00001012      -0.00000099       0.00002671
N        9.52528781       7.53871903      11.13805232      -0.00000953       0.00000732       0.00002941
N        3.05684464      -0.65880065       4.47589059      -0.00002148      -0.00001468      -0.00000184
N        3.06885335       6.78310764       5.43757981      -0.00004140      -0.00004235       0.00000443
N        9.53609009      25.93941961      10.16721736      -0.00000699      -0.00002507      -0.00000241
N        3.89394545      -0.19663091       9.76636713      -0.00005310      -0.00003453       0.00001362
Pb       6.95357200      22.89850600      14.21740795       0.00000556       0.00000243       0.00000695
Pb       0.50446921      22.81365612      14.25618665      -0.00001602      -0.00000214       0.00001000
Pb       6.92919229       3.47898339       7.79147278      -0.00000489       0.00000436      -0.00001590
Pb       6.93814167      22.84880041       7.76005693      -0.00001206       0.00001336      -0.00000622
I       10.16925710      22.70328962      13.94488195      -0.00001006       0.00001770       0.00001190
I        3.71399353      10.08846863      14.52721833      -0.00000102       0.00000223      -0.00000275
I        3.70601975      22.55080656       7.63224966       0.00001640       0.00000113       0.00000325
I       10.15471673      23.09837567       7.95974333      -0.00001471      -0.00000179       0.00000189
I        6.74041153       6.69775205      13.88405883       0.00001292       0.00000532       0.00000128
I        7.19885572       0.17340016       1.90540776       0.00000354      -0.00001313       0.00000847
I        6.72310856       0.20254182       7.45082297       0.00000513       0.00001553       0.00000901
I        7.21630592       6.66857871       8.33861258       0.00000281      -0.00000498      -0.00000082
I        7.22201229       9.33955018       4.58571977      -0.00000310       0.00000414       0.00000172
I        0.26842371      22.44587083       4.58605137      -0.00001005       0.00001582       0.00001569
I        0.79765912      23.38336907      11.02083710       0.00001151       0.00000610      -0.00000025
I        6.72942286      23.19983042      11.01516100       0.00000949      -0.00000479      -0.00001827
H        4.64507261       0.24820540       3.51964366       0.00001969      -0.00002194       0.00000728
H        4.65502073       7.72646647       4.51427933      -0.00002591      -0.00000667      -0.00004601
H        4.66260140       6.74355715       9.95295565      -0.00000043       0.00001990      -0.00000968
H        4.66542480       1.29746081      10.95481650      -0.00003110       0.00000280      -0.00001356
H        4.59934390       2.16573729       4.83152934      -0.00003402       0.00000354       0.00003030
H        4.59766665       6.39735715       2.60979785       0.00003774       0.00001625      -0.00003428
H       11.08599511      26.33171324      12.98285621      -0.00000736      -0.00000015      -0.00003984
H        3.14289548       0.98771699      12.67753196      -0.00000025      -0.00000678      -0.00001381
H        8.76759385       7.22333603       3.75977389       0.00002430       0.00000515      -0.00001456
H        9.66145605      -1.23614914       3.41809100       0.00000984       0.00000807      -0.00001855
H        9.70864468      27.25823941      12.42768488       0.00003759       0.00001145       0.00000469
H        2.33423251      -0.34859132      11.86276645      -0.00001093       0.00002000      -0.00002472
H        9.68431068       7.83890503       6.00165529      -0.00001617      -0.00003850      -0.00000879
H        8.76103612       1.01877298       4.00438124      -0.00002269       0.00000380      -0.00000980
H        8.79201434      26.64291189      10.18570314       0.00000089      -0.00001103      -0.00000860
H        9.67869329       5.25926925       9.85113925       0.00000546      -0.00000041       0.00001911
H        3.11546830      -1.46516470       3.85016589       0.00001407       0.00000527      -0.00000696
H        9.57229459       1.85071424       5.32873489       0.00001930      -0.00002225      -0.00002705
H        3.13306981       5.03005133      10.28310770      -0.00000499      -0.00000253       0.00000676
H       11.05621990       4.70845581      10.78005189       0.00000156       0.00000126       0.00000053
C        3.88681564       0.34358800       4.30320511      -0.00001622       0.00000958      -0.00000954
C       10.33533422       0.03856782       4.87523219       0.00001907       0.00000622       0.00001738
C       10.36889585      25.78043980      11.16959688       0.00004481       0.00001106       0.00002800
C       10.35268057       6.53379687      11.30838587       0.00001275       0.00000466      -0.00005434
N        9.51166421       6.51983815       3.74133519      -0.00005111       0.00000632       0.00002411
N       10.32368651      -1.07305848       4.17608598       0.00003813      -0.00000644       0.00002209
N       10.36712273      26.49566443      12.27091623      -0.00003973       0.00000232       0.00001529
N        3.07922211       0.35392908      11.87788858       0.00002738       0.00003166       0.00006465
N       10.34273202       7.07626292       5.84497191       0.00000349       0.00000437      -0.00005296
N        9.50787235       1.04341810       4.70481549      -0.00001809       0.00001472       0.00002598
N        3.07431310       5.83634954      10.90890717      -0.00003075      -0.00003207      -0.00000831
N       10.34094250       5.42222937      10.60914735       0.00002992      -0.00000526      -0.00000435
Pb       0.49356354       3.44353951      14.28801937      -0.00000943       0.00000822       0.00001738
Pb       6.94158097       3.49540894      14.20770183       0.00000943       0.00000670       0.00002047
Pb       0.49009076      22.79694139       7.84036830      -0.00000503       0.00000877      -0.00001622
Pb       0.48004082       3.39416446       7.83027378      -0.00000088      -0.00000782      -0.00002244
I        3.70947984       3.19735529      14.07978481       0.00001508      -0.00000051       0.00000787
I       10.15817699       3.74494148      14.40736335      -0.00000716       0.00000793      -0.00000046
I       10.14486188       3.28385251       7.51881724      -0.00003270      -0.00000884       0.00001196
I        3.69655103       3.59323450       8.09390762       0.00002832      -0.00000411       0.00001203
I        0.28883377       0.24138975      14.61285225      -0.00000378      -0.00003058       0.00000301
I        0.74917575       6.63343129       0.84293219       0.00001686       0.00000246       0.00000376
I        0.27835532       6.67048150       8.17245213      -0.00001352      -0.00001109      -0.00001402
I        0.75965176       0.20430068       7.28346900       0.00000796      -0.00000150      -0.00000773
I       13.67074788       3.97515822       4.58039861       0.00001145      -0.00001605      -0.00000801
I        6.70510258       3.78040111       4.58918711       0.00000481      -0.00001651      -0.00000734
I        7.23244727       2.91045664      11.02607328       0.00000139      -0.00000901      -0.00000598
I        0.27178936       3.09252638      11.03369157      -0.00000564       0.00000402      -0.00000020
H       11.13155047       5.64355428      17.52937834       0.00001311      -0.00000887       0.00001651
H       11.12607945       0.19934441      18.52800823      -0.00001496       0.00001096       0.00000116
H       11.15600633      25.06310459      23.95518525      -0.00000073      -0.00001539      -0.00002188
H       11.14344320       6.69446231      24.96115760      -0.00001581       0.00000138       0.00001511
H        9.59717585       5.95008911      15.81640039       0.00000195       0.00000556      -0.00000209
H       11.06693812      -1.72067488      17.22063743      -0.00004163       0.00000473      -0.00002011
H        4.64445680       8.72706033      24.13859754      -0.00000755      -0.00001703      -0.00001121
H        9.61769383       8.41205706      24.63560880       0.00000814      -0.00001793       0.00000111
H        3.25365055       1.68353103      18.64065220       0.00001366       0.00000099      -0.00000598
H        3.25050704       5.53721469      16.04553167       0.00001568       0.00002030      -0.00002603
H        3.27077048       8.17854094      25.07390987       0.00000869       0.00003009      -0.00001440
H        8.80635280       7.58025958      23.31121765      -0.00000497      -0.00001082      -0.00000267
H        2.34180547      -0.56707808      18.05409594      -0.00000377      -0.00000399       0.00001736
H        2.35171222       6.14674600      18.29615303       0.00002418       0.00004581      -0.00000924
H        2.35918394       5.92795095      24.48701885       0.00001611       0.00000236       0.00000471
H        3.26127188      -0.89185288      22.48578565      -0.00000178      -0.00000208      -0.00000304
H       11.08951089       6.97843034      19.43050896       0.00005618      -0.00001896       0.00001703
H        3.16057438       7.48302970      19.11076002      -0.00002411       0.00001653       0.00005887
H        9.62163163      25.36974870      22.24222272      -0.00002415       0.00001903       0.00003650
H        4.63632048       0.03451661      21.92384861       0.00005053       0.00003156      -0.00001720
C       10.37238761       6.42701438      17.61730810      -0.00001028       0.00003241       0.00002835
C        3.92223313       7.01025026      17.30305678       0.00003056      -0.00001852      -0.00005888
C        3.93214801       6.90490411      23.61000869       0.00004676       0.00000592       0.00001839
C        3.93271189       0.58118550      23.74347350      -0.00001279      -0.00003482      -0.00004741
N        3.91096081       1.51969563      17.87858310      -0.00000341       0.00002973       0.00000962
N        3.91118724       6.29847291      16.19956796      -0.00002588      -0.00002651       0.00006499
N        3.92820003       8.01485432      24.31191158      -0.00001012      -0.00000099       0.00002671
N        9.55320377       7.60480646      24.01163710      -0.00000954       0.00000732       0.00002941
N        3.08476059      -0.59271322      17.34947537      -0.00002123      -0.00001447      -0.00000191
N        3.09676931       6.84919507      18.31116459      -0.00004139      -0.00004235       0.00000444
N        9.56400605      26.00550704      23.04080214      -0.00000729      -0.00002494      -0.00000259
N        3.92186140      -0.13054348      22.63995191      -0.00005300      -0.00003448       0.00001358
Pb       6.92565604      22.83241857       1.34382317       0.00000556       0.00000244       0.00000694
Pb       0.47655325      22.74756869       1.38260187      -0.00001602      -0.00000214       0.00000999
Pb       6.95710825       3.54507082      20.66505756      -0.00000490       0.00000436      -0.00001590
Pb       6.96605762      22.91488784      20.63364171      -0.00001206       0.00001336      -0.00000621
I       10.14134114      22.63720219       1.07129717      -0.00001005       0.00001770       0.00001191
I        3.68607757      10.02238120       1.65363355      -0.00000101       0.00000222      -0.00000276
I        3.73393570      22.61689399      20.50583444       0.00001640       0.00000113       0.00000325
I       10.18263268      23.16446310      20.83332811      -0.00001471      -0.00000179       0.00000190
I        6.71249557       6.63166462       1.01047405       0.00001292       0.00000532       0.00000128
I        7.22677168       0.23948759      14.77899254       0.00000354      -0.00001313       0.00000847
I        6.75102452       0.26862925      20.32440775       0.00000513       0.00001554       0.00000901
I        7.24422188       6.73466614      21.21219736       0.00000281      -0.00000497      -0.00000082
I        7.24992825       9.40563761      17.45930455      -0.00000310       0.00000414       0.00000173
I        0.29633966      22.51195826      17.45963615      -0.00001004       0.00001582       0.00001569
I        0.82557507      23.44945650      23.89442188       0.00001152       0.00000611      -0.00000025
I        6.75733881      23.26591785      23.88874578       0.00000949      -0.00000479      -0.00001827
H        4.67298857       0.31429283      16.39322844       0.00001969      -0.00002196       0.00000729
H        4.68293669       7.79255390      17.38786411      -0.00002591      -0.00000667      -0.00004601
H        4.69051736       6.80964458      22.82654043      -0.00000043       0.00001990      -0.00000968
H        4.69334076       1.36354824      23.82840128      -0.00003109       0.00000278      -0.00001358
H        4.62725986       2.23182472      17.70511412      -0.00003401       0.00000354       0.00003030
H        4.62558261       6.46344458      15.48338263       0.00003774       0.00001625      -0.00003428
H       11.11391106      26.39780067      25.85644099      -0.00000723      -0.00000021      -0.00003976
H        3.17081144       1.05380442      25.55111674      -0.00000025      -0.00000679      -0.00001381
H        8.79550981       7.28942346      16.63335867       0.00002430       0.00000515      -0.00001456
H        9.68937200      -1.17006171      16.29167578       0.00000983       0.00000809      -0.00001854
H        9.73656064      27.32432684      25.30126966       0.00003759       0.00001146       0.00000470
H        2.36214846      -0.28250389      24.73635123      -0.00001071       0.00002019      -0.00002473
H        9.71222664       7.90499246      18.87524007      -0.00001617      -0.00003850      -0.00000879
H        8.78895208       1.08486041      16.87796602      -0.00002269       0.00000380      -0.00000980
H        8.81993030      26.70899932      23.05928792       0.00000088      -0.00001102      -0.00000861
H        9.70660925       5.32535668      22.72472403       0.00000546      -0.00000041       0.00001911
H        3.14338425      -1.39907727      16.72375067       0.00001407       0.00000527      -0.00000695
H        9.60021055       1.91680167      18.20231967       0.00001930      -0.00002225      -0.00002705
H        3.16098577       5.09613876      23.15669248      -0.00000499      -0.00000253       0.00000676
H       11.08413586       4.77454324      23.65363667       0.00000156       0.00000126       0.00000053
C        3.91473160       0.40967543      17.17678989      -0.00001648       0.00000938      -0.00000947
C       10.36325018       0.10465525      17.74881697       0.00001897       0.00000623       0.00001733
C       10.39681180      25.84652723      24.04318166       0.00004517       0.00001093       0.00002819
C       10.38059653       6.59988430      24.18197065       0.00001275       0.00000465      -0.00005434
N        9.53958017       6.58592558      16.61491997      -0.00005111       0.00000632       0.00002411
N       10.35160246      -1.00697105      17.04967076       0.00003822      -0.00000647       0.00002214
N       10.39503869      26.56175186      25.14450101      -0.00003996       0.00000241       0.00001517
N        3.10713807       0.42001651      24.75147336       0.00002718       0.00003150       0.00006469
N       10.37064798       7.14235035      18.71855669       0.00000349       0.00000437      -0.00005297
N        9.53578831       1.10950553      17.57840027      -0.00001808       0.00001476       0.00002600
N        3.10222906       5.90243697      23.78249195      -0.00003075      -0.00003207      -0.00000831
N       10.36885846       5.48831680      23.48273213       0.00002992      -0.00000525      -0.00000435
Pb       0.46564758       3.37745208       1.41443459      -0.00000943       0.00000822       0.00001738
Pb       6.91366501       3.42932151       1.33411705       0.00000943       0.00000670       0.00002047
Pb       0.51800671      22.86302882      20.71395308      -0.00000502       0.00000877      -0.00001622
Pb       0.50795678       3.46025189      20.70385856      -0.00000089      -0.00000782      -0.00002244
I        3.68156388       3.13126786       1.20620003       0.00001508      -0.00000051       0.00000787
I       10.13026103       3.67885405       1.53377857      -0.00000716       0.00000793      -0.00000046
I       10.17277784       3.34993994      20.39240202      -0.00003271      -0.00000884       0.00001195
I        3.72446699       3.65932193      20.96749240       0.00002832      -0.00000411       0.00001203
I        0.26091781       0.17530232       1.73926747      -0.00000378      -0.00003058       0.00000301
I        0.77709171       6.69951872      13.71651697       0.00001686       0.00000247       0.00000376
I        0.30627128       6.73656893      21.04603691      -0.00001353      -0.00001109      -0.00001402
I        0.78756772       0.27038811      20.15705378       0.00000795      -0.00000149      -0.00000773
I       13.69866384       4.04124565      17.45398339       0.00001145      -0.00001605      -0.00000800
I        6.73301854       3.84648854      17.46277189       0.00000481      -0.00001651      -0.00000734
I        7.26036323       2.97654407      23.89965806       0.00000139      -0.00000900      -0.00000598
I        0.29970532       3.15861381      23.90727635      -0.00000565       0.00000402      -0.00000020
H       11.11060066      18.50177490       4.64853185       0.00001311      -0.00000887       0.00001651
H       11.10512964      13.05756503       5.64716174      -0.00001497       0.00001097       0.00000117
H       11.12112423      12.07270912      11.08886217      -0.00000072      -0.00001537      -0.00002189
H       11.12249339      19.55268293      12.08031111      -0.00001581       0.00000138       0.00001511
H        9.57622604      18.80830973       2.93555390       0.00000195       0.00000556      -0.00000209
H       11.04598832      11.13754574       4.33979094      -0.00004163       0.00000474      -0.00002010
H        4.62350699      21.58528095      11.25775105      -0.00000754      -0.00001702      -0.00001121
H        9.59674402      21.27027768      11.75476231       0.00000814      -0.00001793       0.00000111
H        3.23270074      14.54175165       5.75980571       0.00001366       0.00000099      -0.00000598
H        3.22955723      18.39543531       3.16468518       0.00001568       0.00002030      -0.00002603
H        3.24982067      21.03676156      12.19306338       0.00000869       0.00003009      -0.00001440
H        8.78540299      20.43848020      10.43037116      -0.00000497      -0.00001082      -0.00000267
H        2.32085567      12.29114254       5.17324945      -0.00000378      -0.00000401       0.00001736
H        2.33076241      19.00496662       5.41530654       0.00002419       0.00004581      -0.00000924
H        2.33823413      18.78617157      11.60617236       0.00001611       0.00000236       0.00000471
H        3.24032208      11.96636774       9.60493916      -0.00000177      -0.00000210      -0.00000306
H       11.06856108      19.83665096       6.54966247       0.00005617      -0.00001896       0.00001703
H        3.13962457      20.34125032       6.22991353      -0.00002411       0.00001653       0.00005888
H        9.58674953      12.37935323       9.37589964      -0.00002416       0.00001901       0.00003646
H        4.61537068      12.89273723       9.04300212       0.00005054       0.00003158      -0.00001719
C       10.35143780      19.28523500       4.73646161      -0.00001028       0.00003241       0.00002835
C        3.90128332      19.86847088       4.42221029       0.00003055      -0.00001852      -0.00005888
C        3.91119820      19.76312473      10.72916220       0.00004676       0.00000593       0.00001839
C        3.91176208      13.43940612      10.86262701      -0.00001268      -0.00003472      -0.00004739
N        3.89001100      14.37791625       4.99773661      -0.00000340       0.00002977       0.00000963
N        3.89023743      19.15669353       3.31872147      -0.00002588      -0.00002651       0.00006499
N        3.90725022      20.87307494      11.43106509      -0.00001012      -0.00000100       0.00002670
N        9.53225396      20.46302708      11.13079061      -0.00000953       0.00000732       0.00002941
N        3.06381079      12.26550740       4.46862888      -0.00002153      -0.00001478      -0.00000184
N        3.07581950      19.70741569       5.43031810      -0.00004140      -0.00004236       0.00000443
N        9.52912394      13.01511157      10.17447906      -0.00000712      -0.00002495      -0.00000244
N        3.90091160      12.72767714       9.75910542      -0.00005310      -0.00003457       0.00001358
Pb       6.94660585       9.97419796      14.22466965       0.00000556       0.00000242       0.00000695
Pb       0.49750306       9.88934808      14.26344835      -0.00001602      -0.00000215       0.00001000
Pb       6.93615844      16.40329144       7.78421107      -0.00000489       0.00000436      -0.00001591
Pb       6.93117552       9.92449237       7.76731863      -0.00001206       0.00001335      -0.00000621
I       10.16229095       9.77898158      13.95214365      -0.00001006       0.00001770       0.00001191
I        3.72095968      23.01277668      14.51995662      -0.00000102       0.00000222      -0.00000275
I        3.69905360       9.62649852       7.63951136       0.00001639       0.00000113       0.00000325
I       10.14775058      10.17406763       7.96700503      -0.00001471      -0.00000179       0.00000190
I        6.74737768      19.62206010      13.87679712       0.00001292       0.00000531       0.00000128
I        7.20582187      13.09770821       1.89814605       0.00000354      -0.00001313       0.00000848
I        6.73007471      13.12684987       7.44356126       0.00000513       0.00001554       0.00000901
I        7.22327207      19.59288676       8.33135087       0.00000281      -0.00000498      -0.00000082
I        7.22897844      22.26385823       4.57845806      -0.00000310       0.00000414       0.00000174
I        0.26145756       9.52156279       4.59331307      -0.00001004       0.00001581       0.00001570
I        0.79069297      10.45906103      11.02809880       0.00001151       0.00000610      -0.00000025
I        6.72245671      10.27552238      11.02242270       0.00000948      -0.00000480      -0.00001826
H        4.65203876      13.17251345       3.51238195       0.00001970      -0.00002194       0.00000729
H        4.66198688      20.65077452       4.50701762      -0.00002591      -0.00000667      -0.00004601
H        4.66956755      19.66786520       9.94569394      -0.00000043       0.00001990      -0.00000968
H        4.67239095      14.22176886      10.94755479      -0.00003110       0.00000279      -0.00001355
H        4.60631005      15.09004534       4.82426763      -0.00003402       0.00000353       0.00003030
H        4.60463280      19.32166520       2.60253614       0.00003774       0.00001625      -0.00003428
H       11.07902896      13.40740520      12.99011791      -0.00000736      -0.00000016      -0.00003985
H        3.14986163      13.91202504      12.67027025      -0.00000024      -0.00000678      -0.00001381
H        8.77456000      20.14764408       3.75251218       0.00002430       0.00000515      -0.00001456
H        9.66842220      11.68815891       3.41082929       0.00000983       0.00000808      -0.00001855
H        9.70167853      14.33393137      12.43494658       0.00003760       0.00001145       0.00000470
H        2.34119866      12.57571673      11.85550474      -0.00001097       0.00001996      -0.00002472
H        9.69127683      20.76321308       5.99439358      -0.00001617      -0.00003850      -0.00000879
H        8.76800227      13.94308103       3.99711953      -0.00002268       0.00000380      -0.00000980
H        8.78504819      13.71860385      10.19296484       0.00000089      -0.00001103      -0.00000860
H        9.68565944      18.18357730       9.84387754       0.00000546      -0.00000041       0.00001911
H        3.12243445      11.45914335       3.84290418       0.00001406       0.00000526      -0.00000695
H        9.57926074      14.77502229       5.32147318       0.00001930      -0.00002225      -0.00002705
H        3.14003596      17.95435938      10.27584599      -0.00000499      -0.00000253       0.00000676
H       11.06318605      17.63276386      10.77279018       0.00000156       0.00000126       0.00000053
C        3.89378179      13.26789605       4.29594340      -0.00001618       0.00000968      -0.00000955
C       10.34230037      12.96287587       4.86797048       0.00001905       0.00000635       0.00001743
C       10.36192970      12.85613176      11.17685858       0.00004495       0.00001092       0.00002803
C       10.35964672      19.45810492      11.30112416       0.00001275       0.00000466      -0.00005433
N        9.51863036      19.44414620       3.73407348      -0.00005111       0.00000632       0.00002411
N       10.33065266      11.85124957       4.16882427       0.00003817      -0.00000660       0.00002204
N       10.36015658      13.57135639      12.27817793      -0.00003977       0.00000239       0.00001533
N        3.08618826      13.27823713      11.87062687       0.00002741       0.00003170       0.00006466
N       10.34969817      20.00057097       5.83771020       0.00000350       0.00000437      -0.00005296
N        9.51483850      13.96772615       4.69755378      -0.00001810       0.00001475       0.00002600
N        3.08127925      18.76065759      10.90164546      -0.00003076      -0.00003207      -0.00000831
N       10.34790865      18.34653742      10.60188564       0.00002992      -0.00000526      -0.00000435
Pb       0.50052969      16.36784756      14.28075766      -0.00000944       0.00000822       0.00001739
Pb       6.94854712      16.41971699      14.20044012       0.00000943       0.00000670       0.00002048
Pb       0.48312461       9.87263335       7.84763000      -0.00000503       0.00000875      -0.00001622
Pb       0.48700697      16.31847251       7.82301207      -0.00000088      -0.00000782      -0.00002244
I        3.71644599      16.12166334      14.07252310       0.00001508      -0.00000051       0.00000787
I       10.16514314      16.66924953      14.40010164      -0.00000716       0.00000793      -0.00000046
I       10.15182803      16.20816056       7.51155553      -0.00003270      -0.00000884       0.00001196
I        3.70351718      16.51754255       8.08664591       0.00002832      -0.00000411       0.00001203