768
Lattice="31.49355199749845 -0.025848077028578102 -0.036504099352598844 0.024973119363384963 29.335923657198983 0.7865581093631367 0.020259185244803742 0.7089949518393365 16.96287166690365" Properties=species:S:1:pos:R:3:forces:R:3 energy=-3353.82896763824 stress="-7.46868445683805e-09 -1.7832421537105024e-08 -9.636741102598707e-10 -1.7832421537105024e-08 5.123999219477545e-09 -1.337106805720843e-08 -9.636741102598707e-10 -1.337106805720843e-08 4.688552927812697e-09" free_energy=-3353.82896763824 pbc="T T T"
I        5.11295965       1.80211456       2.58060893      -0.00000067      -0.00000289       0.00000328
I        2.63273839       6.11248958       2.94829148       0.00000768       0.00000126       0.00000030
I        4.97521451       1.71754509       6.73135538      -0.00000427      -0.00000123       0.00000040
I        2.78055430       6.55154535       7.27898197       0.00000312      -0.00000406       0.00000217
I        6.69461237       5.16474674       5.23207993      -0.00000064       0.00000368       0.00000081
I        1.06117853       3.10433113       8.77829274      -0.00000349      -0.00000124      -0.00000727
H        0.52705875       2.74243320       4.20182179      -0.00000531       0.00000829       0.00000205
H        7.22864550       5.52662659       9.80856169       0.00000239       0.00001249       0.00000003
H        2.12863111       2.11553026       3.68679418      -0.00000130      -0.00000318       0.00000051
H        6.38417809       6.76833886       8.81977375      -0.00000380       0.00000090       0.00000688
H        1.37167660       1.50067464       5.19042159      -0.00000270       0.00000488       0.00000275
H        5.61704962       5.79899887       1.84211956      -0.00000740       0.00000499       0.00000575
H        2.33717128       4.29954987       4.72864736      -0.00000439      -0.00000256       0.00000253
H        6.12293406       4.54075967       7.85927382       0.00000357       0.00000241      -0.00000646
H        3.10167422       3.12000877       5.66843109       0.00000317       0.00000395       0.00000286
H        4.65406481       5.14905163       8.34189314       0.00000956      -0.00000235      -0.00000094
H        1.63279336       3.72821746       6.15111300       0.00000161      -0.00000315       0.00000485
H        5.41852461       3.96955369       9.28176996       0.00000623      -0.00000325      -0.00000855
C        1.49960663       2.37398730       4.54299033       0.00000442      -0.00000562       0.00000568
C        6.24606962       5.54056937       0.98591206       0.00001320      -0.00000603      -0.00000437
Pb       3.13014443      15.26637857       9.44072555       0.00000040      -0.00000174       0.00000110
Pb      30.68688495      15.16052922       9.37006241       0.00000243       0.00000547       0.00000300
N        2.17994325       3.45153104       5.31593206      -0.00000228      -0.00000342      -0.00000124
N        5.57578247       4.81752627       8.69442566      -0.00001313      -0.00000266       0.00000160
I        6.57680690       9.31215456       7.01629465       0.00000255       0.00000126       0.00000467
I        1.19154080      13.62489657       7.38732805      -0.00000328      -0.00000145      -0.00000125
I        6.71385384       8.87283797       2.68528247       0.00001156      -0.00000053      -0.00000786
I        1.04427446      13.70969189       3.23691290       0.00000717       0.00000134      -0.00000602
I        4.99664457      12.32286700       1.18993095      -0.00000894      -0.00000313       0.00000460
I        2.76153007      10.25967883       4.73225330      -0.00000025       0.00000361       0.00000164
H        1.68058087       9.27256187      -0.35667927       0.00000043       0.00000104      -0.00000943
H        6.07755110      13.30994300       6.27891237       0.00000203      -0.00000057       0.00000484
H        3.29462481      10.25145326       8.63609286      -0.00000622      -0.00001075      -0.00000588
H        5.31807908      13.92600666       4.77705012       0.00000209      -0.00000853       0.00000615
H        2.45020777       9.01102793       9.62653630      -0.00000350       0.00000096      -0.00000388
H        4.47376081      12.68563538       5.76764570      -0.00000825      -0.00000107       0.00000182
H        2.18487786      10.88452063       2.10639772      -0.00000565       0.00000007      -0.00000079
H        5.57333839      11.69805056       3.81577416      -0.00001686      -0.00001199      -0.00001757
H        0.72394074      10.63315987      10.10851728       0.00000374       0.00000702      -0.00000124
H        6.28007695      11.12556248       5.23660383      -0.00000412       0.00000951      -0.00000749
H        1.47808291      11.45697394       0.68558419       0.00000328      -0.00000719      -0.00000417
H        7.04433070      12.30384860       4.29504330      -0.00001285      -0.00000695       0.00000473
C        2.32224615       9.88457639       8.97942934       0.00001888      -0.00000273       0.00001381
C        5.44610490      13.05249617       5.42419592      -0.00000261       0.00001025      -0.00001344
Pb       4.63818243       7.67068189       4.96290616      -0.00000538      -0.00000211      -0.00000601
Pb       8.57499450       7.75064598       4.99705362      -0.00000484      -0.00000078       0.00000085
N        1.63531063      10.60871092       1.27251539      -0.00001642       0.00000568       0.00001237
N        6.12287722      11.97383782       4.64968221       0.00003104       0.00000622       0.00001953
I       12.98632741       1.79563552       2.57147495      -0.00000455      -0.00000399       0.00000799
I       10.50612745       6.10598923       2.93915756       0.00000482       0.00000687       0.00000049
I       12.84859689       1.71110293       6.72221755       0.00000139      -0.00000119      -0.00000264
I       10.65399689       6.54505170       7.26984167       0.00000002       0.00000388      -0.00000120
I       14.56802970       5.15829634       5.22289282      -0.00000239      -0.00000586      -0.00000098
I        8.93452713       3.09788430       8.76917227      -0.00000304      -0.00000379      -0.00000332
H        9.24503286       1.49419349       5.18125257       0.00000140       0.00000023      -0.00000037
H       13.50044734       6.14715469      10.31431953       0.00000830       0.00000749       0.00000726
H        8.40041473       2.73597095       4.19267775      -0.00000407       0.00000212      -0.00000273
H       15.10205418       5.52009815       9.79958094       0.00000478       0.00000827      -0.00000905
H       10.00199727       2.10909530       3.67764804       0.00000417      -0.00000441       0.00000173
H       14.24729053       6.40747746       0.32939692       0.00000883       0.00000914      -0.00001157
H       10.21050871       4.29308583       4.71955953       0.00000795       0.00000545      -0.00000056
H       13.29197463       3.96307301       9.27253325       0.00000386       0.00000397       0.00000052
H       10.97500870       3.11353328       5.65932924       0.00000331       0.00000138      -0.00000494
H       13.99651702       4.53434395       7.85013097      -0.00001022       0.00000409      -0.00000755
H        9.50611322       3.72171542       6.14200251       0.00001654       0.00000227      -0.00000093
H       12.52760714       5.14262222       8.33264714      -0.00000561      -0.00000227       0.00000837
C        9.37296266       2.36752382       4.53384532      -0.00000568       0.00000057       0.00001133
C       14.11947030       5.53411207       0.97677800      -0.00001336      -0.00001081      -0.00001866
Pb      11.00353659      15.25991164       9.43161462       0.00000245       0.00000106      -0.00000867
Pb       7.06672880      15.17992117       9.39743786      -0.00000273       0.00000550      -0.00000522
N       10.05327956       3.44505382       5.30682332      -0.00000881      -0.00001268       0.00000181
N       13.44929164       4.81107339       8.68524611      -0.00000966      -0.00000612       0.00000347
I       14.45017830       9.30566408       7.00717295      -0.00000300      -0.00000109      -0.00000587
I        9.06494164      13.61842703       7.37820532      -0.00000708       0.00000281       0.00000304
I       14.58725142       8.86640570       2.67613291      -0.00000099      -0.00000028      -0.00000540
I        8.91767604      13.70324632       3.22778530       0.00000973      -0.00000640       0.00000250
I       12.86998851      12.31642202       1.18083066       0.00000374      -0.00000308      -0.00000661
I       10.63490732      10.25320561       4.72310610      -0.00000044      -0.00000393       0.00000203
H        9.55398586       9.26609034      -0.36581557      -0.00000019       0.00000320      -0.00000051
H       13.95094560      13.30351034       6.26975187       0.00000396      -0.00000228       0.00000080
H       11.16800279      10.24493332       8.62692531       0.00000629       0.00000718       0.00000252
H       13.19139291      13.91950128       4.76790117       0.00000647      -0.00000016      -0.00000260
H       10.32360636       9.00454401       9.61743085      -0.00000307       0.00000137      -0.00000307
H       12.34715334      12.67913649       5.75857201       0.00000199       0.00000754      -0.00000475
H        8.58722807      10.27223640       1.61802912      -0.00001236       0.00000125       0.00000217
H       14.91768190      12.29736771       4.28589007      -0.00000081       0.00000699       0.00000358
H        9.36165591      11.80500740       9.15789440      -0.00000414      -0.00000412      -0.00000943
H       13.44668461      11.69153026       3.80668104       0.00000004       0.00000148      -0.00000890
H       10.05821901      10.87806865       2.09726237       0.00000060       0.00000320       0.00000155
H       14.15347455      11.11909287       5.22750158      -0.00000921       0.00001246      -0.00000135
C       10.19563209       9.87807430       8.97030188      -0.00000890      -0.00001080      -0.00000755
C       13.31947230      13.04601587       5.41506963      -0.00001159       0.00000095       0.00000644
Pb      12.51157175       7.66420792       4.95374335       0.00000393      -0.00000025       0.00000551
Pb      16.44838153       7.74421079       4.98790640       0.00000348       0.00000174      -0.00000429
N        9.50867098      10.60225159       1.26336976       0.00000563      -0.00001544      -0.00000585
N       13.99624424      11.96735175       4.64056393       0.00000823      -0.00001363       0.00001228
I        5.12301993       2.15656949      11.06207310      -0.00000070       0.00000805      -0.00000046
I        2.64282542       6.46696726      11.42972121      -0.00000220       0.00000960      -0.00000157
I        4.98534936       2.07203617      15.21279571       0.00001005       0.00000249      -0.00000492
I        2.79069653       6.90604289      15.76041344       0.00000681      -0.00000678       0.00000065
I        6.70473573       5.51923951      13.71345779      -0.00000533      -0.00000064       0.00000587
I        1.05106764       2.74984931       0.29686832      -0.00000331      -0.00001217      -0.00000581
H        0.53711264       3.09688861      12.68339159       0.00001162       0.00000023      -0.00000188
H        7.21861582       5.17210358       1.32706486       0.00000139       0.00000566      -0.00000556
H        2.13865931       2.47003876      12.16821767       0.00000982       0.00000388      -0.00000411
H        6.37400324       6.41390417       0.33851170       0.00000297      -0.00000047      -0.00000507
H        1.38184603       1.85513306      13.67189549      -0.00000129       0.00000088       0.00000447
H        5.62708379       6.15370251      10.32341918       0.00000438      -0.00000313       0.00000582
H        2.34724158       4.65403930      13.21009952       0.00000144      -0.00000420      -0.00000311
H        6.11287046       4.18639989      -0.62226220       0.00000477       0.00000335      -0.00000748
H        3.11182731       3.47450136      14.14981656      -0.00000317      -0.00000445       0.00000418
H        4.64399399       4.79459313      -0.13955066       0.00000347      -0.00000565       0.00000297
H        1.64296698       4.08266889      14.63260513       0.00000219      -0.00000020      -0.00000538
H        5.40849886       3.61501858       0.80018829       0.00000375       0.00000214       0.00000850
C        1.50969972       2.72846195      13.02447116      -0.00002050       0.00000939       0.00000180
C        6.25614549       5.89510609       9.46729261       0.00000716      -0.00000244       0.00000469
Pb       3.11996233      14.91184966       0.95928551       0.00000293       0.00000176      -0.00000139
Pb      30.67671117      14.80605367       0.88863095      -0.00000979      -0.00000295      -0.00000143
N        2.19006733       3.80600906      13.79738104      -0.00000131      -0.00000692       0.00000924
N        5.56572623       4.46305669       0.21293300      -0.00001772       0.00001736       0.00000692
I        6.58687964       9.66662211      15.49773174       0.00000177       0.00000245       0.00000459
I        1.20158941      13.97938207      15.86876198       0.00000248      -0.00000271      -0.00000124
I        6.72398330       9.22733748      11.16669604      -0.00001109      -0.00000219       0.00000180
I        1.05447633      14.06420267      11.71834425      -0.00001181      -0.00000020       0.00001037
I        5.00680439      12.67738207       9.67138833      -0.00000351      -0.00000312       0.00000100
I        2.77164290      10.61417801      13.21368436       0.00000567      -0.00000425      -0.00000595
H        1.69088018       9.62718474       8.12463755      -0.00001335      -0.00000361      -0.00000645
H        4.48384508      13.04015812      14.24893935       0.00000403      -0.00000001       0.00000499
H        3.28438696       9.89690893       0.15449281      -0.00001060      -0.00000078       0.00000585
H        6.08760295      13.66442945      14.76035585      -0.00000554      -0.00001007      -0.00001151
H        2.44013437       8.65655221       1.14516304      -0.00000325       0.00000563      -0.00000517
H        5.32827957      14.28051530      13.25842653      -0.00000041      -0.00000374       0.00001085
H        2.19489579      11.23895390      10.58789960       0.00000529      -0.00000054      -0.00000392
H        7.05452744      12.65832843      12.77654478      -0.00001850       0.00000153       0.00000546
H        0.71387207      10.27869989       1.62719360       0.00000716       0.00000745      -0.00001082
H        5.58356248      12.05255346      12.29716995      -0.00000504      -0.00000532       0.00000720
H        1.48823549      11.81148960       9.16704719       0.00000425      -0.00000187      -0.00000502
H        6.29019385      11.48005304      13.71805148      -0.00000624       0.00001594      -0.00000248
C        2.31206434       9.53004292       0.49799938       0.00001746      -0.00000934       0.00000039
C        5.45622903      13.40699947      13.90558044      -0.00000634       0.00002834       0.00001054
Pb       4.64828658       8.02516210      13.44430751       0.00000954       0.00000848      -0.00000117
Pb       8.58509877       8.10515324      13.47848731      -0.00000406      -0.00000145       0.00000027
N        1.64541071      10.96319396       9.75394429      -0.00000259       0.00000171       0.00000614
N        6.13304556      12.32833131      13.13112036       0.00002753      -0.00002112      -0.00002044
I       12.99639785       2.15015623      11.05291847       0.00000526      -0.00000352      -0.00000063
I       10.51624199       6.46051146      11.42060175      -0.00000010      -0.00000179      -0.00000143
I       12.85878765       2.06556272      15.20365810      -0.00000842      -0.00000093      -0.00000353
I       10.66406651       6.89958679      15.75129665       0.00000615      -0.00000802      -0.00000821
I       14.57811233       5.51278094      13.70438122       0.00000384      -0.00000507      -0.00000852
I        8.94471961       3.45236797      17.25056683      -0.00000394       0.00000082      -0.00000048
H        9.25523181       1.84866575      13.66270683      -0.00000032       0.00001068       0.00000049
H       13.49054246       5.79247979       1.83307172      -0.00000939       0.00000161      -0.00000276
H        8.41048897       3.09047848      12.67428263       0.00000388      -0.00000296      -0.00000796
H       15.09207344       5.16567447       1.31779822       0.00000197      -0.00000136       0.00001243
H       10.01199981       2.46361098      12.15902080       0.00000683       0.00000421       0.00000774
H       14.25769051       6.76187329       8.81078245      -0.00000734       0.00000067      -0.00000125
H       10.22069077       4.64755881      13.20096788      -0.00000903      -0.00000437       0.00000516
H       13.28190204       3.60855384       0.79108920       0.00000291      -0.00000485       0.00001082
H       10.98525952       3.46797471      14.14064107      -0.00000375      -0.00000058      -0.00000253
H       13.98617396       4.17996271      -0.63140344       0.00000477       0.00000464      -0.00000408
H        9.51642909       4.07617494      14.62347646      -0.00000315       0.00000040      -0.00000438
H       12.51732529       4.78813118      -0.14858476      -0.00001280       0.00000718      -0.00000317
C        9.38308054       2.72201589      13.01530966       0.00000010      -0.00001419       0.00000304
C       14.12959007       5.88860402       9.45823825       0.00000240       0.00000995      -0.00000007
Pb      10.99334697      14.90542821       0.95016857       0.00000531      -0.00000991      -0.00000274
Pb       7.05654808      14.82543599       0.91600653      -0.00000203       0.00000237      -0.00000171
N       10.06350210       3.79951924      13.78823225       0.00000487       0.00001593       0.00000425
N       13.43908299       4.45660080       0.20383437       0.00001501       0.00002782       0.00001800
I       14.46029324       9.66018397      15.48860649      -0.00000172       0.00000083      -0.00000370
I        9.07499510      13.97294170      15.85963124       0.00000371      -0.00000191       0.00000122
I       14.59735837       9.22087169      11.15758917       0.00000128      -0.00000315      -0.00000401
I        8.92785864      14.05773668      11.70921737      -0.00000040       0.00000085       0.00000622
I       12.88018291      12.67090588       9.66224700       0.00001067      -0.00000210       0.00000856
I       10.64501853      10.60771299      13.20455625       0.00000341      -0.00000225      -0.00000212
H        9.56423957       9.62066020       8.11553583      -0.00000443      -0.00000075       0.00000208
H       13.96099208      13.65794881      14.75124780      -0.00000767      -0.00000155      -0.00000883
H       11.15777568       9.89045361       0.14538565       0.00000584       0.00001031       0.00000361
H       13.20157954      14.27403975      13.24936591       0.00000035       0.00000458      -0.00000165
H       10.31351304       8.65009823       1.13604715      -0.00000505      -0.00000724       0.00000228
H       12.35722959      13.03363771      14.23989638      -0.00000015       0.00000689       0.00000036
H        8.59735117      10.62670501      10.09939053      -0.00000199       0.00000006       0.00000513
H       14.92785995      12.65190874      12.76738377      -0.00000027      -0.00000237       0.00000001
H        9.35145217      11.45051067       0.67643068       0.00000329       0.00000552      -0.00000585
H       13.45689124      12.04610018      12.28805625       0.00000150       0.00000197       0.00000486
H       10.06832218      11.23248381      10.57874768      -0.00001180      -0.00000372      -0.00001278
H       14.16359210      11.47359895      13.70890093      -0.00000352       0.00000598      -0.00000071
C       10.18544930       9.52358271       0.48887460      -0.00001131       0.00000370       0.00000291
C       13.32958521      13.40051628      13.89649744       0.00000552       0.00000723       0.00001102
Pb      12.52167806       8.01871733      13.43520592      -0.00000529      -0.00000404       0.00000470
Pb      16.45849697       8.09868772      13.46936777      -0.00000713      -0.00000245      -0.00000012
N        9.51882268      10.95671818       9.74480363       0.00002496       0.00000304       0.00002380
N       14.00639989      12.32188127      13.12198835       0.00000068      -0.00000919      -0.00000039
I        5.12538055      16.47006179       2.97389719       0.00000420       0.00000070       0.00000229
I        2.64520681      20.78042580       3.34155348       0.00000276      -0.00000383       0.00000050
I        4.98774915      16.38550065       7.12462965      -0.00000177       0.00000170       0.00000060
I        2.79304831      21.21950251       7.67223447       0.00000038      -0.00000185      -0.00000104
I        6.70711218      19.83271046       5.62531106      -0.00000222      -0.00000205      -0.00000044
I        1.07368431      17.77229694       9.17156477       0.00000880       0.00000107      -0.00000370
H        0.53950619      17.41038877       4.59518962      -0.00000079      -0.00000300      -0.00000152
H        7.24130377      20.19458086      10.20166231      -0.00000034       0.00000614       0.00000131
H        2.14105661      16.78353066       4.08003757      -0.00000198      -0.00000149       0.00000273
H        6.39661321      21.43638407       9.21318035       0.00000338       0.00000606      -0.00000082
H        1.38420296      16.16860182       5.58368668      -0.00000339       0.00000050       0.00000598
H        5.62949801      20.46706022       2.23533258      -0.00000266       0.00000073       0.00000096
H        2.34963617      18.96750579       5.12196651      -0.00000218      -0.00000159      -0.00000466
H        6.13542899      19.20889079       8.25240532       0.00000269       0.00000086       0.00000743
H        3.11419658      17.78794374       6.06167277      -0.00000350      -0.00000316       0.00000061
H        4.66658224      19.81706688       8.73522375       0.00000308      -0.00000010      -0.00000877
H        1.64533272      18.39611293       6.54444930       0.00000215       0.00000386       0.00000209
H        5.43115532      18.63748932       9.67490122      -0.00000192       0.00001225      -0.00000145
C        1.51208058      17.04194237       4.93628299       0.00000064       0.00000347      -0.00000593
C        6.25851985      20.20856951       1.37914484      -0.00000519      -0.00000998      -0.00000252
Pb       3.14257482      29.93431111       9.83399553       0.00000510       0.00000057      -0.00000048
Pb      30.67435555       0.49257300       8.97679764      -0.00000109       0.00000349       0.00000150
N        2.19244470      18.11946593       5.70922852       0.00000579      -0.00000347      -0.00000339
N        5.58833950      19.48553376       9.08764275       0.00000386       0.00000286       0.00001771
I        6.58925142      23.98012087       7.40955216       0.00000192      -0.00000644      -0.00000052
I        1.20395352      28.29285088       7.78059547      -0.00000258       0.00000286       0.00000362
I        6.72634479      23.54081193       3.07853375      -0.00000393      -0.00000085       0.00000378
I        1.05680622      28.37765477       3.63020352      -0.00000359      -0.00000365      -0.00000767
I        5.00913992      26.99083531       1.58321121      -0.00000046       0.00000182       0.00000634
I        2.77399216      24.92762175       5.12551227       0.00000480       0.00000357      -0.00000374
H        1.69319342      23.94064135       0.03646228       0.00000158      -0.00000226       0.00000466
H        4.48614965      27.35356429       6.16080499      -0.00000416       0.00000585       0.00000119
H        1.70326540      24.29503674       8.51796745      -0.00000756       0.00000302      -0.00000134
H        6.08989341      27.97783121       6.67226271       0.00000641       0.00000274      -0.00000259
H        3.30704437      24.91938420       9.02922091       0.00000171      -0.00000279      -0.00000257
H        5.33056460      28.59399712       5.17036851       0.00000118      -0.00000751      -0.00000178
H        2.19731552      25.55239639       2.49971174      -0.00000413      -0.00000397      -0.00000376
H        7.05683381      26.97186785       4.68837764       0.00000513      -0.00000252      -0.00000178
H        2.20746285      25.90696184      10.98108766       0.00001079       0.00000393       0.00002238
H        5.58587988      26.36607474       4.20899175      -0.00000380       0.00000161       0.00000637
H        1.49061952      26.12494007       1.07888059       0.00000379      -0.00000263      -0.00000116
H        6.29254096      25.79353366       5.62984264      -0.00000386       0.00000449      -0.00000244
C        2.33471044      24.55250348       9.37267868       0.00000811      -0.00000569       0.00001208
C        5.45852706      27.72044424       5.81746933       0.00000124       0.00000868      -0.00000051
Pb       4.65065961      22.33863122       5.35614628      -0.00000616       0.00000170      -0.00000107
Pb       8.58746920      22.41863411       5.39031994      -0.00000477      -0.00000894       0.00000125
N        1.64779819      25.27664343       1.66577570       0.00000843       0.00001374       0.00000479
N        6.13536438      26.64183159       5.04294867      -0.00000272      -0.00000841       0.00000037
I       12.99877870      16.46362140       2.96477859       0.00000220      -0.00000134      -0.00000899
I       10.51859130      20.77396770       3.33242395       0.00000725       0.00000465       0.00000371
I       12.86114507      16.37903256       7.11551572      -0.00000558       0.00000445      -0.00000478
I       10.66645115      21.21304117       7.66311485       0.00000282       0.00000011       0.00000445
I       14.58048123      19.82623471       5.61617273       0.00000299      -0.00000040       0.00000746
I        8.94709613      17.76583522       9.16243468      -0.00000022       0.00000283      -0.00000425
H        9.25762236      16.16213720       5.57463818      -0.00000515      -0.00000694       0.00000039
H       13.51318982      20.81498500      10.70775344      -0.00000592       0.00000477       0.00000084
H        8.41288875      17.40388954       4.58613064       0.00000093       0.00000517      -0.00000617
H       15.11472627      20.18816080      10.19251962       0.00000121      -0.00000566       0.00000694
H       10.01442364      16.77701956       4.07094447       0.00000895       0.00000150      -0.00000679
H       14.25990192      21.07541196       0.72255060      -0.00000122       0.00000092       0.00000358
H       10.22303903      18.96102912       5.11280357      -0.00000171       0.00000980      -0.00001108
H       13.30457876      18.63103507       9.66579249      -0.00000851       0.00000415       0.00000379
H       10.98762460      17.78149133       6.05252025       0.00000570      -0.00000113       0.00000843
H       14.00883892      19.20244906       8.24329597       0.00000105      -0.00000665      -0.00000671
H        9.51877668      18.38967648       6.53532223      -0.00000524       0.00000440       0.00000453
H       12.53998710      19.81060585       8.72612215      -0.00000207       0.00000035      -0.00000815
C        9.38547600      17.03545723       4.92720214       0.00000393       0.00002152       0.00001343
C       14.13193846      20.20213115       1.37001826      -0.00000008      -0.00000152      -0.00000150
Pb      10.99098306       0.59195650       9.03829652       0.00000341      -0.00000357      -0.00000369
Pb       7.07915056      29.84788452       9.79071549       0.00000825       0.00000008       0.00000125
N       10.06586388      18.11300556       5.70009343      -0.00000936      -0.00002741      -0.00000658
N       13.46174969      19.47908282       9.07853615       0.00001036       0.00001307       0.00001045
I       14.46264455      23.97363243       7.40043481      -0.00000256      -0.00000116      -0.00000103
I        9.07734098      28.28641052       7.77144486      -0.00000177       0.00000220       0.00000488
I       14.59972395      23.53436382       3.06940702       0.00000506      -0.00000799      -0.00000120
I        8.93019984      28.37120319       3.62104153      -0.00000145      -0.00000195      -0.00000202
I       12.88251913      26.98435906       1.57408329       0.00000096      -0.00000099       0.00000353
I       10.64739870      24.92117453       5.11638366      -0.00000656       0.00000231      -0.00000214
H        9.56648718      23.93407517       0.02743036       0.00000230       0.00000044      -0.00000453
H       13.96333248      27.97142537       6.66308925      -0.00000009       0.00000146      -0.00000288
H       11.18042019      24.91287388       9.02014383       0.00000118       0.00000246      -0.00000330
H       13.20397732      28.58752403       5.16118199      -0.00000811       0.00000090       0.00000138
H       10.33608102      23.67254042      10.01076791       0.00000101      -0.00000064      -0.00000322
H       12.35956566      27.34715646       6.15170219      -0.00000230      -0.00000750       0.00000178
H        8.59972058      24.94020457       2.01128265       0.00000760       0.00000472      -0.00000180
H       14.93020764      26.96535539       4.67922883       0.00001423      -0.00000235      -0.00000056
H        9.37408249      26.47296486       9.55108942      -0.00000120      -0.00000259       0.00001070
H       13.45923386      26.35954502       4.19991833       0.00001260       0.00001067       0.00001374