40
Lattice="12.645113410492767 -0.12455106794128397 -0.13111698373022157 0.1178250824057035 12.511794678997994 0.5425461263408534 0.09286648199847868 -0.6003069141705359 12.510596751511017" Properties=species:S:1:pos:R:3:forces:R:3 energy=-123.16153091157427 stress="0.004026745723588279 -1.732251524378596e-05 -7.012035156880843e-05 -1.732251524378596e-05 0.0033164964340700264 0.0007038713341849834 -7.012035156880843e-05 0.0007038713341849834 0.0034562060007229858" free_energy=-123.16153091157427 pbc="T T T"
Cs      14.63463306      10.54769576       6.74904325      -0.00001040       0.00000709       0.00000843
Cs       8.25455349       5.21390375       5.75856406      -0.00000960      -0.00001813       0.00001355
Cs       8.30276555       4.71738616      11.79880988      -0.00001409      -0.00000770      -0.00001002
Cs      14.68278727      10.05127505      12.78908595       0.00000251      -0.00000472      -0.00000862
Cs      14.62210792       3.99178153      12.73304578      -0.00000312      -0.00001688      -0.00001646
Cs       8.35991485      11.16968175      12.28507373      -0.00000948      -0.00001251       0.00000545
Cs       8.31516564      11.27340694       5.81458996       0.00000395       0.00000625      -0.00000134
Cs      14.57753141       4.09550387       6.26258687      -0.00001429       0.00000801      -0.00000054
Pb       5.08719458       1.43893560       9.06812876       0.00000672       0.00001342       0.00000026
Pb      11.46868249       7.63254372       9.27388026      -0.00002620       0.00000444      -0.00000104
Pb       5.14613453       7.69481435       9.33944106      -0.00000402       0.00000501      -0.00000538
Pb      11.40976059       1.37667774       9.00251831       0.00000695       0.00000520       0.00000944
Pb       5.04075499       1.73909516       2.81281402       0.00000778       0.00000664       0.00001192
Pb      11.42222622       7.93275428       3.01860253       0.00000533      -0.00000981      -0.00000892
Pb       5.09966699       7.99501369       3.08411959      -0.00000854       0.00000267       0.00000331
Pb      11.36333138       1.67685723       2.74725046      -0.00000408      -0.00000216       0.00000837
I        5.59749354       4.59079150       8.55511158      -0.00001868      -0.00000397       0.00000181
I       11.98803536      10.72787730      10.04612917       0.00000816       0.00000404       0.00002181
I       17.33993106      10.67433197       9.99261224       0.00000076      -0.00001612      -0.00000283
I       10.94931937       4.53725677       8.50149633      -0.00001362      -0.00000936       0.00000112
I       14.62057699       7.16940301       8.72264295       0.00002537       0.00002387       0.00000623
I        8.35685296      13.44228058       9.10059204       0.00000877       0.00000564       0.00001218
I        8.31675976       8.09562042       9.82520334      -0.00000378       0.00001460      -0.00002279
I       14.58049300       1.82287493       9.44704294       0.00001193      -0.00001589      -0.00000637
I       18.25508649      11.02231563       2.43993649      -0.00001972      -0.00002454      -0.00000180
I       11.88273113       4.77215854       3.51963080      -0.00000519       0.00001861      -0.00000626
I        4.68230364       4.24284644      16.10771157       0.00000524       0.00001804       0.00000416
I       11.05459513      10.49302729      15.02810767       0.00001113      -0.00000463      -0.00000603
I        8.34435468       6.88627964      15.08480238       0.00000598       0.00000259      -0.00000699
I       14.60810415       0.61344631      14.70642476       0.00000361      -0.00000225       0.00003722
I       14.59294797       8.37898695       3.46292544       0.00001552      -0.00001758       0.00001314
I        8.32924287      14.65176371       3.84111557       0.00000210      -0.00001740       0.00000306
I        5.71942166      14.43886727      12.76470780      -0.00001026       0.00001826      -0.00002450
I       11.97045809       6.83587305      12.36709882       0.00001402       0.00002419       0.00000371
I       17.21791222       0.82624187       5.78298166       0.00001210       0.00000278      -0.00001769
I       10.96678583       8.42928279       6.18068900       0.00000524      -0.00001150      -0.00003284
I        5.61393928       8.48314759       6.23816428       0.00001123       0.00001162      -0.00000402
I       11.98316268      13.39199349       6.38299368      -0.00001307      -0.00001988       0.00000952
I       17.32334139       6.78194629      12.30957639       0.00001980       0.00002025       0.00000552
I       10.95431029       1.87318791      12.16462689      -0.00000604      -0.00000816       0.00000424
