40
Lattice="15.822755959635721 -0.0213136300773087 -0.26174201557777566 -0.15149218150827312 14.945320166260968 0.6062207778905462 0.268622226256091 -0.3264851038351396 8.544861718894147" Properties=species:S:1:pos:R:3:forces:R:3 energy=-123.08910861701584 stress="0.002683386935719238 -0.00021166678639539352 0.0001046568935624634 -0.00021166678639539352 0.004648690742752549 9.226971644676561e-05 0.0001046568935624634 9.226971644676561e-05 0.003141440842088854" free_energy=-123.08910861701584 pbc="T T T"
Cs      -1.56835483       3.21970198       3.91417920       0.00001038      -0.00000128      -0.00000609
Cs       2.53417918       5.39332235       8.19001314      -0.00000415      -0.00000068      -0.00000003
Cs      -1.67186778      10.66938392      -0.02556208      -0.00000749       0.00002071       0.00000427
Cs       2.21783447      13.21531123       4.19110084      -0.00000010      -0.00001164       0.00000125
Cs       6.34323270       3.20909625       3.78339343       0.00000379       0.00001942      -0.00002155
Cs      10.44559212       5.38267803       8.05910493      -0.00000556      -0.00000191       0.00001590
Cs       6.23927762      10.65889822      -0.15644169       0.00001512       0.00001881      -0.00000850
Cs      10.12927105      13.20461274       4.06028154      -0.00001662       0.00000958       0.00000080
Pb      -0.21223326      15.42112780       8.59237370      -0.00001632       0.00004750       0.00000785
Pb       3.75642578      15.41761366       8.54151716      -0.00001431      -0.00000156      -0.00000299
Pb       1.02665280       8.13708920       4.11796109      -0.00002313      -0.00001005      -0.00001025
Pb      -2.94199330       8.14080960       4.16893800      -0.00000999      -0.00001571      -0.00004301
Pb       7.69914635      15.41055216       8.46158553       0.00004655       0.00000840      -0.00001666
Pb      11.66780034      15.40681917       8.41063685       0.00001132       0.00000205       0.00000323
Pb       8.93804600       8.12661113       3.98716218      -0.00002104       0.00001970      -0.00002281
Pb       4.96938510       8.13019846       4.03800412       0.00006069      -0.00000897      -0.00004538
I        1.62070496       1.82358595       1.78177210       0.00001266       0.00001019      -0.00001756
I       -0.92353837       7.11579306       1.77755138       0.00003309       0.00000447       0.00003726
I        1.84085850       2.08536544       5.95357012       0.00000948       0.00001070       0.00000059
I       -0.87492385       6.52759563       6.15059693      -0.00003174       0.00001353       0.00001576
I        3.06013107       5.57547368       3.65759012      -0.00001251      -0.00002042      -0.00000890
I       -2.09414242       3.03749208       8.44658511       0.00000400      -0.00001486       0.00000918
I        3.11268590       9.03506761       6.48963937      -0.00001440       0.00001935       0.00004954
I       -2.29831189      14.52331774       6.22063745       0.00000994      -0.00001899      -0.00000850
I        3.00958595       9.80856811       2.11879547       0.00003264       0.00000751      -0.00000249
I       -2.46383226      14.07608089       2.04660030       0.00000938       0.00000592       0.00001320
I        1.69809579      12.87133169       8.21190186       0.00002039      -0.00001139      -0.00000544
I       -0.88357098      10.68697876       4.49847481       0.00000451      -0.00000403       0.00000030
I        9.53222799       1.81296084       1.65091304      -0.00003295      -0.00000524       0.00001755
I        6.98798819       7.10531094       1.64669102      -0.00001458       0.00000282       0.00004770
I        9.75230295       2.07469536       5.82274074      -0.00002363       0.00000344      -0.00002167
I        7.03641223       6.51715968       6.01980260      -0.00001536      -0.00000309      -0.00004014
I       10.97130871       5.56487268       3.52677597       0.00005725      -0.00001197       0.00000287
I        5.81728013       3.02695968       8.31576369      -0.00002048      -0.00002645       0.00000121
I       11.02417138       9.02446465       6.35887265      -0.00001566      -0.00000227       0.00000287
I        5.61311633      14.51271890       6.08984134      -0.00002527      -0.00000375       0.00002270
I       10.92110533       9.79801644       1.98802195       0.00000941      -0.00004769       0.00002675
I        5.44750705      14.06562728       1.91583688      -0.00001116      -0.00001758       0.00000842
I        9.60933643      12.86063830       8.08113455      -0.00000175       0.00002689      -0.00002613
I        7.02773804      10.67646952       4.36754957      -0.00001238      -0.00001146       0.00001889
