96
Lattice="19.047508438450507 -0.2900468020628802 0.2559468199924471 0.17753825412340227 11.696684097763649 0.032868491277480004 0.22014347347434066 -0.028874518085132715 9.075198849531171" Properties=species:S:1:pos:R:3:forces:R:3 energy=-458.09090109156205 stress="3.165508539360685e-08 1.3748431472648913e-09 -4.568756828227718e-08 1.3748431472648913e-09 -2.6582202657250832e-08 -1.7199074109912293e-08 -4.568756828227718e-08 -1.7199074109912293e-08 2.882820723230507e-08" free_energy=-458.09090109156205 pbc="T T T"
H        8.03969966      -0.00155765       3.69517017      -0.00000294       0.00000668       0.00002856
H       12.36362469      11.45157583       2.26482994      -0.00000864       0.00000604       0.00000536
H        2.80893094       5.92581236       4.38988452       0.00000638      -0.00000168      -0.00000335
H       17.59460884       5.52428114       1.57024554       0.00000610       0.00000994      -0.00000349
H        7.99617317       2.11926859       7.33458277      -0.00000998       0.00000408      -0.00000038
H       12.51737211       9.31643367       3.16301900       0.00000293       0.00000092       0.00000412
H        4.49833484       5.10091647       7.40187604       0.00000598      -0.00000624       0.00000768
H       16.01510873       6.33482230       3.09585289      -0.00000075       0.00001173       0.00000351
H        5.55603776       0.75525880       5.17091749       0.00001892      -0.00001262      -0.00000273
H       14.01758000       8.95635574       2.30607613      -0.00000496      -0.00001176       0.00000938
H        5.42461595       6.60047683       7.45584862      -0.00000955      -0.00000444       0.00001217
H       15.08879203       4.83528686       3.04175154       0.00002028      -0.00000271       0.00000694
H        6.38595993       2.49380698       3.65399606       0.00000290      -0.00000556      -0.00000842
H       14.84743154      10.69499567       0.78921128      -0.00000921      -0.00000477      -0.00000295
H        4.53778339       8.36946498       4.44487258       0.00001011       0.00000126       0.00000335
H       15.86558547       3.08075141       1.51511519       0.00001599       0.00000902      -0.00000282
H        7.88609117       2.13359580       2.79697958       0.00002441       0.00001645      -0.00001148
H       13.96711947      12.22227290       0.74361576      -0.00000303       0.00000325      -0.00000406
H        3.02732162       8.05024475       5.29999534       0.00000022       0.00000786      -0.00002562
H       16.12516354       6.32038295       7.63336470      -0.00000739      -0.00000728       0.00001481
C        7.20529969       0.64721996       3.97826236       0.00003081       0.00000744      -0.00002165
C       13.19809807      10.80287383       1.98178296       0.00000365       0.00001588      -0.00000559
C        3.66269704       6.55049021       4.11035479      -0.00001296       0.00000908       0.00002324
C       16.74077474       4.89966508       1.84970507      -0.00002136       0.00001045       0.00001092
N        6.33745225       0.17810176       4.84309657       0.00000026      -0.00000213      -0.00000281
N       13.26407741       9.60930811       2.52751048       0.00001075       0.00001009      -0.00002073
N        4.62596002       6.04557697       7.78053121       0.00002004       0.00002019      -0.00000677
N       15.88748691       5.39017840       2.71715348      -0.00000292      -0.00002985      -0.00002165
N        7.13939388       1.84078709       3.43252734      -0.00004798      -0.00001602       0.00002731
N       14.06595458      11.27208034       1.11700480      -0.00001273      -0.00001330       0.00001993
N        3.76481850       7.73843259       4.66274587      -0.00000213      -0.00001359       0.00001166
N       16.63861124       3.71173193       1.29730307      -0.00001705      -0.00000497      -0.00000143
Pb       1.62413416       1.81223223       1.49661321      -0.00000425       0.00000039       0.00000022
Pb      18.77938044       9.63791256       4.46346664      -0.00001069      -0.00000127       0.00000326
Pb       9.16651670       7.54580525       2.06031852      -0.00000120      -0.00000278       0.00000826
Pb      11.23691094       3.90432559       3.89965654       0.00000579       0.00000575       0.00000355
I        0.75757694       3.90961139       3.78368902      -0.00000711       0.00001130       0.00000233
I        0.59839272       7.83058784       1.92042947       0.00000011       0.00000205       0.00000810
I       10.20660437       9.61429450       4.32259815       0.00000342       0.00001107      -0.00001189
I       10.19684300       1.83581557       1.63739200       0.00000528       0.00000110      -0.00000536
I       17.60892595       0.12097799       2.17215618      -0.00000163      -0.00000896       0.00000109
I        2.79457825      11.32917964       3.78793324      -0.00000539       0.00000156       0.00000626
I       12.18529206       6.05462369       1.63265139      -0.00000162      -0.00000690       0.00001109
I        8.21813926       5.39550911       4.32732552       0.00000015       0.00000667      -0.00000442
I        4.43607729       3.13070410       1.25568764      -0.00000004       0.00000696       0.00001065
I       15.96742864       8.31945623       4.70435625       0.00000745       0.00000610       0.00000396
I        6.39589101       8.94770614       2.30897017      -0.00000469       0.00000744      -0.00000005
I       14.00756466       2.50248504       3.65104912      -0.00000219       0.00000079       0.00000342
H        8.14987020      -0.01590908       8.23269441      -0.00000009       0.00001003      -0.00000160
H       12.47369617      11.43720889       6.80234705       0.00000205      -0.00000798       0.00000889
H        2.91893146       5.91147955       8.92758028       0.00000226       0.00001425      -0.00001558
H       17.70464897       5.50984978       6.10773608      -0.00000669      -0.00000087       0.00000399
H        6.43622765      -0.77209482       5.21649204       0.00001191      -0.00001903      -0.00000254
H       12.62740510       9.30209056       7.70060352       0.00000529      -0.00001130       0.00000285
H        4.38838212       5.11538149       2.86416242      -0.00001708      -0.00000393      -0.00001296
H       17.48622868       3.38539301       5.19769249      -0.00000500       0.00000205      -0.00001324
H        6.49602820       2.47939100       8.19161606      -0.00002180       0.00000367      -0.00000297
H       14.12763350       8.94197685       6.84371180      -0.00001340      -0.00000393       0.00001364
H        5.31457945       6.61499755       2.91817886      -0.00000424      -0.00002257       0.00001272
H       15.97571360       3.06625482       6.05275174      -0.00000739       0.00000008       0.00000055
H        5.66617417       0.74073958       9.70846485       0.00000428      -0.00000983      -0.00000795
H       14.95753643      10.68056922       5.32681480       0.00000195      -0.00000704      -0.00000812
H        4.64790355       8.35505119       8.98246422      -0.00000558      -0.00000129      -0.00000415
H       15.19890335       4.82080785       7.57934104      -0.00000545       0.00001049       0.00000938
H        6.54643031      -0.78657497       9.75397749      -0.00001168      -0.00000727       0.00001848
H       14.07723297      12.20785105       5.28115536       0.00000116       0.00001377      -0.00000731
H        3.13742076       8.03594531       9.83759222      -0.00000255      -0.00002375       0.00000502
H       17.37613535       3.39987202       0.66010969       0.00000206      -0.00000505      -0.00000739
C        7.31544069       0.63282214       8.51580466       0.00000421       0.00000400       0.00000745
C       13.30817272      10.78849173       6.51934153       0.00002023       0.00003548      -0.00002026
C        3.77272788       6.53610509       8.64802562      -0.00000713      -0.00000795       0.00000135
C       16.85084544       4.88521273       6.38724302      -0.00001141      -0.00001278       0.00001228
N        7.24948303       1.82640630       7.97011509       0.00001921      -0.00001029      -0.00000726
N       13.37412766       9.59494024       7.06510279       0.00003249      -0.00001980      -0.00001744
N        4.51595106       6.06004201       3.24283749       0.00002967      -0.00000608      -0.00001455
N       16.74870743       3.69725550       5.83488800       0.00001757       0.00000121      -0.00000626
N        6.44761165       0.16363037       9.38061779       0.00000255       0.00001703      -0.00001334
N       14.17605680      11.25766879       5.65457490      -0.00004490      -0.00002923       0.00003222
N        3.87490932       7.72406411       9.20036885       0.00001059       0.00000098      -0.00000212
N       15.99756396       5.37572313       7.25469884       0.00001626       0.00000887      -0.00000456
Pb       1.73420381       1.79781402       6.03421196       0.00000346       0.00000415       0.00000835
Pb      18.88941479       9.62347862       9.00106141       0.00000542      -0.00000147      -0.00000157
Pb       9.27659323       7.53135102       6.59791457      -0.00000366       0.00000797       0.00000353
Pb      11.34700499       3.88988684       8.43726475      -0.00000244      -0.00000101       0.00000614
I        0.86764028       3.89517158       8.32131243       0.00000262       0.00000676      -0.00001318
I        0.70846861       7.81613840       6.45805150      -0.00000495      -0.00000070      -0.00002253
I       10.31666367       9.59986255       8.86019112      -0.00000459       0.00000609      -0.00000824
I       10.30691606       1.82139378       6.17499103       0.00000777      -0.00000062      -0.00000623
I       17.71900077       0.10654682       6.70974967      -0.00000266      -0.00000499      -0.00001763
I        2.90462846      11.31474080       8.32552041       0.00000852       0.00000132       0.00000350
I       12.29536662       6.04017756       6.17025315      -0.00000077      -0.00000312       0.00000469
I        8.32821875       5.38107368       8.86492827       0.00000289       0.00000060       0.00000067
I        4.54613104       3.11632421       5.79328999      -0.00001201       0.00000654      -0.00000024
I       16.07747405       8.30500526       9.24192912       0.00000418      -0.00000141       0.00000362
I        6.50594657       8.93321787       6.84655238      -0.00001053       0.00000403      -0.00000085
I       14.11765404       2.48802958       8.18866683      -0.00000215       0.00000921      -0.00000276
