768
Lattice="25.4327037341 -0.128366450475 -0.19246326308 -0.102211579868 25.6251941832 -0.25866893228 -0.151953215329 -0.238784317608 25.3217848679" Properties=species:S:1:pos:R:3:forces:R:3 stress="-0.0009039386739252562 -0.0003089318702908388 -0.00030582813632328346 -0.0003089318702908388 0.0009063155404645386 -0.001117042114312195 -0.00030582813632328346 -0.001117042114312195 0.00023151775851952317" energy=-3576.11302906 pbc="T T T"
Pb     -10.13036362      -8.62669981     -10.50371389       0.26844495       0.18396649       0.40239677
Pb     -10.31157879      -8.36866727      -3.83178095       0.02910742      -0.84942444      -1.19415828
Pb     -10.39494470      -8.53663128       2.52023639      -0.17875331      -0.09512763      -0.42886361
Pb      -9.88774701      -8.76793863       8.61145378      -0.47036773      -0.32148576      -0.00178361
Pb     -10.95111553      -2.42807503     -10.45876597       0.46963202      -0.19530292       0.35990216
Pb     -10.29046038      -2.33636490      -4.05021961      -0.56053615       0.05676153       0.00551136
Pb     -10.57237917      -2.01570991       2.14347790       0.18393892      -0.22424833       0.46650009
Pb     -10.44954545      -2.85066718       8.57740432      -0.54236726      -0.05330313       0.09641211
Pb     -10.60128305       4.29137919      -9.82163934      -0.19826870      -0.13847314      -0.32389436
Pb     -10.30244042       4.84842866      -3.74513347      -0.62444652      -0.53047337       0.65604544
Pb     -10.36424533       4.34625764       2.76404494      -0.19135987      -0.12883414      -0.08671101
Pb     -10.17772868       4.21505805       9.39386250      -1.06840720       0.30884271      -0.22301301
Pb     -10.74184696      10.62015662      -9.88191095       0.20145644       0.03914736      -0.39501873
Pb     -10.60687130      10.81834988      -4.17139447      -0.37904343       0.21643425       0.60975025
Pb     -10.60507967      10.91813511       2.28905914       0.37473410       0.32515140      -0.07934058
Pb     -10.21593744      10.85927576       9.23737767      -0.27868536      -0.16854905      -0.36973599
Pb      -4.08094841      -8.88088576     -10.74917265       1.06265119       0.38256691      -0.02429038
Pb      -3.99086543      -8.61932470      -4.27374710      -0.61006144      -0.23438734      -0.26079139
Pb      -3.98477022      -9.10559902       1.98640509       0.06699184       0.21764289       0.60477597
Pb      -3.42166187      -8.79441248       8.28378139      -0.59655540       0.46420082       0.14818581
Pb      -4.32059964      -2.23086749     -10.53184989       0.23803199      -0.36863743      -0.24754713
Pb      -4.38592486      -1.96385217      -4.27591313       0.17634202      -0.55341888      -0.60108117
Pb      -4.24855233      -2.40589296       1.77677905       0.35773434      -0.47160384       1.13580622
Pb      -3.90370384      -2.03245418       8.41443206      -0.80698434      -0.63827747      -0.08040304
Pb      -4.42791338       3.95273166     -10.31269435       0.08448347       0.52453470      -0.31283388
Pb      -3.83446138       4.00491003      -4.01861650      -1.36461732       0.31098626       0.62958347
Pb      -4.13695959       4.15247211       2.44232974       0.24720097       0.22938898       0.74751097
Pb      -4.13978326       3.85631548       8.64376122       0.05203309       0.37325752       0.27551568
Pb      -4.29835889      10.64327222     -10.25987413       0.02121853       0.03859891      -0.51379591
Pb      -4.62188250      10.19073433      -4.33419322       0.76623134       0.01520979       0.08594862
Pb      -4.27732437      10.20250878       2.03946212       0.81115244       0.04470984       0.58463430
Pb      -3.84676228      10.62265610       8.56914785      -0.08254236      -0.10173479      -0.24219232
Pb       2.48274974      -9.42583609     -10.31237049      -0.17419951       0.06571317      -0.20718811
Pb       1.85526961      -8.02780381      -4.19705247       0.60648645      -0.18931134      -0.04620037
Pb       2.49547485      -8.64290638       2.20555833      -0.07803935       0.50273944      -0.38089339
Pb       2.54439828      -9.19181176       8.39655718       0.08126580       0.38980988       0.13799657
Pb       2.11593185      -2.44259909     -10.97478164      -0.07912232      -0.06909300       0.12977366
Pb       2.03815063      -2.28389417      -4.28638964       0.34422239      -0.12763233      -0.03763647
Pb       2.24637884      -2.14166700       2.21794834       0.37432224      -0.29285980       0.01095251
Pb       2.72973201      -2.36743044       8.45858113       0.00591359      -0.30496059      -0.62492776
Pb       1.82408544       3.91727806     -10.26232231       1.11498370      -0.46010318       0.31022683
Pb       2.03579591       4.14358026      -4.00368153       0.55317742      -1.31042153       0.59435416
Pb       2.40837141       4.15233502       2.14755056       0.28128063      -0.05947348       0.84455733
Pb       2.23958650       4.03324849       9.04092155       0.51418951       0.38571741      -0.94688551
Pb       2.23478732      10.02395400     -10.04126346      -0.17254083      -0.24005719      -0.93848273
Pb       1.88903316      10.70585964      -4.11297008       0.17797925       0.48535612       0.08460135
Pb       1.62791991      10.55371502       1.70527331       0.74353145      -0.05229385       0.59033589
Pb       2.04572975      10.61134898       8.23251336       1.14172011      -0.71246294       0.21611659
Pb       8.68456880      -9.03322447     -10.41592835       0.20192527       0.51581200       0.31685128
Pb       8.77043935      -8.56199705      -4.29180814      -0.60851001      -0.10222025       0.14670452
Pb       8.58465114      -8.33903792       2.11825556       0.86235549      -0.48031989       0.24957023
Pb       9.00532571      -9.06226662       8.67379640      -0.21399920       0.51880183      -0.51903338
Pb       8.30519659      -2.63704199     -10.07369601       0.16547126       0.47899575      -0.13489231
Pb       8.71214701      -2.15620022      -4.52134298       0.04132116       0.35972423       0.36752568
Pb       8.66855003      -2.33941338       2.01421792       0.04331801       0.56124934      -0.05994715
Pb       9.08461550      -2.07529213       8.34208500      -0.39215662      -0.46801655       0.13709423
Pb       8.93498073       3.31800367      -9.75404041       0.09244557      -0.30987890      -0.50812957
Pb       8.70371880       4.14440458      -4.05476458      -0.13747672       0.40101601       0.93901610
Pb       8.46093718       4.28605987       2.30759641       0.03039153      -0.15330337      -0.05534360
Pb       8.99170154       4.25067575       8.87925616      -0.37509565      -0.17689985      -0.24103911
Pb       8.63403719      10.30719455     -10.13555742      -0.19249124      -0.50581588       0.34744493
Pb       8.25288677      11.20634016      -4.58306936      -0.03987381      -1.07746216       0.35794906
Pb       8.48703956      10.67013615       1.73080344       0.58605791       0.05042805       0.20424974
Pb       8.91934274      10.20796211       8.59495668      -0.96683321       0.02126320      -0.12456127
I       -6.91884039      -9.04509450     -11.10021927      -0.78233724       0.06659164       0.14214074
I       -7.12101367      -8.73682172      -4.76018532      -0.04135819       0.15647699       0.03338201
I       -7.11151205      -9.04313740       2.64432322       0.08654985       0.17624562      -0.43044438
I       -7.00283820      -9.30273342       9.17256472       0.35983035       0.09000539      -0.18911938
I       -7.35165291      -2.59238975     -10.20862190      -0.14686894      -0.00138883      -0.03227685
I       -7.34467885      -2.91407429      -4.49275912       0.40365969       0.04501630      -0.19119559
I       -7.46363510      -2.76595480       2.28479868       0.81375644      -0.05750607      -0.14951879
I       -7.53510035      -2.47898528       8.86832309       0.96996712       0.00192165      -0.02931372
I       -7.47444616       4.10641921     -10.45984780      -0.03770937       0.19213873       0.16153672
I       -7.23695241       4.52675531      -3.45807800       0.23363227      -0.08447895      -0.37405832
I       -7.29958664       3.81727130       2.58171375       0.53402547      -0.35721334      -0.49624821
I       -7.43468876       3.56009815       8.69579445       1.02745159      -0.09745542      -0.12510619
I       -7.37114616      10.48339257      -9.62195998       0.11975595       0.23417745      -0.08193150
I       -7.41979953      11.14346833      -3.65007789      -0.31703910      -0.18522816      -0.00291510
I       -7.00874084      11.08901608       2.13482530      -1.00468446      -0.07513342      -0.00473024
I       -7.35566936      10.32771179       8.69556114       0.69284465       0.13194465      -0.04043300
I       -0.54739646      -9.49912358     -10.10609113       0.18555564       0.26584025      -0.12586322
I       -1.07719035      -9.08941496      -4.67260922       0.64489055       0.07958757       0.11324288
I       -0.57284141      -8.32454380       1.82960218      -0.51369839      -0.02943848       0.15081467
I       -0.47706774      -8.12258558       8.78440825      -0.21911222      -0.08998396      -0.00975709
I       -1.08593577      -1.99600906     -10.68240986       0.51698941       0.02713037      -0.15353593
I       -1.08726024      -2.23969416      -4.44433836      -0.08914907      -0.01336618      -0.00469641
I       -1.01659970      -2.69061044       1.99429821       0.31301204       0.51448257       0.14198502
I       -1.10169071      -2.40227397       9.06954987       1.15432365       0.34519439      -0.15805784
I       -1.06413475       3.83967557     -10.33509851      -0.90452355       0.25251978      -0.33428640
I       -1.09533992       4.56244399      -3.95684297       1.30022402      -0.10717767       0.21582129
I       -0.80274249       4.78638489       2.13298678      -0.61143629      -0.19413271      -0.05008493
I       -0.73397788       3.84285402       7.84748083      -0.06742385      -0.28584299       0.31945516
I       -1.38223995       9.85097015     -10.46856961       1.26247784       0.07584969       0.12642263
I       -1.20421110       9.77671466      -4.14531233       0.22129617       0.03313924       0.02997329
I       -1.01970082      10.02271423       2.80260504      -0.16446305       0.22987787      -0.18196727
I       -0.88011238      10.28073256       7.93234584      -0.70359389      -0.14448935      -0.12024875
I        5.76303294      -9.48088570     -10.45654501      -0.17588761       0.11987157       0.03324602
I        5.51336187      -9.78424434      -4.29430053      -0.10540310       0.90748962       0.47745611
I        5.63569508      -8.67897605       2.34838336      -0.59719308      -0.53452877      -0.56459916
I        5.50162678      -9.66648774       8.32724929       0.40720244       0.15322811      -0.46757184
I        5.20991031      -2.58454967      -9.49248678       0.39403425      -0.14432531      -0.18813454
I        5.44197352      -1.88644346      -4.07403436      -0.07937172      -0.05762035      -0.23180774
I        5.63660404      -1.95041935       2.08804813      -0.53279299      -0.18182184       0.01918293
I        5.79045017      -2.16773109       7.93203568      -0.36859985       0.72096436       0.40019056
I        5.91917620       3.58177801      -9.73662685      -0.82233757      -0.29093907      -0.53502151
I        5.42566341       4.21059904      -3.79400591      -0.38979762      -0.82003489      -0.60469021
I        5.54826876       3.77968479       1.17930992      -0.65061925       0.11677815       0.50977388
I        5.44344378       3.95207184       8.73715479      -0.01023783       0.28475944       0.13959069
I        5.39490334      10.28234981     -10.48788696       0.26125747      -0.27586698      -0.16676207
I        5.19018871      10.43158882      -4.11260425      -0.30547353       0.19054005       0.46914861
I        5.57905823      10.96139573       1.33599246      -0.82281239      -0.09090341       0.06853399
I        5.35506054      10.50651256       9.08635870       0.24443001      -0.20305169      -0.11733693
I       12.39534484      -9.05777042     -10.98014256      -0.96483195      -0.03216909       0.00826861
I       11.82353696      -8.24786041      -3.89867946       0.06974412      -0.15903064       0.26843263
I       11.70890340      -8.78220662       1.74166510       0.46793159       0.10069548       0.07305620
I       11.85061861      -9.74156289       7.66444515       0.16535956       0.09739081      -0.07468828
I       11.57212484      -3.15119433     -11.09369314      -0.08605932       0.11102531      -0.20537576
I       11.76080754      -2.39763116      -3.67854115       0.16726692       0.75331019      -0.30271748
I       12.07054601      -1.21411026       1.90195159      -0.93502802      -0.66803060       0.30385007
I       11.96267118      -2.23694762       9.07235810      -0.06310925      -0.03003225      -0.00341203
I       11.53533897       4.82818766     -10.02140834       1.65119938       0.06965818       0.33180126
I       11.83269813       4.14796673      -3.52237843       0.24898071       0.44999059      -0.34675180
I       11.91589551       4.66618264       2.39627215      -0.13021945      -0.61723335      -0.11083729
I       12.05789391       4.34764978       8.43582482      -0.14717970      -0.03120301      -0.01912036
I       11.95997725       9.56404596      -9.41157722      -0.71602543       0.21170455      -0.04032757
I       11.52058700      10.67617563      -5.07253900       0.17824825       0.17759487       0.09511509
I       11.89184338      10.76102439       1.57693716      -0.22763535      -0.15009106       0.14201969
I       11.90812142      10.21088402       8.76087127       0.35892608      -0.80704337       0.85917877
I      -10.22172003     -11.90514280     -10.34320657       0.25719540       0.34538163       0.63518853
I      -10.52486259     -11.65716458      -4.23352003       0.00118543      -0.41053712      -0.00059711
I      -10.60042785     -11.62130620       1.83160357       0.07919926      -0.44023913       0.11598287
I      -10.29543175     -11.82999965       8.71118945      -0.09242324      -0.29244332       0.06687491
I      -10.26258522      -5.43146225      -9.80265020      -0.41861635      -0.00800037      -0.44485000
I      -10.27992589      -5.55963508      -4.15005556       0.01753212       1.00182936      -0.03864666
I      -10.39606398      -5.50274776       2.12706367       0.04622977       0.24948500      -0.03613227
I      -11.25000747      -6.00901388       8.57868652      -0.08195809       0.53129554      -0.01298630
I       -9.98507099       0.88356780      -9.57865612      -0.42287225       0.21382203      -0.20196694
I      -10.11007762       0.69357424      -3.41505478      -0.10176361       0.43696197      -0.06075431
I      -10.00136310       0.99989361       2.50785831       0.05562070       0.00684313      -0.09064647
I      -10.36664579       0.43750322       8.86017891      -0.16334476       0.47673879       0.28945913
I      -10.18642946       7.58549319     -10.53844115      -0.34701881      -0.51448486       0.19761389
I      -11.26335690       7.62920619      -3.05335416       0.56961709       0.54564691      -0.75978919
I       -9.66113066       7.29622195       3.22631153       0.50676255       0.21620075      -0.34952741
I       -9.95793423       7.47959708       9.03496184      -0.37282089      -0.52845791       0.24368880
I       -3.45950218     -11.85238677     -10.05812878      -0.21423673      -0.50869243       0.15278830
I       -3.98746395     -12.07160872      -3.66182271       0.12619218      -0.08486943      -0.12680598
I       -3.57893141     -12.08097056       2.78546789       0.13562400       0.26608655      -0.20839640
I       -3.02033081     -12.02523701       8.88241983      -0.15046917      -0.13792209      -0.10782086
I       -3.89245592      -5.33471386     -10.47599613       0.19287839      -0.34253639      -0.29058323
I       -3.79277912      -5.49107829      -4.73741545      -0.44858153      -0.01717397       0.31391201
I       -3.49210400      -5.47383761       1.78955825      -0.62677002      -0.16329236      -0.15736244
I       -4.34384202      -5.71233839       8.94863040       0.28468227      -0.36420863       0.16687867
I       -4.64723803       0.92552126     -10.54224259       0.54375108       0.13621423      -0.50390889
I       -3.87828125       0.96081448      -4.53595405      -0.14469230      -0.19694907       0.34934781
I       -3.94314557       0.78074540       2.95143117      -0.12426366       0.04941317      -0.53358756
I       -3.49248930       0.90076795       8.45299012       0.09049783      -0.02452257       0.00963586
I       -4.20596860       7.21978972     -10.59176728       0.01976088      -0.19072754       0.23542055
I       -3.68711832       7.11288431      -4.63836211      -0.86283684       0.25072098       0.28243878
I       -4.12080935       7.38223831       3.40552174      -0.48816111      -0.58032130      -0.63293044
I       -3.69615905       6.85108653       9.30011105      -0.20280753       0.11526291      -0.44061924
I        2.99010610     -12.51516953     -10.49543708      -0.67678067       0.62453317       0.23272963
I        1.90256719     -11.70935998      -3.94959896       0.24312968      -0.40030349       0.19297029
I        2.44924732     -11.71511228       1.75864536      -0.08085795      -0.33061320       0.13305944
I        2.01953366     -12.17595621       9.09875348      -0.21785752       0.82905942       0.26434922
I        2.42328470      -5.32906737     -11.93600552      -0.14319959      -0.04937792       0.42226212
I        3.62176859      -5.26969893      -5.13530584      -0.83315828      -0.26365046       0.36438309
I        3.31901371      -5.35405641       2.70675475      -0.77380704       0.45467146      -0.78873473
I        3.52337994      -6.10540661       8.32204985      -0.22642755       0.61673500       0.34537475
I        2.58197714       0.84527390     -10.62302716      -0.12673471      -0.03070407       0.19669578
I        1.57399748       0.72951489      -3.95284407      -0.07371574       0.00664261      -0.06993388
I        1.94353190       1.04189365       2.97010253      -0.31058874      -0.03704789      -0.38243772
I        2.61682138       0.75194894       8.45829907      -0.21895953       0.31280751      -0.14554504
I        2.41536411       6.85505502      -9.82155781      -0.05284870       0.43508916      -0.19109467
I        2.52055917       6.93113216      -3.51653567       0.16374034       1.28385758       0.44113854
I        2.03403397       7.26336430       1.52197294       0.26875364       0.41100349      -0.14890848
I        1.92508626       7.57737859       8.51046558       0.14493159      -1.24703129      -0.08409667
I        8.94504550     -11.98708055     -10.24714755       0.22165017      -0.75394939      -0.08335507
I        9.39425150     -11.66405279      -4.20124089       0.15621460       0.48924449       0.58489744
I        8.57375403     -11.74526158       2.02591051      -0.03256854      -0.05693034       0.10787715
I        8.54124594     -12.09842091       9.05307087       0.20532310      -0.51121962      -0.22485029
I        8.57760120      -5.63266844     -10.84387639       0.04322715      -0.12069974      -0.08181100
I        8.87927433      -5.13115775      -4.75255669       0.18277357      -1.08009421       0.32214106
I        8.99625967      -5.37462130       2.63082409      -0.08801402      -0.11928859      -0.10993751
I        8.95275385      -5.70754269       7.99351691       0.06126532       0.07219996       0.18099681
I       10.17404197       0.56971980      -9.42284546      -0.27160699      -0.10723390      -0.18940383
I        8.85909177       1.09862946      -4.35203139      -0.04008870      -0.36943115      -0.23942944
I        8.35689490       0.83408514       2.10621779       0.34684738       0.35355882       0.19753325
I        8.42999770       1.06099898       7.98887270       0.93037534       0.02005222       0.50799288
I        8.62929425       6.95325438     -10.14537682      -0.24741222       0.72744908      -0.14554685
I        8.16472945       7.34005617      -3.93754419       0.08002281       0.15352921      -0.29662957
I        8.41159130       7.42630140       1.40186488      -0.43901217      -0.19283522       0.27309129
I        8.53526343       7.20122518       7.55145895       0.02756260      -0.19416819       0.59558147
I      -10.19332423      -8.38599666      -7.26732241      -0.24151440      -0.24841982      -0.01360485
I      -10.28274692      -8.58594248      -1.03039074       0.30899422       0.08736552       1.35473573
I      -10.04559487      -8.04747804       5.45833432      -0.04685754      -0.05823498       0.30179178
I      -10.32223553      -9.14085266      11.81374159       0.06617039       0.18507427      -0.58604499
I      -11.50745555      -2.49877839      -6.90510892       0.22419107       0.06048671      -0.44881033
I      -10.14659276      -2.45561651      -0.85543212       0.08666477      -0.01709265       0.00413868
I      -10.12368198      -2.23231126       5.58445037      -0.27930151      -0.01811172      -0.30388532
I      -10.24319174      -3.23782653      11.96445642      -0.23883616       0.03999876      -0.08875841
I       -9.90479293       4.23338981      -6.76119767      -0.03382034       0.06033127      -0.17653914
I      -10.36432222       4.95341759      -0.54597713       0.49809796      -0.44741234       0.22080815
I      -10.22427928       3.63493095       5.84069839      -0.21809562       0.07380134       0.00589882
I      -11.01146489       3.79643873      12.38227901      -0.08793798       0.09060858      -0.21035044
I       -9.81518506      10.27570212      -7.04787839      -0.13910080       0.09024712       0.71240748
I      -10.08834087      10.55505055      -0.80451617      -0.04052792       0.00590956       0.01351528
I      -10.58791614      10.89261346       5.62474875       0.05147611      -0.20121958       0.05715783
I       -9.85681954      10.62388502      12.36033033      -0.23902391      -0.10987968      -0.50057522
I       -3.74719398      -8.66217838      -7.74566391       0.09739543      -0.19074863       1.26113563
I       -4.24366701      -8.94962742      -1.03414630       0.12119534       0.02312787      -0.22200524
I       -4.01920623      -7.99635288       5.34266935       0.28270793      -0.30128931      -0.12937528
I       -3.93131518     -10.06829178      11.77144897       0.12265660       0.25363560      -0.53739860
I       -3.84072006      -2.37347459      -7.41956187      -0.09426382       0.09265287       0.24307473
I       -4.63044586      -2.36898123      -1.14444845      -0.45208695      -0.34940003      -0.54276823
I       -3.99470791      -3.16741014       5.42209743       0.19868730       0.11670172      -0.30482033
I       -4.13781085      -2.62569887      11.44708682      -0.23036529       0.09637623       0.62693437
I       -4.36583069       3.85636370      -6.93063385      -0.67840251       0.64158306      -0.79597510
I       -4.27624841       3.27123625      -0.44584615      -0.10236867      -0.09725663      -0.89337686
I       -3.96988124       4.02940215       5.57936835      -0.25776614      -0.12056552      -0.01850773
I       -4.95279802       3.87559306      11.84741171       0.43571424      -0.13147595       0.30744978
I       -3.50147060      10.81742891      -7.38642807      -0.39249630      -0.16787124       0.49447276
I       -4.08723034       9.99815299      -1.08747014      -0.26813756       0.12615212      -0.34990178
I       -4.10994657      10.58044496       5.28360269      -0.03927947       0.14382427       0.15145626
I       -3.42731246       9.86874806      11.51311975       0.27249847      -0.00439859       0.10764976
I        2.45490185      -9.36596364      -7.14989706       0.11588643       0.08223833      -0.35519591
I        1.99124333      -7.62668920      -1.14703122       0.30481110      -0.20789411      -0.31899921
I        2.28400797      -7.96909668       5.06580832       0.04778653      -0.68704882       0.69997470
I        2.82572783      -8.97469666      11.60326274      -0.07519119      -0.03069873      -0.05000349
I        1.94768896      -2.32921077      -7.51871610       0.17294144       0.12999490       0.33313622
I        2.03778217      -3.01158933      -0.80726120       0.13927787       0.27317673      -0.66823388
I        2.10855855      -2.00945808       5.33744628      -0.06103581      -0.27600211       0.20737924
I        2.85724660      -1.84665641      11.33435824       0.05428057       0.07162712       1.10483583
I        1.74637986       3.49867597      -6.97990263       0.15252569       0.11368932      -0.34908640
I        1.95013644       3.21733562      -0.58564510      -0.19946478      -0.07986245      -1.01606240
I        2.98242556       4.32510267       5.53967193      -0.56899307      -0.37336483      -0.03504970
I        2.63264610       3.58953255      12.06269446       0.05232053       0.19120809       0.06622817
I        2.62512743      10.27874658      -7.08786770      -0.16326587      -0.21791627       0.39677819
I        0.90846521      10.57133607      -1.11856262      -0.19859146       0.00879898      -0.11601461
I        2.22926036      10.54878798       5.22447702       0.28614203       0.05939881      -0.30862463
I        2.47076534       9.92171714      12.09453920      -0.02432709      -0.04453508      -0.17313875
I        8.64251116      -9.64311644      -7.17841500       0.00568381       1.15921133      -0.35231130
I        8.57068648      -8.31252066      -0.97224521      -0.09883429       0.16713370      -0.34898984
I        8.41220009      -8.92614801       5.38518719       0.02927550      -0.13276396       0.18224559
I        8.62400963      -9.22878783      11.89939583       0.08737497       0.18264539      -0.24000605
I        9.85447189      -2.75682750      -7.41105269      -0.19755538       0.06387904      -0.21446794
I        8.63689083      -2.53109451      -1.01422567      -0.06678937       0.00068409      -0.48667177
I        9.02489402      -2.53009146       5.22637628       0.15011847       0.30270614       0.18455875
I        8.34688870      -2.11162037      11.52432698       0.01732840       0.29060918       0.00522152
I        8.95850536       4.69930342      -6.95400138      -0.15713683      -0.28837823      -0.24730421
I        8.55751589       3.62729331      -0.72190205       0.55264411      -0.01346766      -0.68964933
I        8.54287296       3.87196276       5.43657732       0.06037484       0.06613586       0.17990673
I        9.22472149       3.24266839      12.21448080      -0.00953320      -0.01843977      -0.36419585
I        7.05097789      10.34011989      -7.24798355       0.66309638      -0.32849187      -0.23783850
I        8.83273444      10.31006058      -1.34159231      -0.09014713       0.45004876      -0.15753084
I        8.73956250       9.77921572       4.93969561       0.05170992       0.31924877       0.11841659
I        9.02088646      10.34930474      12.22694266      -0.07399698      -0.33637399      -0.67254335
C       -6.57074672     -11.67853580      -7.22392314      -1.30342556       0.31255361      -0.04180551
N       -6.80998844     -12.76514557      -6.48238341       3.36410791       0.23332141       0.48240369
N       -7.43281892     -11.32916915      -8.15614848       0.56989692       1.48890364      -1.81628401
H       -5.78619527     -10.88464637      -7.02818869      -0.21700668      -1.39498578       0.03419774
H       -5.90171936     -13.23346252      -6.15582832      -1.75408139       0.68925108      -0.03719071
H       -7.60482158     -13.36628607      -6.65386339      -0.24276041      -0.33458867      -0.27929495
H       -8.20328962     -11.95231383      -8.53299186       0.91660031       0.81706962       0.41196061
H       -7.10517623     -10.49150896      -8.78058221      -1.16190661      -1.62700999       1.09710898
C       -6.95156279     -11.79775241      -1.27364863       2.24048944       2.33937057      -0.13334806
N       -7.45881662     -12.17143789      -0.11941567       3.75293963      -1.80811775      -3.41865149
N       -7.33994835     -10.69135414      -1.88692918      -1.34701949      -1.03601257       1.02481453
H       -5.86013656     -12.02347663      -1.58239990      -1.74730799      -0.86588394       0.30805056
H       -6.96455830     -12.97372039       0.19989171      -0.21755920      -0.87726539       1.48380903
H       -8.16692074     -11.71752168       0.30864768      -3.28553688       1.47604987       2.10345842
H       -8.25207151     -10.31030883      -1.63977302      -0.23681506       0.37232274      -0.00457722
H       -7.03383419     -10.46863479      -2.80304163       0.68589935       0.36140769      -1.23098197
C       -7.15866778     -11.95952051       5.12544615      -1.74760311      -0.59355049       0.32090151
N       -7.68860217     -10.78039204       5.51399600       0.97533566      -0.22679490      -1.93125274
N       -7.37685300     -13.20366674       5.66079973      -0.36420094       0.72958293      -0.11671350
H       -6.61809509     -11.85373726       4.15128027      -0.34502897      -0.71546958       0.59300395
H       -7.73772526      -9.97145139       4.76622043       0.64483005      -1.55322707       1.52534990
H       -7.91205701     -10.55948863       6.45816998      -0.61849494      -0.00410310       0.99238919
H       -8.08323432     -13.53939218       6.44410156       1.44228471       1.42982295      -1.69595257
H       -7.13963857     -14.00191804       5.01918454       0.20158712       0.89703734       0.63604926
C       -5.86241090     -13.51969106      12.30262685      -0.51178027       1.33968512      -0.05814255