40
Lattice="15.765872048013682 -0.5653713224311658 0.011927427714882947 0.13989976390188708 14.854411141456435 0.30219749539709684 0.1320503812776293 -0.16559623445056484 8.525815443976816" Properties=species:S:1:pos:R:3:forces:R:3 energy=-123.17235177348363 stress="0.002079178220174471 -0.00049078577282756 7.926238163037934e-05 -0.00049078577282756 0.0040697173029578294 9.659598109303994e-05 7.926238163037934e-05 9.659598109303994e-05 0.002593273947119811" free_energy=-123.17235177348363 pbc="T T T"
Cs      -3.06404421       9.86367226       4.18118716      -0.00002689      -0.00002875       0.00000329
Cs       0.77628627      12.42436438       8.39365402      -0.00000612      -0.00004048      -0.00002176
Cs      -3.17201972      17.61786363       0.02247415       0.00000220       0.00002287       0.00000118
Cs       0.89207006      19.69018833       4.32867805      -0.00001264      -0.00000605       0.00002080
Cs       4.81883401       9.58084650       4.18712243       0.00000687       0.00000748       0.00001299
Cs       8.65918595      12.14165852       8.39959647       0.00000071      -0.00001459      -0.00000705
Cs       4.71121567      17.33555450       0.02846191      -0.00001949      -0.00002319       0.00001717
Cs       8.77495001      19.40745764       4.33478271      -0.00001467      -0.00001670      -0.00001272
Pb      -0.37118583      22.24275886       8.71951474       0.00001085      -0.00001184       0.00001851
Pb       3.55337488      22.09891196       8.70662815      -0.00003209      -0.00000862      -0.00000688
Pb      -1.77686338      14.89966172       4.15747634       0.00001957       0.00001767      -0.00000040
Pb      -5.70140871      15.04351997       4.17042921      -0.00002037       0.00004652       0.00001793
Pb       7.51177412      21.96015792       8.72556060      -0.00000336      -0.00004045       0.00001282
Pb      11.43633264      21.81609961       8.71257286       0.00003197      -0.00000575       0.00002466
Pb       6.10607846      14.61696052       4.16344741      -0.00002125      -0.00002020       0.00000276
Pb       2.18153103      14.76089626       4.17636673       0.00004633      -0.00000226       0.00000953
I        1.42138563       8.42875155       2.27991282      -0.00000274      -0.00004120      -0.00001462
I       -3.84143356      14.02504651       1.76902357       0.00003700      -0.00001603      -0.00000975
I        1.54536094       8.94675753       6.41674177       0.00002479       0.00000163      -0.00002867
I       -3.83327385      13.34115091       6.15802010      -0.00001566       0.00000640       0.00000129
I        0.05450664      12.28182822       3.88124611       0.00004666       0.00000552       0.00003070
I       -2.34247836      10.00618910       8.69338776      -0.00001318       0.00000257       0.00000825
I        0.16207190      15.93770489       6.49546447      -0.00001998       0.00002046       0.00001867
I       -2.31012011      21.20457920       6.38157075       0.00002965       0.00000024      -0.00001530
I        0.20783023      16.38018961       2.11005519      -0.00001436      -0.00000218      -0.00002392
I       -2.48784755      20.92782964       2.24121745      -0.00003728       0.00006076      -0.00002830
I        1.57589514      19.60059976       8.35370742       0.00002098       0.00002366      -0.00001136
I       -3.72392714      17.54182296       4.52340113       0.00000458      -0.00002984       0.00001501
I        9.30440975       8.14591003       2.28592732       0.00000869       0.00002542       0.00004376
I        4.04155904      13.74263021       1.77487195       0.00001287       0.00000269       0.00001291
I        9.42833193       8.66400161       6.42272562      -0.00000244       0.00002799      -0.00001658
I        4.04962103      13.05833075       6.16385822      -0.00001260       0.00004775      -0.00006279
I        7.93743743      11.99908657       3.88729795       0.00001819       0.00000673      -0.00000190
I        5.54048607       9.72359752       8.69937525      -0.00001645      -0.00000397       0.00000354
I        8.04502339      15.65502786       6.50145261      -0.00001106      -0.00000561      -0.00000282
I        5.57285507      20.92190687       6.38763709       0.00000150      -0.00000692      -0.00000861
I        8.09080847      16.09748047       2.11601932       0.00000579      -0.00003447       0.00002400
I        5.39500073      20.64537595       2.24731964      -0.00000309       0.00002520       0.00000301
I        9.45872622      19.31788348       8.35970747      -0.00001512       0.00000712      -0.00001299
I        4.15906981      17.25913646       4.52950778      -0.00000837       0.00000046      -0.00001633
