768
Lattice="25.602687893934696 0.06456492963817112 0.03902532789253627 -0.039314378406618125 25.444273944319132 0.02289504811895965 -0.15598059894926472 -0.09929609100608251 25.393684631218054" Properties=species:S:1:pos:R:3:forces:R:3 energy=-3657.7596354525604 stress="0.001540146916279783 1.84990522030055e-05 -0.00012183866995658833 1.84990522030055e-05 0.00209906820594817 0.0009053338349830216 -0.00012183866995658833 0.0009053338349830216 0.001864898040439757" free_energy=-3657.7596354525604 pbc="T T T"
H        7.99200874      11.56858490       3.64787830       0.00002569      -0.00000469      -0.00000789
H        8.00254119       4.17080898       4.66656708      -0.00000837      -0.00000536       0.00001315
H        7.96292336       5.18278118       9.99053838      -0.00000219      -0.00001308       0.00000585
H        7.95385083      10.50692784      11.02080876      -0.00002913       0.00000841      -0.00000823
H        8.07539605      10.33890055       5.61872095      -0.00001364       0.00000397      -0.00000114
H        9.47824282       2.43433629       4.24520985      -0.00000291      -0.00001280       0.00000144
H        3.04607888      12.11495172       9.26454590       0.00000920       0.00000606       0.00000317
H        8.06537538      12.49223630       9.81717179       0.00001484      -0.00001356      -0.00000981
H        3.90565224       4.90921306       4.21290030       0.00003291       0.00000212       0.00001966
H        3.89002897      11.08896621       4.40800108      -0.00002341      -0.00001349      -0.00000602
H        3.85681342      11.24534239      10.56705803       0.00001868      -0.00000152       0.00000822
H        9.42612128      11.95725596       8.85995100       0.00000711      -0.00000273      -0.00000191
H        3.05372110       2.60774679       4.67819442      -0.00000505      -0.00000506      -0.00001985
H        3.06775013      11.56319345       2.09835322      -0.00000632      -0.00001045       0.00000486
H        3.00480630       8.94386456      11.03227929      -0.00001025       0.00001325      -0.00000690
H        3.03855906       5.17725057       8.44101873      -0.00001417      -0.00002872       0.00002215
H        9.48390482      11.16143131       1.92184348      -0.00000526      -0.00000411      -0.00000919
H        1.71218823      10.60745313       1.54641805      -0.00004046      -0.00001293      -0.00005371
H        9.45465321       4.77538882       8.26442491      -0.00000683       0.00000213       0.00000651
H        1.68300367       4.22147429       7.88913608      -0.00001552      -0.00000334      -0.00002863
C        8.74943791      10.78657068       3.76048741      -0.00001836      -0.00000509       0.00004844
C        2.35783253      10.16086825       3.41444478      -0.00000666      -0.00001368       0.00001544
C        2.31774712      10.27153995       9.62911535      -0.00000206       0.00000483       0.00000075
C        2.32866638       3.77496976       9.75717700      -0.00001824      -0.00000787      -0.00001300
N        3.16481929       4.95101925       3.50575705      -0.00001294       0.00003348      -0.00002434
N        3.14555698      10.38544380       4.43970654       0.00002033       0.00001186      -0.00000213
N        3.11598648      11.28718096       9.85990775      -0.00001318       0.00000932      -0.00002115
N        8.76304853      11.77121308       9.61158428      -0.00001494       0.00004383      -0.00001802
N        2.39874385       2.79152152       3.91900661      -0.00000420      -0.00004021       0.00002938
N        2.40641269      10.80716365       2.27253488       0.00004705       0.00000068       0.00004837
N        9.52234990       4.17564558       9.08915285       0.00002317      -0.00000793       0.00000780
N        2.37723301       4.42121905       8.61523978       0.00001719       0.00001358       0.00000897
Pb       5.72480928       0.93941588      13.14571162      -0.00000208       0.00001127      -0.00000444
Pb      24.92832557       0.89525829      13.09377858      -0.00000914       0.00000738      -0.00001711
Pb       5.75397621       7.32531591       6.80297271      -0.00000435      -0.00000794       0.00000166
Pb       5.76559343       0.95772269       6.80141853      -0.00000082       0.00000014      -0.00000907
I        8.92373125       0.63732598      13.28004282      -0.00000557      -0.00000106       0.00001369
I        2.50258658      13.87327007      12.93676624       0.00000755       0.00000513       0.00000095
I        2.56171696       0.74259591       7.02157719       0.00000363       0.00000401      -0.00000651
I        8.96260786       1.09426273       6.48632088       0.00001073       0.00000805       0.00000379
I        5.44346991      10.45794552      12.57218752      -0.00000807       0.00000526       0.00000733
I        6.00709091       4.14497869       0.90795303       0.00000473      -0.00000366       0.00000355
I        5.49226692       4.12168247       6.21807195      -0.00000566      -0.00000152      -0.00001107
I        5.95827044      10.48120293       7.26210373      -0.00000301       0.00000155       0.00000435
I        5.47686125      13.10174898       3.61441523       0.00000240      -0.00000280       0.00000819
I       25.20197463       0.47639543       3.58816683      -0.00000506       0.00001139       0.00000617
I       24.66285260       1.50463885       9.93643307       0.00000565       0.00000286      -0.00000165
I        5.95906240       1.40308717       9.95636009      -0.00001137      -0.00000173      -0.00001462
H        1.61068151       4.04833103       2.49153014      -0.00003100      -0.00000821      -0.00001599
H        1.59711361       9.38071670       3.51742710       0.00001417       0.00000247       0.00001106
H        1.56183318      10.38456051       8.84564154       0.00000187      -0.00000010       0.00000581
H        1.56795801       2.99481298       9.86019061       0.00000610      -0.00001262       0.00002931
H        3.09489100       5.77877633       2.91037736      -0.00000521      -0.00003074       0.00001085
H        3.06446338       9.78739395       5.26442824      -0.00000654       0.00000358      -0.00000537
H        8.04627097       3.95313568      11.96141061      -0.00000555       0.00000562      -0.00000630
H        3.03532050       3.40157937      11.60717174      -0.00001968       0.00000956      -0.00003979
H        9.43561804       9.38066459       5.08594579       0.00001483      -0.00000626       0.00000762
H       10.30491090       3.30843528       2.95605546       0.00000701       0.00000728      -0.00000329
H        9.40635890       2.99473749      11.42859861       0.00001051       0.00000778      -0.00001181
H        3.86085466       4.70312932      10.75068037       0.00000775       0.00000122       0.00000889
H       10.29460544       9.85678922       2.78803354      -0.00000164      -0.00000528      -0.00001272
H        9.47507973       5.62098799       2.50579516       0.00000741       0.00000087      -0.00000528
H       10.26526756       3.47069099       9.13061132      -0.00000130       0.00000855       0.00000396
H       10.25609218       9.64471162       9.31004394      -0.00001643      -0.00002056       0.00002281
H        1.69892628       2.07238604       3.71369922       0.00001367       0.00003591       0.00000170
H        8.11425475       6.15606078       3.46286369       0.00001953      -0.00002231      -0.00000545
H        1.65000165       8.40858860      10.06775866       0.00000262      -0.00001151       0.00000212
H        9.42955411       8.77052262      10.59922563       0.00000530      -0.00001670       0.00000804
C        2.36660426       3.93535101       3.27499956       0.00002776       0.00000360      -0.00001546
C        8.76549575       4.28542543       3.89017408       0.00001031       0.00000221      -0.00001488
C        8.72026586       4.40068157      10.10313066       0.00000101      -0.00000417      -0.00001195
C        8.71672461      10.62160543      10.24434580       0.00004031      -0.00005070       0.00003494
N        8.77909611      10.13848970       4.90202127      -0.00000184       0.00002257      -0.00003228
N        9.55789636       3.26583425       3.65649952      -0.00001223       0.00000146       0.00000057
N        8.74992420       3.75264295      11.24468822      -0.00000703       0.00000336       0.00002824
N        3.11639257       3.99959848      10.78242504       0.00002082      -0.00000455       0.00000794
N        9.55162158      10.56167234       2.74655847      -0.00000682      -0.00001540      -0.00000837
N        8.81191811       5.43500302       3.25736393      -0.00001078       0.00001112       0.00001161
N        2.34984522       9.12769115      10.27309024       0.00001195      -0.00000988       0.00000464
N        9.50913734       9.60205120      10.01055141      -0.00000452       0.00004821      -0.00003650
Pb      24.91751515       7.26147639      13.09532272      -0.00000344       0.00001449       0.00000607
Pb       5.71677170       7.29396636      13.15550619       0.00000940       0.00001271       0.00001370
Pb      24.96635039       0.92521924       6.74120022      -0.00000206      -0.00000090      -0.00000268
Pb      24.95748127       7.28110901       6.75105049      -0.00000994      -0.00000362      -0.00000023
I        2.51289238       7.07889503      13.37568693       0.00000676      -0.00000743      -0.00000026
I        8.91378816       7.43059995      12.84044891      -0.00000584      -0.00000328      -0.00000230
I        8.95288087       7.02316291       6.93732998       0.00001666      -0.00000400       0.00001240
I        2.55140156       7.53696380       6.58259075       0.00000137       0.00000676       0.00000921
I       24.63563379       4.09696474      13.68240621      -0.00000925      -0.00000605      -0.00000608
I       25.04295261      10.41198951      25.34069968      -0.00000830      -0.00000053      -0.00001022
I       24.66480938      10.48280166       7.33960646       0.00000580       0.00002019       0.00001321
I       25.16976035       4.12534401       6.28969126      -0.00000739       0.00000524      -0.00000577
I       11.89069788       7.85826896       3.57421740      -0.00000167       0.00000466      -0.00000911
I        5.98821961       7.78896384       3.61362215       0.00000308      -0.00000114       0.00000230
I        5.44770990       6.71585423       9.95707746      -0.00000270       0.00000866       0.00000847
I       25.15308286       6.81257892       9.94230004      -0.00000641       0.00001258      -0.00000093
H        7.91401844      11.51893685      16.34472062       0.00002569      -0.00000469      -0.00000789
H        7.92455089       4.12116093      17.36340940      -0.00000837      -0.00000536       0.00001315
H        7.88493306       5.13313313      22.68738070      -0.00000219      -0.00001308       0.00000585
H        7.87586053      10.45727979      23.71765108      -0.00002913       0.00000841      -0.00000823
H        7.99740575      10.28925250      18.31556327      -0.00001365       0.00000397      -0.00000114
H        9.40025252       2.38468824      16.94205217      -0.00000290      -0.00001280       0.00000144
H        2.96808858      12.06530367      21.96138822       0.00000920       0.00000606       0.00000318
H        7.98738508      12.44258825      22.51401411       0.00001484      -0.00001356      -0.00000981
H        3.82766194       4.85956501      16.90974262       0.00003291       0.00000212       0.00001966
H        3.81203867      11.03931816      17.10484340      -0.00002341      -0.00001349      -0.00000602
H        3.77882312      11.19569434      23.26390035       0.00001868      -0.00000152       0.00000822
H        9.34813098      11.90760791      21.55679332       0.00000712      -0.00000273      -0.00000191
H        2.97573080       2.55809874      17.37503674      -0.00000505      -0.00000505      -0.00001985
H        2.98975983      11.51354540      14.79519554      -0.00000632      -0.00001045       0.00000486
H        2.92681600       8.89421651      23.72912161      -0.00001025       0.00001325      -0.00000690
H        2.96056876       5.12760252      21.13786105      -0.00001417      -0.00002872       0.00002215
H        9.40591452      11.11178326      14.61868580      -0.00000526      -0.00000411      -0.00000919
H        1.63419793      10.55780508      14.24326037      -0.00004045      -0.00001292      -0.00005371
H        9.37666291       4.72574077      20.96126723      -0.00000683       0.00000213       0.00000651
H        1.60501337       4.17182624      20.58597840      -0.00001551      -0.00000334      -0.00002863
C        8.67144761      10.73692263      16.45732973      -0.00001836      -0.00000509       0.00004844
C        2.27984223      10.11122020      16.11128710      -0.00000666      -0.00001368       0.00001544
C        2.23975682      10.22189190      22.32595767      -0.00000206       0.00000483       0.00000075
C        2.25067608       3.72532171      22.45401932      -0.00001824      -0.00000787      -0.00001300
N        3.08682899       4.90137120      16.20259937      -0.00001294       0.00003348      -0.00002434
N        3.06756668      10.33579575      17.13654886       0.00002032       0.00001186      -0.00000213
N        3.03799618      11.23753291      22.55675007      -0.00001318       0.00000933      -0.00002115
N        8.68505823      11.72156503      22.30842660      -0.00001495       0.00004384      -0.00001802
N        2.32075355       2.74187347      16.61584893      -0.00000420      -0.00004022       0.00002938
N        2.32842239      10.75751560      14.96937720       0.00004705       0.00000068       0.00004837
N        9.44435960       4.12599753      21.78599517       0.00002316      -0.00000793       0.00000779
N        2.29924271       4.37157100      21.31208210       0.00001718       0.00001358       0.00000897
Pb       5.80279958       0.98906393       0.44886930      -0.00000208       0.00001127      -0.00000442
Pb      25.00631587       0.94490634       0.39693626      -0.00000914       0.00000737      -0.00001710
Pb       5.67598591       7.27566786      19.49981503      -0.00000435      -0.00000793       0.00000167
Pb       5.68760313       0.90807464      19.49826085      -0.00000082       0.00000015      -0.00000908
I        9.00172155       0.68697403       0.58320050      -0.00000558      -0.00000107       0.00001370
I        2.58057688      13.92291812       0.23992392       0.00000755       0.00000513       0.00000096
I        2.48372666       0.69294786      19.71841951       0.00000364       0.00000401      -0.00000652
I        8.88461756       1.04461468      19.18316320       0.00001073       0.00000806       0.00000379
I        5.36547961      10.40829747      25.26902984      -0.00000807       0.00000528       0.00000733
I        5.92910061       4.09533064      13.60479535       0.00000474      -0.00000365       0.00000355
I        5.41427662       4.07203442      18.91491427      -0.00000566      -0.00000152      -0.00001107
I        5.88028014      10.43155488      19.95894605      -0.00000301       0.00000157       0.00000435
I        5.39887095      13.05210093      16.31125755       0.00000240      -0.00000280       0.00000818
I       25.12398433       0.42674738      16.28500914      -0.00000507       0.00001139       0.00000619
I       24.58486230       1.45499080      22.63327538       0.00000564       0.00000286      -0.00000164
I        5.88107210       1.35343912      22.65320241      -0.00001137      -0.00000173      -0.00001463
H        1.53269121       3.99868298      15.18837246      -0.00003100      -0.00000821      -0.00001599
H        1.51912331       9.33106865      16.21426942       0.00001417       0.00000247       0.00001106
H        1.48384288      10.33491246      21.54248386       0.00000187      -0.00000010       0.00000581
H        1.48996771       2.94516493      22.55703293       0.00000610      -0.00001262       0.00002931
H        3.01690070       5.72912828      15.60721968      -0.00000521      -0.00003074       0.00001085
H        2.98647308       9.73774590      17.96127056      -0.00000654       0.00000358      -0.00000537
H        7.96828067       3.90348763      24.65825293      -0.00000555       0.00000563      -0.00000630
H        2.95733020       3.35193132      24.30401406      -0.00001968       0.00000956      -0.00003979
H        9.35762774       9.33101654      17.78278811       0.00001483      -0.00000626       0.00000762
H       10.22692060       3.25878723      15.65289778       0.00000701       0.00000727      -0.00000329
H        9.32836860       2.94508944      24.12544093       0.00001051       0.00000778      -0.00001181
H        3.78286436       4.65348127      23.44752269       0.00000775       0.00000122       0.00000889
H       10.21661514       9.80714117      15.48487586      -0.00000163      -0.00000528      -0.00001272
H        9.39708943       5.57133994      15.20263748       0.00000741       0.00000088      -0.00000528
H       10.18727726       3.42104294      21.82745364      -0.00000130       0.00000854       0.00000396
H       10.17810188       9.59506357      22.00688626      -0.00001644      -0.00002056       0.00002281
H        1.62093598       2.02273799      16.41054154       0.00001367       0.00003591       0.00000169
H        8.03626445       6.10641273      16.15970601       0.00001953      -0.00002231      -0.00000545
H        1.57201135       8.35894055      22.76460098       0.00000262      -0.00001151       0.00000211
H        9.35156381       8.72087457      23.29606795       0.00000530      -0.00001670       0.00000805
C        2.28861396       3.88570296      15.97184188       0.00002776       0.00000360      -0.00001546
C        8.68750545       4.23577738      16.58701640       0.00001031       0.00000221      -0.00001488
C        8.64227556       4.35103352      22.79997298       0.00000101      -0.00000417      -0.00001195
C        8.63873431      10.57195738      22.94118812       0.00004031      -0.00005070       0.00003494
N        8.70110581      10.08884165      17.59886359      -0.00000184       0.00002257      -0.00003227
N        9.47990606       3.21618620      16.35334184      -0.00001222       0.00000146       0.00000057
N        8.67193390       3.70299490      23.94153054      -0.00000703       0.00000337       0.00002824
N        3.03840227       3.94995043      23.47926736       0.00002082      -0.00000455       0.00000794
N        9.47363128      10.51202429      15.44340079      -0.00000682      -0.00001540      -0.00000837
N        8.73392781       5.38535497      15.95420625      -0.00001078       0.00001112       0.00001162
N        2.27185492       9.07804310      22.96993256       0.00001195      -0.00000988       0.00000464
N        9.43114704       9.55240315      22.70739373      -0.00000451       0.00004822      -0.00003651
Pb      24.99550545       7.31112444       0.39848040      -0.00000343       0.00001449       0.00000606
Pb       5.79476200       7.34361441       0.45866387       0.00000940       0.00001271       0.00001371
Pb      24.88836009       0.87557119      19.43804253      -0.00000206      -0.00000089      -0.00000267
Pb      24.87949097       7.23146096      19.44789280      -0.00000994      -0.00000361      -0.00000022
I        2.59088268       7.12854308       0.67884461       0.00000675      -0.00000744      -0.00000025
I        8.99177846       7.48024800       0.14360659      -0.00000583      -0.00000329      -0.00000229
I        8.87489057       6.97351486      19.63417230       0.00001666      -0.00000400       0.00001240
I        2.47341126       7.48731575      19.27943307       0.00000137       0.00000676       0.00000921
I       24.71362409       4.14661279       0.98556389      -0.00000925      -0.00000606      -0.00000608
I       25.12094291      10.46163755      12.64385736      -0.00000830      -0.00000052      -0.00001021
I       24.58681908      10.43315361      20.03644877       0.00000581       0.00002021       0.00001322
I       25.09177005       4.07569596      18.98653357      -0.00000739       0.00000524      -0.00000576
I       11.81270758       7.80862091      16.27105972      -0.00000167       0.00000466      -0.00000912
I        5.91022931       7.73931579      16.31046447       0.00000308      -0.00000114       0.00000229
I        5.36971960       6.66620618      22.65391978      -0.00000270       0.00000866       0.00000846
I       25.07509256       6.76293087      22.63914235      -0.00000641       0.00001259      -0.00000092
H        7.97235155      24.29072187       3.65932582       0.00002569      -0.00000469      -0.00000789
H        7.98288400      16.89294595       4.67801460      -0.00000837      -0.00000536       0.00001315
H        7.94326617      17.90491815      10.00198590      -0.00000219      -0.00001308       0.00000585
H        7.93419364      23.22906481      11.03225628      -0.00002913       0.00000841      -0.00000823
H        8.05573886      23.06103752       5.63016847      -0.00001365       0.00000397      -0.00000114
H        9.45858563      15.15647326       4.25665737      -0.00000290      -0.00001280       0.00000144
H        3.02642169      24.83708869       9.27599342       0.00000920       0.00000607       0.00000317
H        8.04571819      25.21437327       9.82861931       0.00001484      -0.00001356      -0.00000981
H        3.88599505      17.63135003       4.22434782       0.00003291       0.00000211       0.00001966
H        3.87037178      23.81110318       4.41944860      -0.00002341      -0.00001349      -0.00000602
H        3.83715623      23.96747936      10.57850555       0.00001868      -0.00000153       0.00000822
H        9.40646409      24.67939293       8.87139852       0.00000712      -0.00000273      -0.00000191
H        3.03406391      15.32988376       4.68964194      -0.00000505      -0.00000505      -0.00001985
H        3.04809294      24.28533042       2.10980074      -0.00000632      -0.00001045       0.00000486
H        2.98514911      21.66600153      11.04372681      -0.00001025       0.00001325      -0.00000690
H        3.01890187      17.89938754       8.45246625      -0.00001417      -0.00002872       0.00002215
H        9.46424763      23.88356828       1.93329100      -0.00000526      -0.00000411      -0.00000919
H        1.69253104      23.32959010       1.55786557      -0.00004046      -0.00001293      -0.00005371
H        9.43499602      17.49752579       8.27587243      -0.00000683       0.00000213       0.00000651
H        1.66334648      16.94361126       7.90058360      -0.00001552      -0.00000334      -0.00002863
C        8.72978072      23.50870765       3.77193493      -0.00001836      -0.00000509       0.00004843
C        2.33817534      22.88300522       3.42589230      -0.00000666      -0.00001368       0.00001544
C        2.29808993      22.99367692       9.64056287      -0.00000206       0.00000484       0.00000076
C        2.30900919      16.49710673       9.76862452      -0.00001824      -0.00000787      -0.00001300
N        3.14516210      17.67315622       3.51720457      -0.00001294       0.00003347      -0.00002433
N        3.12589979      23.10758077       4.45115406       0.00002033       0.00001186      -0.00000213
N        3.09632929      24.00931793       9.87135527      -0.00001318       0.00000932      -0.00002114
N        8.74339134      24.49335005       9.62303180      -0.00001495       0.00004383      -0.00001802
N        2.37908666      15.51365849       3.93045413      -0.00000420      -0.00004022       0.00002938
N        2.38675550      23.52930062       2.28398240       0.00004706       0.00000068       0.00004838
N        9.50269271      16.89778255       9.10060037       0.00002317      -0.00000793       0.00000779
N        2.35757582      17.14335602       8.62668730       0.00001719       0.00001358       0.00000897
Pb       5.70515209      13.66155285      13.15715914      -0.00000208       0.00001128      -0.00000443
Pb      24.90866838      13.61739526      13.10522610      -0.00000914       0.00000738      -0.00001711
Pb       5.73431902      20.04745288       6.81442023      -0.00000435      -0.00000793       0.00000167
Pb       5.74593624      13.67985966       6.81286605      -0.00000082       0.00000014      -0.00000907
I        8.90407406      13.35946295      13.29149034      -0.00000558      -0.00000106       0.00001370
I        2.52224377       1.15113310      12.92531872       0.00000755       0.00000514       0.00000095
I        2.54205977      13.46473288       7.03302471       0.00000364       0.00000401      -0.00000651
I        8.94295067      13.81639970       6.49776840       0.00001073       0.00000805       0.00000379
I        5.42381272      23.18008249      12.58363504      -0.00000807       0.00000527       0.00000733
I        5.98743372      16.86711566       0.91940055       0.00000473      -0.00000365       0.00000355
I        5.47260973      16.84381944       6.22951947      -0.00000566      -0.00000152      -0.00001107
I        5.93861325      23.20333990       7.27355125      -0.00000301       0.00000156       0.00000435
I        5.49651844       0.37961201       3.60296771       0.00000240      -0.00000280       0.00000818
I       25.18231744      13.19853240       3.59961435      -0.00000507       0.00001139       0.00000618
I       24.64319541      14.22677582       9.94788059       0.00000564       0.00000286      -0.00000164
I        5.93940521      14.12522414       9.96780761      -0.00001137      -0.00000173      -0.00001461
H        1.59102432      16.77046800       2.50297766      -0.00003100      -0.00000821      -0.00001599
H        1.57745642      22.10285367       3.52887462       0.00001417       0.00000247       0.00001106
H        1.54217599      23.10669748       8.85708906       0.00000187      -0.00000010       0.00000581
H        1.54830082      15.71694995       9.87163813       0.00000610      -0.00001262       0.00002931
H        3.07523381      18.50091330       2.92182488      -0.00000521      -0.00003074       0.00001085
H        3.04480619      22.50953092       5.27587576      -0.00000654       0.00000358      -0.00000537
H        8.02661378      16.67527265      11.97285813      -0.00000555       0.00000563      -0.00000630
H        3.01566331      16.12371634      11.61861926      -0.00001968       0.00000956      -0.00003979
H        9.41596085      22.10280156       5.09739331       0.00001483      -0.00000626       0.00000762
H       10.28525371      16.03057225       2.96750298       0.00000701       0.00000728      -0.00000329
H        9.38670171      15.71687446      11.44004613       0.00001051       0.00000778      -0.00001181
H        3.84119747      17.42526629      10.76212789       0.00000775       0.00000122       0.00000889
H       10.27494825      22.57892619       2.79948106      -0.00000163      -0.00000528      -0.00001272
H        9.45542254      18.34312496       2.51724268       0.00000741       0.00000088      -0.00000528
H       10.24561037      16.19282796       9.14205884      -0.00000130       0.00000855       0.00000396
H       10.23643499      22.36684859       9.32149146      -0.00001643      -0.00002056       0.00002281
H        1.67926909      14.79452301       3.72514674       0.00001367       0.00003591       0.00000170
H        8.09459756      18.87819775       3.47431121       0.00001953      -0.00002231      -0.00000545
H        1.63034446      21.13072557      10.07920618       0.00000263      -0.00001151       0.00000212
H        9.40989692      21.49265959      10.61067315       0.00000530      -0.00001670       0.00000804
C        2.34694707      16.65748798       3.28644708       0.00002777       0.00000360      -0.00001546
C        8.74583856      17.00756240       3.90162160       0.00001031       0.00000221      -0.00001488
C        8.70060867      17.12281854      10.11457818       0.00000101      -0.00000417      -0.00001195
C        8.69706742      23.34374240      10.25579332       0.00004030      -0.00005070       0.00003494
N        8.75943892      22.86062667       4.91346879      -0.00000184       0.00002257      -0.00003227
N        9.53823917      15.98797122       3.66794704      -0.00001223       0.00000146       0.00000057
N        8.73026701      16.47477992      11.25613574      -0.00000703       0.00000336       0.00002824
N        3.09673538      16.72173545      10.79387256       0.00002082      -0.00000455       0.00000794
N        9.53196439      23.28380931       2.75800599      -0.00000682      -0.00001540      -0.00000837
N        8.79226092      18.15713999       3.26881145      -0.00001078       0.00001112       0.00001162
N        2.33018803      21.84982812      10.28453776       0.00001195      -0.00000988       0.00000464
N        9.48948015      22.32418817      10.02199893      -0.00000452       0.00004820      -0.00003649
Pb      24.89785796      19.98361336      13.10677024      -0.00000343       0.00001450       0.00000607
Pb       5.69711451      20.01610333      13.16695371       0.00000940       0.00001273       0.00001370
Pb      24.94669320      13.64735621       6.75264774      -0.00000206      -0.00000090      -0.00000267
Pb      24.93782408      20.00324598       6.76249801      -0.00000994      -0.00000361      -0.00000022
I        2.49323519      19.80103200      13.38713445       0.00000675      -0.00000743      -0.00000026
I        8.89413097      20.15273692      12.85189643      -0.00000583      -0.00000328      -0.00000230
I        8.93322368      19.74529988       6.94877750       0.00001666      -0.00000400       0.00001240
I        2.53174437      20.25910077       6.59403827       0.00000137       0.00000676       0.00000921