768
Lattice="37.083465262720196 -0.05136617431863517 0.010744245263397761 0.030518630867313306 22.039700290257798 -0.06214822173362118 -0.005421360970351741 0.053748665392236536 19.046545887077286" Properties=species:S:1:pos:R:3:forces:R:3 energy=-3355.5418633953186 stress="-6.383499451404133e-08 1.60976968937939e-08 1.0511642708934017e-08 1.60976968937939e-08 9.778957569370542e-08 1.1693668383446618e-08 1.0511642708934017e-08 1.1693668383446618e-08 2.5748826899619514e-08" free_energy=-3355.5418633953186 pbc="T T T"
I       17.88015531       3.31150403       2.82640033      -0.00001458       0.00000816       0.00000572
I       18.50304620       7.12345127       0.43502303      -0.00000220      -0.00001064      -0.00000052
I        9.23380145       8.83340032       2.80836506      -0.00000358      -0.00000350      -0.00000053
I        8.60761255       1.62718714       0.44770005       0.00000507      -0.00000782      -0.00000458
I       16.20031711      21.93435439       0.39260882       0.00000411       0.00000084      -0.00000618
I        1.67162141      10.56597742       2.80131581      -0.00000675      -0.00000720       0.00000670
I       10.93603242       5.41179269       0.43769539      -0.00001499       0.00001370      -0.00000134
I        6.90532079       5.04878360       2.81840853       0.00000915      -0.00000652      -0.00000197
I        3.24989872       3.21437498       0.44166183       0.00001526      -0.00001378       0.00000340
I       14.59153497       7.24625634       2.81441722      -0.00001621       0.00000992      -0.00000225
I        5.32330572       8.72131849       0.42672618       0.00000976      -0.00000677       0.00000214
I       12.51801599       1.73919526       2.82931491       0.00000511       0.00000114       0.00002595
H        4.47136477       0.82984815       2.82961728      -0.00001362       0.00001610      -0.00000706
H       12.13883670       8.68182044       1.32263442      -0.00000700       0.00000597      -0.00000468
H        4.09388419       6.34047799       2.81425276       0.00001618      -0.00003203      -0.00000547
H       14.97610483       3.16294624      -0.44862509       0.00000598      -0.00001350      -0.00000387
H        5.70217319       1.78390523       3.72082888      -0.00000190       0.00000081       0.00000937
H       12.13937168       8.67679644      -0.46503314       0.00000388      -0.00000591       0.00001459
H        2.86587503       7.29275109       1.91729863      -0.00001360      -0.00000290      -0.00001842
H       14.97555517       3.16802954       1.33904185       0.00001220      -0.00000754      -0.00000071
H        5.70247710       1.77858129       1.93316129       0.00000138      -0.00000396       0.00004459
H       13.37005070       9.63072350       0.42649453      -0.00001192      -0.00001423       0.00000102
H        2.86513862       7.29765372       3.70496476       0.00000601       0.00000818      -0.00001894
H       13.74752496       4.12030587       0.44211516       0.00000743       0.00000253       0.00000556
H        6.24151023      -0.61304004       2.00567549       0.00000362       0.00000552      -0.00000155
H       10.43468739      10.18610373       0.42404154      -0.00000233       0.00001345      -0.00000105
H        1.15703128       5.79300980       2.81455692       0.00000242      -0.00000941       0.00000425
H       16.68441678       4.66755823       0.44143620      -0.00000237       0.00001657      -0.00000434
H        6.24116866      -0.60817644       3.66267075       0.00000724       0.00002013      -0.00000239
H       11.60030310      11.06882411      -0.40658375      -0.00000592       0.00000153       0.00001249
H        2.31966104       4.90710043       3.64597448       0.00000565       0.00000814       0.00000799
H       15.52127538       5.55817151       1.26708875      -0.00001162      -0.00001184       0.00000553
H        7.40671732       0.27441761       2.83180309      -0.00000547      -0.00001980       0.00001273
H       11.59979266      11.07348073       1.25041320       0.00000561      -0.00000304      -0.00001672
H        2.32032456       4.90253640       1.98898040      -0.00000513      -0.00000747      -0.00001579
H       15.52174567       5.55348675      -0.38990578      -0.00000097      -0.00000900      -0.00001819
C        5.50780506       1.18227044       2.82874658      -0.00000904       0.00002486       0.00000565
C       12.33361507       9.27828479       0.42717548      -0.00000563       0.00002060      -0.00000915
C        3.05840268       6.69570354       2.81285494      -0.00000525       0.00001644       0.00001898
C       14.78298060       3.76500039       0.44344412      -0.00003687       0.00001117      -0.00000341
Pb       0.62277472       1.50239097       0.44574592      -0.00001024      -0.00000185       0.00000367
Pb      17.21864666       8.95823280       2.81032200       0.00000663      -0.00001704      -0.00001626
Pb       7.94573003       7.00214480       0.43234527      -0.00000185       0.00000709       0.00001103
Pb       9.89563472       3.45841399       2.82375747      -0.00000213      -0.00000269      -0.00001598
N        6.41200925       0.00436952       2.83240631       0.00002549      -0.00002088      -0.00002747
N       11.42938979      10.45617239       0.42359032       0.00001754      -0.00000526      -0.00000321
N        2.15100154       5.52025988       2.81571563      -0.00000069       0.00001298       0.00001354
N       15.69046602       4.94037847       0.44037870      -0.00000257       0.00000148       0.00001392
I       17.87874286       3.32490456       7.58803837       0.00001432       0.00001815       0.00000358
I       18.50161160       7.13686026       5.19667548       0.00000076      -0.00000626       0.00000676
I        9.23244792       8.84683427       7.57003249      -0.00001255      -0.00000390      -0.00000398
I        8.60620188       1.64060905       5.20934919       0.00000822       0.00000238      -0.00001815
I       16.19892602      21.94776409       5.15423367       0.00000414       0.00000889      -0.00000892
I        1.67026000      10.57940966       7.56294529      -0.00001088      -0.00000034       0.00000466
I       10.93467568       5.42526107       5.19931689      -0.00000725      -0.00000835       0.00000558
I        6.90398392       5.06222189       7.58001861      -0.00000187      -0.00000628      -0.00000172
I        3.24855269       3.22770404       5.20328048       0.00001652      -0.00000222      -0.00000224
I       14.59013190       7.25971357       7.57604101       0.00000825       0.00000146       0.00001104
I        5.32200543       8.73486948       5.18838673       0.00000131      -0.00000162      -0.00000324
I       12.51669698       1.75267565       7.59097932       0.00000770      -0.00000753      -0.00000113
H        5.70081444       1.79724137       8.48284132      -0.00001328      -0.00000183      -0.00000899
H       12.13744451       8.69522940       6.08425391       0.00000767       0.00002224      -0.00000507
H        2.86383802       7.31118095       8.46620861       0.00000666       0.00000174       0.00001204
H       14.97401472       3.18134905       6.10045697       0.00001462       0.00001769       0.00000736
H        5.70123347       1.79223018       6.69517451      -0.00000467      -0.00000349       0.00001095
H       12.13783967       8.69020858       4.29658845       0.00001303      -0.00000722       0.00000369
H        4.09252461       6.35386006       7.57557087      -0.00001767      -0.00001018      -0.00000944
H       13.74612341       4.13372304       5.20344617       0.00000404      -0.00001644       0.00000371
H        4.47002855       0.84338222       7.59138255      -0.00000928       0.00000304       0.00000295
H       13.36864684       9.64406112       5.18802166       0.00002238      -0.00000726       0.00000136
H        2.86446207       7.30600520       6.67854526       0.00000657      -0.00000014      -0.00000598
H       14.97482035       3.17643167       4.31279002       0.00000776      -0.00000496       0.00000904
H        6.24018060      -0.59944623       6.76732940      -0.00001488      -0.00000217       0.00000005
H       10.43331662      10.19961942       5.18584418       0.00000042       0.00001314      -0.00001554
H        1.15566816       5.80640924       7.57613792       0.00000106      -0.00000517      -0.00000077
H       15.51973693       5.57153600       6.02876093       0.00000222      -0.00000918      -0.00001755
H        6.23975058      -0.59482462       8.42432528      -0.00001157      -0.00000296       0.00000586
H       11.59889384      11.08224724       4.35506075      -0.00000944       0.00001030      -0.00000617
H        2.31834861       4.92060488       8.40759858      -0.00000336      -0.00000023      -0.00000360
H       15.52050225       5.56692240       4.37176481      -0.00002136       0.00000845      -0.00000752
H        7.40536509       0.28785594       7.59365921       0.00000654       0.00000334      -0.00000077
H       11.59856302      11.08694588       6.01205630      -0.00000896       0.00000013       0.00000936
H        2.31890708       4.91582206       6.75060218      -0.00000548       0.00001296       0.00000287
H       16.68301859       4.68095329       5.20328525      -0.00001190       0.00000221      -0.00000556
C        5.50648089       1.19576909       7.59064151       0.00001740      -0.00001217      -0.00002738
C       12.33219140       9.29168460       5.18878165      -0.00001409      -0.00001360      -0.00000806
C        3.05704423       6.70909257       7.57418008       0.00001194       0.00001030       0.00001957
C       14.78157486       3.77840590       5.20488728      -0.00001402       0.00000535       0.00000763
Pb       0.62138596       1.51580786       5.20736967       0.00000770      -0.00001142       0.00000912
Pb      17.21728246       8.97166656       7.57196533       0.00000324      -0.00000528      -0.00000265
Pb       7.94437462       7.01562389       5.19397046       0.00000188       0.00000607       0.00000699
Pb       9.89428404       3.47186274       7.58535787       0.00001643      -0.00000164       0.00000578
N        6.41064900       0.01783781       7.59415728       0.00001046       0.00000816       0.00000244
N       11.42803617      10.46962531       5.18526661       0.00000337       0.00000825       0.00000702
N        2.14963704       5.53365433       7.57726878      -0.00001223       0.00000781      -0.00000381
N       15.68906904       4.95377780       5.20205167       0.00001685      -0.00000290      -0.00000798
I       17.87744463       3.33837836      12.34967327      -0.00001458       0.00000817       0.00000573
I       18.50033552       7.15032560       9.95829597      -0.00000220      -0.00001064      -0.00000051
I        9.23109077       8.86027465      12.33163800      -0.00000359      -0.00000349      -0.00000053
I        8.60490187       1.65406147       9.97097299       0.00000507      -0.00000781      -0.00000457
I       16.19760643      21.96122872       9.91588176       0.00000411       0.00000085      -0.00000617
I        1.66891073      10.59285175      12.32458875      -0.00000676      -0.00000719       0.00000670
I       10.93332174       5.43866702       9.96096833      -0.00001499       0.00001371      -0.00000133
I        6.90261011       5.07565793      12.34168147       0.00000915      -0.00000652      -0.00000197
I        3.24718804       3.24124931       9.96493477       0.00001526      -0.00001377       0.00000340
I       14.58882429       7.27313067      12.33769016      -0.00001620       0.00000992      -0.00000225
I        5.32059504       8.74819282       9.94999912       0.00000976      -0.00000677       0.00000213
I       12.51530531       1.76606959      12.35258785       0.00000511       0.00000113       0.00002595
H        4.46865409       0.85672248      12.35289022      -0.00001363       0.00001610      -0.00000706
H       12.13612602       8.70869477      10.84590736      -0.00000700       0.00000597      -0.00000468
H        4.09117351       6.36735232      12.33752570       0.00001618      -0.00003203      -0.00000547
H       14.97339415       3.18982057       9.07464785       0.00000596      -0.00001341      -0.00000374
H        5.69946251       1.81077956      13.24410182      -0.00000190       0.00000081       0.00000937
H       12.13666100       8.70367077       9.05823980       0.00000391      -0.00000582       0.00001472
H        2.86316435       7.31962542      11.44057157      -0.00001360      -0.00000289      -0.00001842
H       14.97284449       3.19490387      10.86231479       0.00001219      -0.00000754      -0.00000071
H        5.69976642       1.80545562      11.45643423       0.00000138      -0.00000396       0.00004459
H       13.36734002       9.65759783       9.94976747      -0.00001192      -0.00001423       0.00000101
H        2.86242794       7.32452805      13.22823770       0.00000601       0.00000818      -0.00001894
H       13.74481428       4.14718020       9.96538810       0.00000743       0.00000253       0.00000556
H        6.23879955      -0.58616571      11.52894843       0.00000362       0.00000552      -0.00000154
H       10.43197671      10.21297806       9.94731448      -0.00000234       0.00001345      -0.00000104
H        1.15432060       5.81988413      12.33782986       0.00000242      -0.00000941       0.00000425
H       16.68170610       4.69443256       9.96470914      -0.00000237       0.00001657      -0.00000434
H        6.23845798      -0.58130211      13.18594369       0.00000724       0.00002013      -0.00000239
H       11.59759242      11.09569844       9.11668919      -0.00000591       0.00000156       0.00001250
H        2.31695036       4.93397476      13.16924742       0.00000565       0.00000814       0.00000799
H       15.51856470       5.58504584      10.79036169      -0.00001162      -0.00001183       0.00000552
H        7.40400664       0.30129194      12.35507603      -0.00000547      -0.00001981       0.00001273
H       11.59708198      11.10035506      10.77368614       0.00000561      -0.00000303      -0.00001673
H        2.31761388       4.92941073      11.51225334      -0.00000513      -0.00000747      -0.00001578
H       15.51903499       5.58036108       9.13336716      -0.00000096      -0.00000897      -0.00001817
C        5.50509438       1.20914477      12.35201952      -0.00000904       0.00002486       0.00000565
C       12.33090439       9.30515912       9.95044842      -0.00000566       0.00002050      -0.00000926
C        3.05569200       6.72257787      12.33612788      -0.00000525       0.00001644       0.00001898
C       14.78026992       3.79187472       9.96671706      -0.00003685       0.00001108      -0.00000351
Pb       0.62006404       1.52926530       9.96901886      -0.00001025      -0.00000184       0.00000368
Pb      17.21593598       8.98510713      12.33359494       0.00000662      -0.00001703      -0.00001626
Pb       7.94301935       7.02901913       9.95561821      -0.00000185       0.00000710       0.00001104
Pb       9.89292404       3.48528832      12.34703041      -0.00000213      -0.00000269      -0.00001597
N        6.40929857       0.03124385      12.35567925       0.00002549      -0.00002089      -0.00002747
N       11.42667911      10.48304672       9.94686326       0.00001753      -0.00000529      -0.00000323
N        2.14829086       5.54713421      12.33898857      -0.00000069       0.00001298       0.00001355
N       15.68775534       4.96725280       9.96365164      -0.00000258       0.00000144       0.00001390
I       17.87603218       3.35177889      17.11131131       0.00001431       0.00001817       0.00000359
I       18.49890092       7.16373459      14.71994842       0.00000076      -0.00000625       0.00000676
I        9.22973724       8.87370860      17.09330543      -0.00001255      -0.00000390      -0.00000397
I        8.60349120       1.66748338      14.73262213       0.00000822       0.00000239      -0.00001815
I       16.19621534      21.97463842      14.67750661       0.00000414       0.00000889      -0.00000891
I        1.66754932      10.60628399      17.08621823      -0.00001088      -0.00000033       0.00000467
I       10.93196500       5.45213540      14.72258983      -0.00000725      -0.00000835       0.00000558
I        6.90127324       5.08909622      17.10329155      -0.00000187      -0.00000627      -0.00000171
I        3.24584201       3.25457837      14.72655342       0.00001652      -0.00000222      -0.00000224
I       14.58742122       7.28658790      17.09931395       0.00000826       0.00000147       0.00001105
I        5.31929475       8.76174381      14.71165967       0.00000130      -0.00000162      -0.00000324
I       12.51398630       1.77954998      17.11425226       0.00000770      -0.00000753      -0.00000114
H        5.69810376       1.82411570      18.00611426      -0.00001328      -0.00000183      -0.00000899
H       12.13473383       8.72210373      15.60752685       0.00000767       0.00002224      -0.00000507
H        2.86112734       7.33805528      17.98948155       0.00000666       0.00000174       0.00001204
H       14.97130404       3.20822338      15.62372991       0.00001462       0.00001769       0.00000736
H        5.69852279       1.81910451      16.21844745      -0.00000467      -0.00000349       0.00001095
H       12.13512899       8.71708291      13.81986139       0.00001303      -0.00000722       0.00000369
H        4.08981393       6.38073439      17.09884381      -0.00001767      -0.00001018      -0.00000944
H       13.74341273       4.16059737      14.72671911       0.00000404      -0.00001644       0.00000371
H        4.46731787       0.87025655      17.11465549      -0.00000928       0.00000304       0.00000295
H       13.36593616       9.67093545      14.71129460       0.00002238      -0.00000726       0.00000136
H        2.86175139       7.33287953      16.20181820       0.00000657      -0.00000014      -0.00000597
H       14.97210967       3.20330600      13.83606296       0.00000776      -0.00000496       0.00000904
H        6.23746992      -0.57257190      16.29060234      -0.00001488      -0.00000216       0.00000005
H       10.43060594      10.22649375      14.70911712       0.00000042       0.00001314      -0.00001553
H        1.15295748       5.83328357      17.09941086       0.00000106      -0.00000517      -0.00000077
H       15.51702625       5.59841033      15.55203387       0.00000222      -0.00000918      -0.00001755
H        6.23703990      -0.56795029      17.94759822      -0.00001157      -0.00000296       0.00000587
H       11.59618316      11.10912157      13.87833369      -0.00000945       0.00001030      -0.00000617
H        2.31563793       4.94747921      17.93087152      -0.00000336      -0.00000023      -0.00000360
H       15.51779157       5.59379673      13.89503775      -0.00002136       0.00000845      -0.00000753
H        7.40265441       0.31473027      17.11693215       0.00000654       0.00000334      -0.00000077
H       11.59585234      11.11382021      15.53532924      -0.00000896       0.00000013       0.00000936
H        2.31619640       4.94269639      16.27387512      -0.00000548       0.00001296       0.00000287
H       16.68030791       4.70782762      14.72655819      -0.00001190       0.00000221      -0.00000556
C        5.50377021       1.22264342      17.11391445       0.00001740      -0.00001217      -0.00002738
C       12.32948072       9.31855893      14.71205459      -0.00001409      -0.00001360      -0.00000806
C        3.05433355       6.73596690      17.09745302       0.00001195       0.00001030       0.00001958
C       14.77886418       3.80528023      14.72816022      -0.00001402       0.00000535       0.00000763
Pb       0.61867528       1.54268219      14.73064261       0.00000768      -0.00001140       0.00000913
Pb      17.21457178       8.99854089      17.09523827       0.00000322      -0.00000527      -0.00000265
Pb       7.94166394       7.04249822      14.71724340       0.00000188       0.00000608       0.00000700
Pb       9.89157336       3.49873707      17.10863081       0.00001643      -0.00000163       0.00000579
N        6.40793832       0.04471214      17.11743022       0.00001045       0.00000816       0.00000243
N       11.42532549      10.49649964      14.70853955       0.00000337       0.00000824       0.00000702
N        2.14692636       5.56052866      17.10054172      -0.00001222       0.00000781      -0.00000381
N       15.68635836       4.98065213      14.72532461       0.00001685      -0.00000290      -0.00000798
I       17.89541463      14.33135418       2.79532622      -0.00001458       0.00000816       0.00000572
I       18.51830552      18.14330142       0.40394892      -0.00000221      -0.00001064      -0.00000052
I        9.24906077      19.85325047       2.77729095      -0.00000358      -0.00000350      -0.00000054
I        8.62287187      12.64703729       0.41662594       0.00000506      -0.00000782      -0.00000458
I       16.18505780      10.91450425       0.42368293       0.00000412       0.00000082      -0.00000618
I        1.68688073      21.58582757       2.77024170      -0.00000675      -0.00000721       0.00000669
I       10.95129174      16.43164284       0.40662128      -0.00001500       0.00001370      -0.00000135
I        6.92058011      16.06863375       2.78733442       0.00000915      -0.00000652      -0.00000197
I        3.26515804      14.23422513       0.41058772       0.00001526      -0.00001377       0.00000340
I       14.60679429      18.26610649       2.78334311      -0.00001621       0.00000991      -0.00000225
I        5.33856504      19.74116864       0.39565207       0.00000975      -0.00000678       0.00000213
I       12.53327531      12.75904541       2.79824080       0.00000510       0.00000112       0.00002595
H        4.48662409      11.84969830       2.79854317      -0.00001363       0.00001610      -0.00000706
H       12.15409602      19.70167059       1.29156031      -0.00000700       0.00000599      -0.00000466
H        4.10914351      17.36032814       2.78317865       0.00001618      -0.00003203      -0.00000547
H       14.99136414      14.18279638      -0.47969920       0.00000601      -0.00001339      -0.00000378
H        5.71743251      12.80375538       3.68975477      -0.00000190       0.00000081       0.00000937
H       12.15463099      19.69664658      -0.49610725       0.00000396      -0.00000576       0.00001476
H        2.88113435      18.31260124       1.88622452      -0.00001360      -0.00000290      -0.00001842
H       14.99081449      14.18787969       1.30796774       0.00001219      -0.00000754      -0.00000071
H        5.71773642      12.79843144       1.90208718       0.00000138      -0.00000396       0.00004459
H       13.38531002      20.65057365       0.39542042      -0.00001192      -0.00001424       0.00000098
H        2.88039794      18.31750387       3.67389065       0.00000601       0.00000818      -0.00001894
H       13.76278428      15.14015602       0.41104105       0.00000743       0.00000254       0.00000557
H        6.25676955      10.40681011       1.97460138       0.00000362       0.00000553      -0.00000151
H       10.44994671      21.20595388       0.39296743      -0.00000235       0.00001341      -0.00000105
H        1.17229060      16.81285995       2.78348281       0.00000242      -0.00000941       0.00000425
H       16.69967610      15.68740838       0.41036209      -0.00000237       0.00001659      -0.00000436
H        6.25642798      10.41167371       3.63159664       0.00000722       0.00002010      -0.00000235
H       11.61556241      22.08867425      -0.43765786      -0.00000584       0.00000168       0.00001239
H        2.33492036      15.92695058       3.61490037       0.00000565       0.00000814       0.00000799
H       15.53653470      16.57802166       1.23601464      -0.00001163      -0.00001183       0.00000553
H        7.42197664      11.29426776       2.80072898      -0.00000547      -0.00001980       0.00001273
H       11.61505197      22.09333087       1.21933909       0.00000570      -0.00000284      -0.00001655
H        2.33558388      15.92238655       1.95790629      -0.00000513      -0.00000747      -0.00001579
H       15.53700498      16.57333689      -0.42097989      -0.00000092      -0.00000888      -0.00001827
C        5.52306438      12.20212059       2.79767247      -0.00000904       0.00002486       0.00000565
C       12.34887439      20.29813494       0.39610137      -0.00000570       0.00002044      -0.00000931
C        3.07366200      17.71555369       2.78178083      -0.00000525       0.00001644       0.00001898
C       14.79823992      14.78485054       0.41237001      -0.00003690       0.00001105      -0.00000344
Pb       0.63803404      12.52224112       0.41467181      -0.00001023      -0.00000188       0.00000367
Pb      17.23390598      19.97808295       2.77924789       0.00000663      -0.00001706      -0.00001626
Pb       7.96098935      18.02199495       0.40127116      -0.00000185       0.00000708       0.00001103
Pb       9.91089404      14.47826414       2.79268336      -0.00000213      -0.00000269      -0.00001598
N        6.42726857      11.02421967       2.80133220       0.00002550      -0.00002089      -0.00002755
N       11.44464911      21.47602254       0.39251621       0.00001737      -0.00000558      -0.00000329
N        2.16626086      16.54011003       2.78464152      -0.00000069       0.00001298       0.00001354
N       15.70572534      15.96022862       0.40930459      -0.00000261       0.00000134       0.00001395
I       17.89400218      14.34475471       7.55696426       0.00001433       0.00001815       0.00000358
I       18.51687092      18.15671041       5.16560137       0.00000076      -0.00000626       0.00000675
I        9.24770724      19.86668442       7.53895838      -0.00001256      -0.00000390      -0.00000398
I        8.62146120      12.66045920       5.17827508       0.00000822       0.00000238      -0.00001816
I       16.18366671      10.92791395       5.18530778       0.00000414       0.00000887      -0.00000892
I        1.68551932      21.59925981       7.53187118      -0.00001088      -0.00000035       0.00000466
I       10.94993500      16.44511122       5.16824278      -0.00000725      -0.00000835       0.00000558
I        6.91924324      16.08207204       7.54894450      -0.00000188      -0.00000628      -0.00000172
I        3.26381201      14.24755419       5.17220637       0.00001652      -0.00000222      -0.00000224
I       14.60539122      18.27956372       7.54496690       0.00000825       0.00000146       0.00001104
I        5.33726475      19.75471963       5.15731262       0.00000129      -0.00000163      -0.00000324
I       12.53195630      12.77252580       7.55990521       0.00000769      -0.00000755      -0.00000114
H        5.71607376      12.81709152       8.45176721      -0.00001328      -0.00000183      -0.00000899
H       12.15270383      19.71507955       6.05317980       0.00000767       0.00002224      -0.00000507
H        2.87909734      18.33103110       8.43513450       0.00000666       0.00000174       0.00001204
H       14.98927404      14.20119920       6.06938286       0.00001462       0.00001769       0.00000736
H        5.71649279      12.81208033       6.66410040      -0.00000467      -0.00000349       0.00001095
H       12.15309899      19.71005873       4.26551434       0.00001303      -0.00000722       0.00000369
H        4.10778393      17.37371021       7.54449676      -0.00001767      -0.00001018      -0.00000944
H       13.76138273      15.15357319       5.17237206       0.00000404      -0.00001644       0.00000371
H        4.48528787      11.86323237       7.56030844      -0.00000928       0.00000304       0.00000295
H       13.38390616      20.66391127       5.15694755       0.00002238      -0.00000726       0.00000136
H        2.87972139      18.32585535       6.64747115       0.00000657      -0.00000014      -0.00000598
H       14.99007967      14.19628182       4.28171591       0.00000776      -0.00000496       0.00000904
H        6.25543992      10.42040392       6.73625529      -0.00001488      -0.00000215       0.00000008
H       10.44857594      21.21946957       5.15477007       0.00000041       0.00001310      -0.00001553
H        1.17092748      16.82625939       7.54506381       0.00000106      -0.00000517      -0.00000077
H       15.53499625      16.59138615       5.99768682       0.00000222      -0.00000918      -0.00001755
H        6.25500990      10.42502553       8.39325117      -0.00001158      -0.00000299       0.00000590
H       11.61415315      22.10209738       4.32398664      -0.00000937       0.00001045      -0.00000627
H        2.33360793      15.94045503       8.37652447      -0.00000336      -0.00000024      -0.00000360
H       15.53576157      16.58677255       4.34069070      -0.00002136       0.00000845      -0.00000752
H        7.42062441      11.30770609       7.56258510       0.00000654       0.00000335      -0.00000077
H       11.61382233      22.10679602       5.98098219      -0.00000887       0.00000033       0.00000953
H        2.33416640      15.93567221       6.71952807      -0.00000548       0.00001296       0.00000287
H       16.69827791      15.70080344       5.17221114      -0.00001190       0.00000221      -0.00000556
C        5.52174021      12.21561924       7.55956740       0.00001739      -0.00001217      -0.00002738
C       12.34745072      20.31153475       5.15770754      -0.00001408      -0.00001361      -0.00000806
C        3.07230355      17.72894272       7.54310597       0.00001194       0.00001030       0.00001957
C       14.79683418      14.79825605       5.17381317      -0.00001402       0.00000535       0.00000763