96
Lattice="19.200311287500043 0.01725571743399405 -0.10224164850195556 -0.008928629717588132 10.889324021278448 0.028217937854204015 -0.0183983203568322 -0.030790081983749804 9.38054138585066" Properties=species:S:1:pos:R:3:forces:R:3 energy=-419.3587607812396 stress="0.0017440848860516116 3.935981670522289e-06 -0.00020453245640332496 3.935981670522289e-06 -0.0005012776653589469 -3.4170918205614826e-05 -0.00020453245640332496 -3.4170918205614826e-05 -0.0010310635893619133" free_energy=-419.3587607812396 pbc="T T T"
I       16.40852558       4.50914155       1.59126694      -0.00000991      -0.00001368       0.00001029
I       17.02253854       8.21155719      -0.75269180      -0.00000918      -0.00001166       0.00000162
I        7.41628778       9.94566770       1.64934528       0.00000226       0.00000244       0.00000201
I        6.81440043       2.75772346      -0.70845311       0.00001483       0.00000984       0.00000756
I       14.67197906       1.14096356      -0.77122075       0.00000066       0.00000852      -0.00001203
I       -0.44120473      11.56247595       1.71203435      -0.00000379      -0.00000902       0.00000886
I        9.16754346       6.58035850      -0.69415614      -0.00000914       0.00000436      -0.00000831
I        5.06316859       6.12303013       1.63505057      -0.00001254       0.00000783      -0.00000517
I        1.18375101       4.29325533      -0.67160969       0.00002396      -0.00000557      -0.00000782
I       13.04699997       8.41019307       1.61250245      -0.00001108      -0.00000366      -0.00000496
I        3.45010165       9.74023134      -0.68078777       0.00000381      -0.00002058       0.00000308
I       10.78060497       2.96318129       1.62173017      -0.00000255       0.00000281      -0.00001389
H        3.75992212       2.93384055       0.76039640      -0.00001898       0.00001388       0.00001969
H       11.67070524      10.77490127      -0.69709341       0.00002418       0.00000524      -0.00000080
H        2.06877141       7.37208531       1.68784153       0.00001685      -0.00000189       0.00001752
H       13.35244087       4.33715388       0.15481098      -0.00000904      -0.00000407       0.00000009
H        2.56004819       1.92863812       1.63819795       0.00000138       0.00000135      -0.00000853
H       10.47077546       9.76951773       0.18042362      -0.00000348       0.00001856      -0.00002309
H        0.87782510       8.36636860       0.78601796       0.00001824       0.00001622      -0.00000468
H       12.16199194       5.33133625      -0.74777125       0.00000420       0.00001579       0.00002031
H        3.74867642       2.91975133       2.54651713      -0.00002510      -0.00000784       0.00000213
H       10.48227127       9.78382518      -1.60569536       0.00000255      -0.00001054       0.00000475
H        0.86823949       8.37070262       2.57219786      -0.00000242      -0.00001633      -0.00001218
H       13.36296416       4.33256129      -1.63136204      -0.00000725       0.00000494      -0.00000275
H        5.51686272       1.48491728       1.65537580      -0.00004050       0.00000311      -0.00000672
H        9.85503268      12.15414985      -1.52509257       0.00000584      -0.00000798      -0.00001872
H       -0.88739539       6.92406235       1.67145801      -0.00001914       0.00000596      -0.00001538
H       13.97618102       6.70855991       0.08702639      -0.00000628       0.00000566      -0.00000496
H        4.38761104       0.56246650       0.81124846      -0.00001333      -0.00001066      -0.00002342
H        9.84299143      12.14089586       0.12973124      -0.00000049       0.00000653      -0.00000782
H        0.24414484       5.99844377       2.50871235      -0.00001281       0.00001014      -0.00001967
H       13.98702761       6.70484891      -1.56786087      -0.00002835      -0.00000202       0.00001360
H        4.37572583       0.54934531       2.46607373       0.00000553      -0.00000994       0.00001601
H        8.71386815      11.21844972      -0.71458582       0.00000647      -0.00001887       0.00001605
H        0.25426257       5.99489662       0.85382029      -0.00001870       0.00001230      -0.00000766
H       15.11816481       5.77927470      -0.72998100       0.00002011       0.00000057      -0.00001113
C        3.58284413       2.31950915       1.64752743      -0.00000723      -0.00002641      -0.00003159
C       10.64793520      10.38396851      -0.70660902       0.00000536       0.00001056       0.00001325
C        1.04538840       7.76147970       1.68157027      -0.00000582       0.00001262      -0.00001691
C       13.18536243       4.94191801      -0.74091690       0.00000960       0.00001049      -0.00001110
Pb      -1.48888443       2.65161378      -0.65724296      -0.00000638       0.00000970       0.00001567
Pb      15.71965975      10.05181799       1.59804508      -0.00000830      -0.00001436      -0.00000368
Pb       6.12557683       8.10328409      -0.70169584       0.00002570       0.00001502       0.00001294
Pb       8.10513256       4.60011149       1.64258663      -0.00000654       0.00001561       0.00001394
N        4.53255574       1.17758276       1.64445919       0.00005241       0.00002489       0.00003298
N        9.69815569      11.52583930      -0.70353940      -0.00001623      -0.00000884       0.00000000
N        0.09737612       6.61813830       1.67924590       0.00003490      -0.00001350       0.00001965
N       14.13340762       6.08523320      -0.73828071      -0.00003500       0.00002711       0.00002810
I       16.39936924       4.49376850       6.28152969       0.00000601      -0.00000983      -0.00000389
I       17.01330913       8.19612338       3.93757597      -0.00001268       0.00002751       0.00000183
I        7.40708080       9.93029324       6.33962392       0.00000360      -0.00000666       0.00001018
I        6.80524023       2.74230230       3.98181344      -0.00000229       0.00000528       0.00000257
I       14.66277110       1.12558751       3.91904251       0.00000316       0.00000527       0.00000491
I       -0.45043711      11.54707109       6.40229583      -0.00000138       0.00000428       0.00000641
I        9.15835323       6.56497715       3.99613127       0.00000933      -0.00001521      -0.00000796
I        5.05390009       6.10763596       6.32531323      -0.00000293      -0.00001470       0.00000218
I        1.17458979       4.27779164       4.01866982       0.00001110       0.00002403       0.00000193
I       13.03778759       8.39481458       6.30282205       0.00001056      -0.00000503      -0.00000975
I        3.44097467       9.72486478       4.00947672      -0.00000333       0.00000784       0.00001761
I       10.77134519       2.94779732       6.31201251       0.00000052      -0.00000573      -0.00000183
H        2.55070817       1.91282319       6.32774090      -0.00001583       0.00001695       0.00001383
H       10.46165198       9.75418032       4.87077246       0.00001353       0.00002849      -0.00002002
H        0.86875281       8.35107335       5.47628198      -0.00000647       0.00001069      -0.00003805
H       13.34322928       4.32187369       4.84531460       0.00001420      -0.00001538      -0.00000096
H        3.73872390       2.90416274       7.23659739       0.00000836      -0.00002579      -0.00001281
H       10.47314451       9.76839102       3.08465452       0.00000179      -0.00000370      -0.00001804
H        0.85869794       8.35550182       7.26245645       0.00002673      -0.00003774      -0.00003156
H       12.15268261       5.31613159       3.94294971       0.00001378      -0.00001851      -0.00000909
H        3.75074132       2.91830890       5.45047921      -0.00002139       0.00001278       0.00002081
H       11.66155922      10.75954555       3.99319889      -0.00000049      -0.00002854       0.00000330
H        2.05955796       7.35695008       6.37846270       0.00002343      -0.00001677      -0.00000060
H       13.35338812       4.31723641       3.05913772       0.00002300       0.00002135      -0.00001145
H        4.37881830       0.54704535       5.50154421      -0.00000936       0.00000185      -0.00000431
H        8.70471225      11.20303240       3.97570700       0.00001505      -0.00001135       0.00000685
H        0.24533760       5.97956424       5.54403351      -0.00002656      -0.00002535       0.00003878
H       13.97767414       6.68947346       3.12245726      -0.00002460      -0.00000290      -0.00001420
H        4.36637130       0.53392019       7.15636674      -0.00001303      -0.00000833       0.00001608
H        9.84585230      12.13870310       3.16512781      -0.00001020       0.00000099      -0.00000247
H       -0.89656536       6.90865017       6.36139299       0.00000597       0.00002446      -0.00000258
H       15.10889132       5.76385528       3.96017229       0.00000788      -0.00001863      -0.00000541
H        5.50760466       1.46972379       6.34608114       0.00000032      -0.00001543      -0.00001249
H        9.83382854      12.12555204       4.81995102       0.00000131      -0.00002235       0.00002163
H        0.23487753       5.98316126       7.19892528      -0.00000423      -0.00002601       0.00000456
H       13.96709498       6.69323765       4.77734604      -0.00000404      -0.00000453      -0.00000060
C        3.57341630       2.30391277       6.33751552       0.00006238       0.00002301       0.00000430
C       10.63879746      10.36858777       3.98370677      -0.00000115       0.00002187       0.00004454
C        1.03614043       7.74624667       6.37190819      -0.00001972       0.00001706       0.00007825
C       13.17602335       4.92662901       3.94960498      -0.00000848       0.00002131       0.00001375
Pb      -1.49810579       2.63622063       4.03303121      -0.00000418       0.00000214       0.00000205
Pb      15.71044574      10.03642830       6.28831760      -0.00001770      -0.00001326       0.00003227
Pb       6.11639861       8.08789231       3.98859497       0.00000105       0.00000895      -0.00001764
Pb       8.09586611       4.58470800       6.33283434       0.00001619       0.00002985       0.00001505
N        4.52336694       1.16218432       6.33479996       0.00001741      -0.00001813      -0.00002369
N        9.68899474      11.51043970       3.98671901      -0.00002938      -0.00000993      -0.00005139
N        0.08823395       6.60281737       6.36941419       0.00001038      -0.00001935      -0.00003961
N       14.12415190       6.06987497       3.95203559       0.00000313       0.00001857      -0.00002040
