96
Lattice="19.907839217955072 0.02796402690644832 0.2213146988813729 0.10138104808914679 11.853390673066462 -0.11588557715681608 -0.1397476164007135 0.08049322889519452 9.358649720023404" Properties=species:S:1:pos:R:3:forces:R:3 energy=-457.61400363201295 stress="0.004461632331737918 0.00017052794003311088 0.0001342661303464094 0.00017052794003311088 0.0038863399943271414 3.158024576651085e-05 0.0001342661303464094 3.158024576651085e-05 0.004206118323798321" free_energy=-457.61400363201295 pbc="T T T"
H        4.31058392       2.99224908       3.02317275      -0.00001102      -0.00001162       0.00000232
H        8.88288008      14.85930395       0.41633217      -0.00001316       0.00000102       0.00000717
H       -1.09153998       8.89538627       2.57926873       0.00001046      -0.00002479       0.00001019
H       14.37868038       8.94460725       0.58410314       0.00002948       0.00002499      -0.00000342
H        2.53014753       2.24801628       6.30991867       0.00000964       0.00003060      -0.00000204
H        8.88971441      12.90305635      -0.84016629       0.00000186      -0.00001649       0.00000934
H        0.53184647       8.19820144       8.69395725      -0.00000253      -0.00000733       0.00000498
H       14.33950295       7.01346219       1.87589391       0.00002550      -0.00002431       0.00000940
H        2.67914042       5.50003419       3.14461899      -0.00001330       0.00000054      -0.00001460
H       10.60524069      12.61211024      -0.57504956       0.00001607       0.00000163      -0.00000109
H        1.41163867       9.72236526       8.56346973       0.00002173       0.00000976      -0.00000049
H       12.63104611       6.71692521       1.57725534      -0.00000215       0.00000986       0.00000932
H        1.73077664       3.73990365       1.70913641      -0.00000480      -0.00001326      -0.00000754
H       11.75174349      14.21944451       0.97992403      -0.00000631       0.00000995       0.00000228
H        0.55422753      11.38822830       2.36834842       0.00003095       0.00002834      -0.00000709
H       11.52280588       8.29846916      -0.03527619       0.00000684       0.00001205      -0.00000065
H        2.59998874       2.20786319       1.63056316      -0.00000609       0.00000312      -0.00002043
H       10.80625774      15.61045624       1.48324139       0.00000819       0.00000237       0.00000412
H       -1.00156535      11.01793926       1.63025885      -0.00000901       0.00000709      -0.00000718
H       14.26963540       7.05375745       6.55517593       0.00000175      -0.00001563       0.00000890
C        3.45998646       3.64136783       2.78995309      -0.00001059       0.00004362       0.00000572
C        9.80239994      14.26879522       0.34053938      -0.00001247       0.00000955       0.00000095
C       -0.23952710       9.54904921       2.79345564       0.00004261       0.00003367       0.00001505
C       13.45641479       8.35737581       0.64978256      -0.00007080      -0.00003563       0.00001751
N        3.44644286       4.84853114       3.31319564       0.00000410      -0.00004554      -0.00001868
N        9.76404628      13.16669066      -0.37531088       0.00000829      -0.00000888      -0.00000821
N        0.61692011       9.13597464       8.28490098      -0.00004272       0.00003899      -0.00003475
N       13.47556717       7.26963536       1.38757041       0.00000093       0.00002671      -0.00001810
N        2.52478471       3.16065248       2.00458535       0.00001943       0.00000626       0.00002729
N       10.86140840      14.71950033       0.97300985       0.00001113      -0.00003429      -0.00000926
N       -0.21488454      10.73349912       2.22137375      -0.00004621      -0.00004108       0.00000350
N       12.41395884       8.79699721      -0.01746437       0.00002111      -0.00002340       0.00001426
Pb      -2.22652166       4.79228737       0.62918775       0.00001588       0.00000559      -0.00001011
Pb      15.51686327      13.05147152       2.93506735      -0.00000801      -0.00000283       0.00000822
Pb       5.50308756      10.72711497       0.22985561      -0.00001237       0.00000563       0.00000502
Pb       7.67716856       7.10545264       2.76927971      -0.00000995       0.00000617      -0.00000303
I       -3.25124636       6.85769026       2.91420437      -0.00000418       0.00000013      -0.00000356
I       -3.35407100      10.96581630       0.41302328      -0.00000620      -0.00000509       0.00000537
I        6.49155650      12.77763653       2.58998312      -0.00001167      -0.00000340      -0.00000349
I        6.67106993       5.06573785       0.42347342       0.00000241       0.00001483      -0.00000016
I       14.62196585       3.34094874       0.70515239      -0.00000445       0.00000382       0.00001193
I       -1.33231858      14.50502425       2.84523641      -0.00000202      -0.00000021      -0.00000336
I        8.55573798       9.24007585       0.39828723       0.00000658      -0.00000855      -0.00000920
I        4.62349678       8.59551157       2.61288098       0.00000010       0.00001078       0.00000183
I        0.64768259       6.04594246       0.89237237       0.00000531      -0.00000171      -0.00000272
I       12.63248805      11.82739851       2.65393835       0.00002435       0.00000124      -0.00001522
I        2.63471660      11.97972395      -0.04614862       0.00001186      -0.00001785      -0.00000717
I       10.55635027       5.88351745       3.07154609       0.00001413       0.00000973      -0.00000864
H        4.24067744       3.03249991       7.70255932      -0.00001222      -0.00000891      -0.00000293
H        8.81309797      14.89958136       5.09574395       0.00000606      -0.00001769       0.00000308
H       -1.16138672       8.93560093       7.25866021      -0.00000859       0.00001128      -0.00002368
H       14.30883181       8.98488748       5.26335835       0.00001103      -0.00000197       0.00000173
H        4.23823263       5.15173493       3.88746239       0.00001039       0.00000090       0.00000312
H        8.81984641      12.94327461       3.83931100      -0.00000966       0.00001416      -0.00000534
H        0.60169239       8.15791532       4.01454875      -0.00000610      -0.00001483       0.00000566
H       12.41506524       9.71848962       4.13670562       0.00000782       0.00001321      -0.00000862
H        1.66094463       3.78006513       6.38833003      -0.00000787       0.00002189       0.00001838
H       10.53537548      12.65231865       4.10438034       0.00002585      -0.00002650      -0.00000791
H        1.48149368       9.68207612       3.88411359       0.00001350       0.00001377       0.00000747
H       11.45292071       8.33882816       4.64406559      -0.00000460      -0.00001235      -0.00000398
H        2.60928709       5.54033575       7.82364166      -0.00001281      -0.00000680      -0.00000599
H       11.68196620      14.25965886       5.65925307       0.00001059       0.00000544      -0.00000864
H        0.48437366      11.42843896       7.04759986      -0.00000251       0.00001375      -0.00000541
H       12.56116520       6.75725550       6.25657044       0.00000890      -0.00000247       0.00002353
H        4.16831870       5.19207038       8.56663558      -0.00000147      -0.00000167       0.00000258
H       10.73653423      15.65071274       6.16255729       0.00000338       0.00000654       0.00000655
H       -1.07142591      11.05811668       6.30954241      -0.00000103      -0.00000670       0.00002325
H       12.48491872       9.67817262      -0.54258689       0.00001150       0.00003414      -0.00002415
C        3.39010504       3.68161221       7.46923178       0.00002667       0.00003158       0.00003042
C        9.73259931      14.30904407       5.01993825      -0.00001068      -0.00002234       0.00000397
C       -0.30937820       9.58928249       7.47280938       0.00003874      -0.00005183       0.00004173
C       13.38655359       8.39767721       5.32906576      -0.00004707      -0.00000096      -0.00000424
N        2.45493776       3.20083678       6.68386093      -0.00003656      -0.00002591      -0.00003044
N        9.69419296      13.20690927       4.30413640      -0.00001553       0.00003216       0.00000953
N        0.68676677       9.09570387       3.60553072      -0.00004167       0.00000705      -0.00003935
N       12.34409624       8.83731565       4.66183222       0.00001845      -0.00002672       0.00001529
N        3.37655620       4.88882720       7.99235372       0.00001348      -0.00001965       0.00000161
N       10.79164620      14.75974101       5.65235118      -0.00005281       0.00000622      -0.00000017
N       -0.28474478      10.77370569       6.90067266      -0.00001570       0.00000150      -0.00001355
N       13.40569505       7.30994729       6.06686896       0.00001121       0.00001410      -0.00002273
Pb      -2.29639764       4.83253476       5.30851048      -0.00000192      -0.00001439       0.00000701
Pb      15.44700133      13.09169111       7.61439685       0.00000283       0.00000605      -0.00000438
Pb       5.43320682      10.76735195       4.90916604       0.00000736      -0.00000833      -0.00001092
Pb       7.60731292       7.14572946       7.44860980      -0.00001408      -0.00000836       0.00000845
I       -3.32111065       6.89793955       7.59352342      -0.00000763      -0.00000391      -0.00000689
I       -3.42394402      11.00605874       5.09232518       0.00001163       0.00000988      -0.00000072
I        6.42164213      12.81788565       7.26929256      -0.00000047       0.00000242      -0.00000300
I        6.60124051       5.10597480       5.10282675       0.00000379       0.00000430       0.00001554
I       14.55209216       3.38119921       5.38451149       0.00002505       0.00001176      -0.00001437
I       -1.40219188      14.54527238       7.52455811       0.00000283       0.00000065      -0.00000516
I        8.48586576       9.28031295       5.07757922       0.00001128       0.00000377       0.00001326
I        4.55363717       8.63576784       7.29221182      -0.00000613       0.00000299       0.00000180
I        0.57783310       6.08616598       5.57166075       0.00001127       0.00000567       0.00001271
I       12.56264805      11.86757849       7.33324984      -0.00001243       0.00000249       0.00002264
I        2.56483125      12.01992523       4.63314697      -0.00000152      -0.00000805       0.00001000
I       10.48650329       5.92379362       7.75085421      -0.00000325      -0.00000347      -0.00000117
