96
Lattice="19.22141252748417 0.1293530947364784 0.13191335169703208 -0.178928655233786 11.170804865116223 -0.11220206290228887 -0.017847961783927183 0.0808305392143501 9.727406153734076" Properties=species:S:1:pos:R:3:forces:R:3 energy=-419.13738566268444 stress="0.0036946306903149926 -0.0001932572906310659 0.00011289782562424913 -0.0001932572906310659 0.0034534630044898394 -6.1024509942901786e-05 0.00011289782562424913 -6.1024509942901786e-05 0.004142904051442988" free_energy=-419.13738566268444 pbc="T T T"
I       17.24160211       8.00329265       3.19948540      -0.00000422       0.00000018      -0.00001161
I       17.86594995      11.83984660       0.72864971       0.00001408       0.00001202      -0.00000789
I        8.21937783      13.53532957       3.08035279      -0.00000539       0.00000969       0.00001686
I        7.66681841       6.17847886       0.71576804       0.00000436       0.00000885       0.00000297
I       15.66719064       4.39587850       0.80284492       0.00000953      -0.00001202       0.00000799
I        0.21894789      15.31793670       2.99332273       0.00000125       0.00000892       0.00000042
I        9.92639944       9.97613673       0.68785612      -0.00000113       0.00000141      -0.00000422
I        5.95979126       9.73767688       3.10829395      -0.00000353       0.00001617      -0.00000575
I        1.98937759       7.73602160       0.65378900      -0.00000017       0.00000340      -0.00000025
I       13.89679128      11.97776884       3.14239578      -0.00000013      -0.00000534       0.00000039
I        4.29010762      13.29900167       0.62793986       0.00000948       0.00000467       0.00001157
I       11.59610189       6.41487162       3.16824199      -0.00000396       0.00000148       0.00000099
H        4.65701925       6.25967373       4.02611157       0.00002043       0.00001644       0.00004106
H       12.42512018      14.45806266       0.65575423      -0.00003797      -0.00000764      -0.00000080
H        1.63143507      11.83762055       2.15541936       0.00000004       0.00000770      -0.00000862
H       14.25484296       7.87610792       1.64070647      -0.00000615       0.00001104      -0.00000394
H        4.66102836       6.24018302       2.23783141       0.00000355       0.00001151      -0.00000915
H       11.22529529      13.47354005       1.55814681       0.00000149       0.00001996      -0.00001007
H        1.63737229      11.84930490       3.94404092      -0.00000056      -0.00001016      -0.00000779
H       13.02124712       8.82337306       0.74425806      -0.00000038      -0.00000213      -0.00000770
H        3.46108778       5.25569999       3.14011248       0.00001238      -0.00000559      -0.00000233
H       11.22900759      13.45420276      -0.23013794      -0.00000203       0.00000229       0.00002167
H        2.86493196      10.89034525       3.05198919       0.00000907       0.00000547       0.00000698
H       14.24879272       7.86451052      -0.14791568      -0.00000322      -0.00001358      -0.00000147
H        5.28876080       3.86850769       2.32925309       0.00000027      -0.00001635      -0.00001141
H        9.46791049      14.90997307       0.64567470       0.00001842       0.00000353      -0.00001023
H       -0.07516361      10.33753366       3.06718528       0.00005112      -0.00002159       0.00000074
H       14.80133206      10.26752822       1.55894260      -0.00000082      -0.00001066       0.00000453
H        5.28616386       3.88658645       3.98898296       0.00000385       0.00000657       0.00000507
H       10.59991987      15.82726214      -0.19275149      -0.00000906      -0.00003068       0.00002862
H        1.09130202       9.45662168       3.89672943       0.00000609      -0.00000905       0.00000235
H       14.79477194      10.25720032      -0.10054249       0.00000825      -0.00000645       0.00001443
H        6.41830817       4.80388679       3.15076627       0.00002374      -0.00000287      -0.00001131
H       10.59764462      15.84529316       1.46698094      -0.00000019      -0.00001086      -0.00001881
H        1.08483262       9.44624545       2.23724358       0.00000008      -0.00001395      -0.00000567
H       15.96131798       9.37631667       0.72890564       0.00002514      -0.00001791       0.00000696
C        4.48508071       5.64409837       3.13822149      -0.00003317      -0.00002729      -0.00000440
C       11.40111427      14.06969698       0.65777795       0.00003259      -0.00000778       0.00000254
C        1.82855535      11.24407587       3.05297586      -0.00000150       0.00002448       0.00000598
C       14.05763900       8.46968723       0.74319051       0.00001803      -0.00001425       0.00002166
Pb      -0.67045610       6.04501372       0.65559201       0.00001059      -0.00000486      -0.00000106
Pb      16.55659399      13.66881289       3.14060456      -0.00000353      -0.00000634      -0.00000690
Pb       6.98675340      11.66350750       0.66085533       0.00000777      -0.00000714      -0.00000981
Pb       8.89941868       8.05033317       3.13528162       0.00000876      -0.00001093      -0.00000431
N        5.43397942       4.49746458       3.15270942      -0.00003285       0.00000923      -0.00001280
N       10.45225056      15.21636220       0.64353132      -0.00003079       0.00003127      -0.00002025
N        0.91936589      10.06596924       3.06366174      -0.00005910       0.00003644       0.00000560
N       14.96677796       9.64783293       0.73249935      -0.00004178       0.00003464      -0.00003315
I       17.23270549       8.04375479       8.06318294      -0.00000168      -0.00000433       0.00000366
I       17.85703719      11.88026851       5.59230524       0.00000494       0.00001523       0.00000698
I        8.21044598      13.57576186       7.94408228       0.00000463      -0.00001424       0.00000082
I        7.65788997       6.21890500       5.57946731       0.00000328      -0.00000711      -0.00001352
I       15.65825787       4.43627954       5.66660121       0.00000227       0.00000106      -0.00001201
I        0.21001290      15.35834664       7.85703478       0.00001138       0.00000110      -0.00000490
I        9.91747665      10.01654654       5.55156426       0.00000519      -0.00000101      -0.00000075
I        5.95084856       9.77810786       7.97197854       0.00000445       0.00000048      -0.00000262
I        1.98043083       7.77644886       5.51749285       0.00000213       0.00000865       0.00000654
I       13.88784658      12.01817704       8.00608377       0.00000478      -0.00000078      -0.00000932
I        4.28117051      13.33937145       5.49164905       0.00000588       0.00000391       0.00000429
I       11.58715369       6.45526374       8.03194432       0.00000677       0.00000274      -0.00000339
H        4.65205093       6.28058526       7.10149704      -0.00000550      -0.00001851       0.00004220
H       12.41612634      14.49835628       5.51947417       0.00000548       0.00000758      -0.00000647
H        2.85598175      10.93104051       7.91559736      -0.00000469      -0.00001157       0.00000796
H       14.24001277       7.90482050       4.71587204      -0.00000970       0.00000091      -0.00000095
H        3.45219268       5.29614457       8.00393484       0.00001587       0.00000584       0.00000286
H       11.21622011      13.51393014       6.42186496       0.00000745       0.00003682      -0.00001312
H        1.62231322      11.87816198       7.01909840       0.00000219       0.00000454      -0.00002174
H       14.24587088       7.91658058       6.50449309       0.00000386       0.00000767       0.00000375
H        4.64823312       6.30013085       8.88977844       0.00001115       0.00002926       0.00005347
H       11.21996350      13.49455122       4.63358447       0.00001275       0.00000608      -0.00001138
H        1.62836272      11.88985979       8.80771725      -0.00000639      -0.00000207       0.00001414
H       13.01235935       8.86374919       5.60782844      -0.00002295       0.00000083       0.00000654
H        5.27976075       3.90889314       7.19293831      -0.00000753      -0.00000585      -0.00000837
H       10.58870538      15.88570586       6.33065213      -0.00001652      -0.00001672      -0.00003736
H        1.07599897       9.48671193       7.10097967       0.00000016      -0.00000681      -0.00002004
H       14.79237214      10.30797055       6.42260124      -0.00000291      -0.00000134       0.00001734
H        5.27734634       3.92704625       8.85266869      -0.00000518       0.00000536      -0.00002375
H        9.45894746      14.95045379       5.50930202      -0.00002331      -0.00001178       0.00000221
H       -0.08405096      10.37787912       7.93096046      -0.00000075       0.00001598       0.00001228
H       14.78592406      10.29755420       4.76311694       0.00000166      -0.00000164       0.00001685
H        6.40940857       4.84429405       8.01427811       0.00000615      -0.00000218      -0.00000846
H       10.59103914      15.86767105       4.67091870      -0.00000229      -0.00001521       0.00002209
H        1.08254261       9.49711223       8.76046260       0.00000315      -0.00001914       0.00001777
H       15.95242314       9.41672725       5.59269814       0.00003824      -0.00001364      -0.00000163
C        4.47619029       5.68453076       8.00192635      -0.00004162      -0.00002516      -0.00007950
C       11.39209699      14.11005674       5.52148666       0.00000134      -0.00003084       0.00003270
C        1.81956283      11.28464679       7.91664563      -0.00000301      -0.00002000       0.00001665
C       14.04875497       8.51007600       5.60690281       0.00002921       0.00000799      -0.00002365
Pb      -0.67938084       6.08542233       5.51930057       0.00000393      -0.00000666       0.00000249
Pb      16.54766881      13.70919652       8.00430498       0.00000335       0.00000843      -0.00000768
Pb       6.97785312      11.70391324       5.52456322      -0.00000422      -0.00000243       0.00000808
Pb       8.89049149       8.09073483       7.99900185      -0.00000729       0.00001253       0.00000678
N        5.42507532       4.53788525       8.01635321      -0.00000851      -0.00000617       0.00003542
N       10.44330549      15.25678136       5.50719790       0.00002258       0.00002891       0.00001659
N        0.91050948      10.10643363       7.92739514      -0.00000107       0.00002234      -0.00003304
N       14.95788039       9.68823359       5.59620062      -0.00006779      -0.00000100       0.00000550
