320
Lattice="36.61494431704515 0.8521064442996575 0.6472952383376436 -0.4899562435077865 21.43320960287554 0.4582089290160639 -0.349194964961731 -0.4123068262220005 19.635594233834194" Properties=species:S:1:pos:R:3:forces:R:3:momenta:R:3 pbc="T T T"
Cs       7.96200000      19.85272487       1.68540953      -0.06346564      -0.07369923       0.01570696      -0.08192944      -0.90442451       4.64339951
Cs      14.35328609       7.14830918      18.77157725      -0.10957354      -0.04761723       0.00630143      -0.42536304      -1.19966924      -0.18914110
Cs       5.20694069       3.82710395       1.30684672       0.12293635      -0.08266789       0.13478242      -2.00421487       0.24736362      -0.90598890
Cs      17.10239626       2.03572522      18.59135072       0.05258847      -0.15866313       0.13242305      -0.31814715      -1.89096373      -0.98729593
Cs       7.64156205      19.73918760       6.61056253       0.08869553      -0.08653956      -0.00617489      -0.81259142      -1.91931805      -2.25577766
Cs      14.33079091       7.55227899       4.17172760       0.09698415      -0.09999715      -0.10301328      -0.41348251      -0.93362736      -1.02075318
Cs       5.51829949       3.48571291       6.38569111      -0.05784031       0.01382944      -0.21537050      -1.12564379       1.16855234      -1.19074066
Cs      17.37084972       1.92881580       4.07635609       0.13033826       0.10185806      -0.12709625       0.38525291      -0.74103558      -0.81443527
Pb       2.71419519      20.05831885      18.91963803      -0.20842819      -0.14420991       0.21538219       1.67749239       5.42791828       2.67544716
Pb      19.23775715       6.79199830       1.45782752       0.44705552      -0.25389650       0.35122614      -1.05619797       0.23390561      -0.45366265
Pb       9.94732754       4.18358766      18.75453206       0.09952148       0.13316969       0.00249735      -0.63498483       3.58811339      -0.70553781
Pb      12.51818095       1.06947350       1.19329441      -0.18261573       0.12002250       0.05812634       0.07849419       1.62774435      -0.24035867
Pb       2.87696957      20.41228632       4.25965976       0.22281141      -0.08658452      -0.32295310       3.45751227       1.45963683      -0.46443104
Pb      19.40676544       6.49117946       6.51338173       0.00344985       0.04605135      -0.16885964      -0.07978450      -0.57861107      -1.20644394
Pb      10.42748977       4.73562516       3.98227831      -0.38628800      -0.05674143      -0.10335885      -0.83453916      -1.35230072       0.81274433
Pb      12.49837590       1.36076011       5.98253494       0.06136133      -0.41387072       0.25329232      -2.50001647      -2.11653478       1.32569731
I        2.57221110       0.98948278       1.21713199      -0.23599911      -0.11197981       0.19825373      -0.28472371       0.61634761      -0.09105511
I        2.04988627       4.11677738      18.41789122      -0.09952622      -0.11278960      -0.09703199       0.46245858      -1.25218820       4.15958995
I       11.47540320       6.47551867       1.59319338       0.02465160       0.13280040      -0.19780755       0.94097637       0.82789259      -0.49678943
I       10.66714195      20.44586552      18.81424689       0.08452711       0.09533416      -0.08357698      -1.69263386       1.44653331      -1.15531234
I       17.86663106      19.03271777      19.20445609      -0.10029327       0.10234560      -0.26323018       1.75480751      -2.63050102       0.10516152
I        3.99833950       7.57718728       1.47645125       0.16960066       0.23761802      -0.01044259       1.00120064      -0.59494610       3.48490720
I       13.11316140       2.84167507      18.51513230      -0.01502373       0.04457156       0.13860065       0.40435523      -1.15494023       0.95807949
I        9.23628889       2.68358100       1.58792505       0.37480868      -0.08222925      -0.31953862       0.46106413      -0.74029507      -1.42773438
I        5.76505962       0.12994838      18.44482755       0.38430603       0.18110828       0.07041338       0.68267838      -0.37623920       1.41116961
I       16.71834625       5.08645938       1.55415005      -0.38848747      -0.05002282       0.03721369       1.76708558       0.50723806      -0.03978041
I        7.20212393       5.59677786      18.70468400       0.03857484       0.08106177      -0.06221445      -0.92736262       0.80667884       1.79834806
I       14.79338887      21.10717416       1.99954215       0.01720084       0.18797979      -0.12940801       1.38818129       0.28102662       0.61751415
I        2.40795532       0.72738593       6.18805568      -0.24328616       0.13938713       0.02422385       1.24321012       1.89863750       0.93038033
I        2.24384448       4.34448233       3.75121323      -0.13173498       0.12869571       0.12809420       0.58334706      -0.16264595       0.26796294
I       11.44022402       6.41872762       6.35408427      -0.12790827      -0.02909893       0.40176762      -0.04428180      -0.08765673       1.30205200
I       10.87668938      20.68846491       4.21718685       0.06206710       0.15189474      -0.06011117       0.92700039      -0.64090775      -0.92577300
I       18.20089700      19.26615107       4.20474585      -0.09078907       0.17771919       0.17863019       0.66709900      -1.14618028      -1.11674202
I        4.03646168       7.55604094       6.51803339       0.09963195       0.04260478      -0.28790458      -1.34366662      -1.31089040       1.42158260
I       13.41527143       3.33189574       3.67284069       0.07193485      -0.19945412       0.06374037      -0.13504667       2.25648628       1.62071637
I        9.38317565       2.56667930       6.34879466       0.03292724      -0.11271645      -0.02155139      -1.69313138      -1.45840184       1.15384298
I        6.14099649       0.43635809       3.61012202      -0.05227633       0.05161957       0.08607702      -2.53884749       2.34201361      -0.76600300
I       16.57157257       5.17449816       6.35468565      -0.05251429      -0.11180659       0.05138208       1.31378968      -1.46210461      -1.47743277
I        7.52091597       6.01751982       3.88146720       0.03972181      -0.01066704       0.02937154       0.61703986      -0.51126443       0.67261888
I       14.82325433      21.16811919       6.80633471      -0.17964476       0.15558013       0.00213749       1.11767746       1.37220856       1.62306461
Cs       7.78740251      19.64657146      11.50320665      -0.06346564      -0.07369923       0.01570696      -0.08192944      -0.90442451       4.64339951
Cs      14.52788357       7.35446260       8.95378014      -0.10957354      -0.04761723       0.00630143      -0.42536304      -1.19966924      -0.18914110
Cs       5.03234321       3.62095054      11.12464384       0.12293635      -0.08266789       0.13478242      -2.00421487       0.24736362      -0.90598890
Cs      17.27699374       2.24187864       8.77355361       0.05258847      -0.15866313       0.13242305      -0.31814715      -1.89096373      -0.98729593
Cs       7.46696456      19.53303419      16.42835965       0.08869553      -0.08653956      -0.00617489      -0.81259142      -1.91931805      -2.25577766
Cs      14.15619343       7.34612558      13.98952472       0.09698415      -0.09999715      -0.10301328      -0.41348251      -0.93362736      -1.02075318
Cs       5.34370201       3.27955950      16.20348823      -0.05784031       0.01382944      -0.21537050      -1.12564379       1.16855234      -1.19074066
Cs      17.19625224       1.72266239      13.89415321       0.13033826       0.10185806      -0.12709625       0.38525291      -0.74103558      -0.81443527
Pb       2.88879267      20.26447226       9.10184092      -0.20842819      -0.14420991       0.21538219       1.67749239       5.42791828       2.67544716
Pb      19.06315967       6.58584489      11.27562464       0.44705552      -0.25389650       0.35122614      -1.05619797       0.23390561      -0.45366265
Pb      10.12192502       4.38974108       8.93673495       0.09952148       0.13316969       0.00249735      -0.63498483       3.58811339      -0.70553781
Pb      12.34358347       0.86332009      11.01109153      -0.18261573       0.12002250       0.05812634       0.07849419       1.62774435      -0.24035867
Pb       2.70237208      20.20613291      14.07745688       0.22281141      -0.08658452      -0.32295310       3.45751227       1.45963683      -0.46443104
Pb      19.23216796       6.28502605      16.33117885       0.00344985       0.04605135      -0.16885964      -0.07978450      -0.57861107      -1.20644394
Pb      10.25289229       4.52947175      13.80007543      -0.38628800      -0.05674143      -0.10335885      -0.83453916      -1.35230072       0.81274433
Pb      12.32377842       1.15460670      15.80033206       0.06136133      -0.41387072       0.25329232      -2.50001647      -2.11653478       1.32569731
I        2.39761362       0.78332937      11.03492911      -0.23599911      -0.11197981       0.19825373      -0.28472371       0.61634761      -0.09105511
I        2.22448375       4.32293080       8.60009411      -0.09952622      -0.11278960      -0.09703199       0.46245858      -1.25218820       4.15958995
I       11.30080572       6.26936526      11.41099050       0.02465160       0.13280040      -0.19780755       0.94097637       0.82789259      -0.49678943
I       10.84173943      20.65201893       8.99644978       0.08452711       0.09533416      -0.08357698      -1.69263386       1.44653331      -1.15531234
I       18.04122854      19.23887118       9.38665898      -0.10029327       0.10234560      -0.26323018       1.75480751      -2.63050102       0.10516152
I        3.82374202       7.37103387      11.29424837       0.16960066       0.23761802      -0.01044259       1.00120064      -0.59494610       3.48490720
I       13.28775888       3.04782849       8.69733519      -0.01502373       0.04457156       0.13860065       0.40435523      -1.15494023       0.95807949
I        9.06169141       2.47742759      11.40572217       0.37480868      -0.08222925      -0.31953862       0.46106413      -0.74029507      -1.42773438
I        5.93965710       0.33610180       8.62703044       0.38430603       0.18110828       0.07041338       0.68267838      -0.37623920       1.41116961
I       16.54374877       4.88030597      11.37194717      -0.38848747      -0.05002282       0.03721369       1.76708558       0.50723806      -0.03978041
I        7.37672141       5.80293128       8.88688689       0.03857484       0.08106177      -0.06221445      -0.92736262       0.80667884       1.79834806
I       14.61879138      20.90102075      11.81733927       0.01720084       0.18797979      -0.12940801       1.38818129       0.28102662       0.61751415
I        2.23335784       0.52123252      16.00585280      -0.24328616       0.13938713       0.02422385       1.24321012       1.89863750       0.93038033
I        2.06924700       4.13832892      13.56901035      -0.13173498       0.12869571       0.12809420       0.58334706      -0.16264595       0.26796294
I       11.26562654       6.21257421      16.17188139      -0.12790827      -0.02909893       0.40176762      -0.04428180      -0.08765673       1.30205200
I       10.70209189      20.48231150      14.03498397       0.06206710       0.15189474      -0.06011117       0.92700039      -0.64090775      -0.92577300
I       18.02629951      19.05999766      14.02254297      -0.09078907       0.17771919       0.17863019       0.66709900      -1.14618028      -1.11674202
I        3.86186420       7.34988753      16.33583051       0.09963195       0.04260478      -0.28790458      -1.34366662      -1.31089040       1.42158260
I       13.24067395       3.12574233      13.49063781       0.07193485      -0.19945412       0.06374037      -0.13504667       2.25648628       1.62071637
I        9.20857817       2.36052589      16.16659178       0.03292724      -0.11271645      -0.02155139      -1.69313138      -1.45840184       1.15384298
I        5.96639901       0.23020468      13.42791914      -0.05227633       0.05161957       0.08607702      -2.53884749       2.34201361      -0.76600300
I       16.39697509       4.96834475      16.17248277      -0.05251429      -0.11180659       0.05138208       1.31378968      -1.46210461      -1.47743277
I        7.34631849       5.81136641      13.69926432       0.03972181      -0.01066704       0.02937154       0.61703986      -0.51126443       0.67261888
I       14.64865684      20.96196578      16.62413183      -0.17964476       0.15558013       0.00213749       1.11767746       1.37220856       1.62306461
Cs       8.20697812       9.13612007       1.45630506      -0.06346564      -0.07369923       0.01570696      -0.08192944      -0.90442451       4.64339951
Cs      14.10830796      17.86491399      19.00068172      -0.10957354      -0.04761723       0.00630143      -0.42536304      -1.19966924      -0.18914110
Cs       4.96196257      14.54370875       1.53595118       0.12293635      -0.08266789       0.13478242      -2.00421487       0.24736362      -0.90598890
Cs      16.85741813      12.75233003      18.82045519       0.05258847      -0.15866313       0.13242305      -0.31814715      -1.89096373      -0.98729593
Cs       7.88654017       9.02258280       6.38145806       0.08869553      -0.08653956      -0.00617489      -0.81259142      -1.91931805      -2.25577766
Cs      14.08581279      18.26888379       4.40083206       0.09698415      -0.09999715      -0.10301328      -0.41348251      -0.93362736      -1.02075318
Cs       5.27332137      14.20231771       6.61479557      -0.05784031       0.01382944      -0.21537050      -1.12564379       1.16855234      -1.19074066
Cs      17.12587160      12.64542060       4.30546055       0.13033826       0.10185806      -0.12709625       0.38525291      -0.74103558      -0.81443527
Pb       2.95917331       9.34171405      18.69053357      -0.20842819      -0.14420991       0.21538219       1.67749239       5.42791828       2.67544716
Pb      18.99277903      17.50860310       1.68693198       0.44705552      -0.25389650       0.35122614      -1.05619797       0.23390561      -0.45366265
Pb       9.70234941      14.90019247      18.98363653       0.09952148       0.13316969       0.00249735      -0.63498483       3.58811339      -0.70553781
Pb      12.27320283      11.78607830       1.42239887      -0.18261573       0.12002250       0.05812634       0.07849419       1.62774435      -0.24035867
Pb       3.12194769       9.69568152       4.03055529       0.22281141      -0.08658452      -0.32295310       3.45751227       1.45963683      -0.46443104
Pb      19.16178732      17.20778426       6.74248619       0.00344985       0.04605135      -0.16885964      -0.07978450      -0.57861107      -1.20644394
Pb      10.18251165      15.45222996       4.21138277      -0.38628800      -0.05674143      -0.10335885      -0.83453916      -1.35230072       0.81274433
Pb      12.25339778      12.07736491       6.21163940       0.06136133      -0.41387072       0.25329232      -2.50001647      -2.11653478       1.32569731
I        2.32723298      11.70608758       1.44623645      -0.23599911      -0.11197981       0.19825373      -0.28472371       0.61634761      -0.09105511
I        1.80490814      14.83338219      18.64699569      -0.09952622      -0.11278960      -0.09703199       0.46245858      -1.25218820       4.15958995
I       11.23042508      17.19212347       1.82229784       0.02465160       0.13280040      -0.19780755       0.94097637       0.82789259      -0.49678943
I       10.91212007       9.72926072      18.58514243       0.08452711       0.09533416      -0.08357698      -1.69263386       1.44653331      -1.15531234
I       18.11160918       8.31611297      18.97535163      -0.10029327       0.10234560      -0.26323018       1.75480751      -2.63050102       0.10516152
I        3.75336138      18.29379208       1.70555571       0.16960066       0.23761802      -0.01044259       1.00120064      -0.59494610       3.48490720
I       12.86818327      13.55827988      18.74423677      -0.01502373       0.04457156       0.13860065       0.40435523      -1.15494023       0.95807949
I        8.99131077      13.40018580       1.81702951       0.37480868      -0.08222925      -0.31953862       0.46106413      -0.74029507      -1.42773438
I        5.52008149      10.84655319      18.67393202       0.38430603       0.18110828       0.07041338       0.68267838      -0.37623920       1.41116961
I       16.47336813      15.80306418       1.78325451      -0.38848747      -0.05002282       0.03721369       1.76708558       0.50723806      -0.03978041
I        6.95714580      16.31338267      18.93378847       0.03857484       0.08106177      -0.06221445      -0.92736262       0.80667884       1.79834806
I       15.03836699      10.39056936       1.77043768       0.01720084       0.18797979      -0.12940801       1.38818129       0.28102662       0.61751415
I        2.16297720      11.44399073       6.41716014      -0.24328616       0.13938713       0.02422385       1.24321012       1.89863750       0.93038033
I        1.99886636      15.06108713       3.98031769      -0.13173498       0.12869571       0.12809420       0.58334706      -0.16264595       0.26796294
I       11.19524590      17.13533242       6.58318873      -0.12790827      -0.02909893       0.40176762      -0.04428180      -0.08765673       1.30205200
I       11.12166750       9.97186011       3.98808238       0.06206710       0.15189474      -0.06011117       0.92700039      -0.64090775      -0.92577300
I       18.44587512       8.54954627       3.97564138      -0.09078907       0.17771919       0.17863019       0.66709900      -1.14618028      -1.11674202
I        3.79148356      18.27264574       6.74713785       0.09963195       0.04260478      -0.28790458      -1.34366662      -1.31089040       1.42158260
I       13.17029331      14.04850054       3.90194515       0.07193485      -0.19945412       0.06374037      -0.13504667       2.25648628       1.62071637
I        9.13819753      13.28328410       6.57789912       0.03292724      -0.11271645      -0.02155139      -1.69313138      -1.45840184       1.15384298
I        5.89601837      11.15296289       3.83922648      -0.05227633       0.05161957       0.08607702      -2.53884749       2.34201361      -0.76600300
I       16.32659445      15.89110296       6.58379011      -0.05251429      -0.11180659       0.05138208       1.31378968      -1.46210461      -1.47743277
I        7.27593785      16.73412462       4.11057166       0.03972181      -0.01066704       0.02937154       0.61703986      -0.51126443       0.67261888
I       15.06823245      10.45151439       6.57723024      -0.17964476       0.15558013       0.00213749       1.11767746       1.37220856       1.62306461
Cs       8.03238064       8.92996666      11.27410218      -0.06346564      -0.07369923       0.01570696      -0.08192944      -0.90442451       4.64339951
Cs      14.28290545      18.07106740       9.18288460      -0.10957354      -0.04761723       0.00630143      -0.42536304      -1.19966924      -0.18914110
Cs       4.78736509      14.33755534      11.35374830       0.12293635      -0.08266789       0.13478242      -2.00421487       0.24736362      -0.90598890
Cs      17.03201562      12.95848344       9.00265807       0.05258847      -0.15866313       0.13242305      -0.31814715      -1.89096373      -0.98729593
Cs       7.71194269       8.81642939      16.19925518       0.08869553      -0.08653956      -0.00617489      -0.81259142      -1.91931805      -2.25577766
Cs      13.91121531      18.06273038      14.21862918       0.09698415      -0.09999715      -0.10301328      -0.41348251      -0.93362736      -1.02075318
Cs       5.09872389      13.99616430      16.43259269      -0.05784031       0.01382944      -0.21537050      -1.12564379       1.16855234      -1.19074066
Cs      16.95127412      12.43926719      14.12325767       0.13033826       0.10185806      -0.12709625       0.38525291      -0.74103558      -0.81443527
Pb       3.13377080       9.54786746       8.87273645      -0.20842819      -0.14420991       0.21538219       1.67749239       5.42791828       2.67544716
Pb      18.81818155      17.30244969      11.50472910       0.44705552      -0.25389650       0.35122614      -1.05619797       0.23390561      -0.45366265
Pb       9.87694690      15.10634588       9.16583941       0.09952148       0.13316969       0.00249735      -0.63498483       3.58811339      -0.70553781
Pb      12.09860535      11.57992489      11.24019599      -0.18261573       0.12002250       0.05812634       0.07849419       1.62774435      -0.24035867
Pb       2.94735021       9.48952811      13.84835241       0.22281141      -0.08658452      -0.32295310       3.45751227       1.45963683      -0.46443104
Pb      18.98718984      17.00163085      16.56028331       0.00344985       0.04605135      -0.16885964      -0.07978450      -0.57861107      -1.20644394
Pb      10.00791417      15.24607655      14.02917989      -0.38628800      -0.05674143      -0.10335885      -0.83453916      -1.35230072       0.81274433
Pb      12.07880030      11.87121150      16.02943652       0.06136133      -0.41387072       0.25329232      -2.50001647      -2.11653478       1.32569731
I        2.15263550      11.49993417      11.26403357      -0.23599911      -0.11197981       0.19825373      -0.28472371       0.61634761      -0.09105511
I        1.97950563      15.03953560       8.82919857      -0.09952622      -0.11278960      -0.09703199       0.46245858      -1.25218820       4.15958995
I       11.05582760      16.98597006      11.64009496       0.02465160       0.13280040      -0.19780755       0.94097637       0.82789259      -0.49678943
I       11.08671756       9.93541413       8.76734531       0.08452711       0.09533416      -0.08357698      -1.69263386       1.44653331      -1.15531234
I       18.28620667       8.52226638       9.15755451      -0.10029327       0.10234560      -0.26323018       1.75480751      -2.63050102       0.10516152
I        3.57876390      18.08763867      11.52335283       0.16960066       0.23761802      -0.01044259       1.00120064      -0.59494610       3.48490720
I       13.04278076      13.76443329       8.92643965      -0.01502373       0.04457156       0.13860065       0.40435523      -1.15494023       0.95807949
I        8.81671329      13.19403239      11.63482663       0.37480868      -0.08222925      -0.31953862       0.46106413      -0.74029507      -1.42773438
I        5.69467898      11.05270660       8.85613490       0.38430603       0.18110828       0.07041338       0.68267838      -0.37623920       1.41116961
I       16.29877065      15.59691077      11.60105163      -0.38848747      -0.05002282       0.03721369       1.76708558       0.50723806      -0.03978041
I        7.13174329      16.51953608       9.11599135       0.03857484       0.08106177      -0.06221445      -0.92736262       0.80667884       1.79834806
I       14.86376951      10.18441595      11.58823480       0.01720084       0.18797979      -0.12940801       1.38818129       0.28102662       0.61751415
I        1.98837972      11.23783732      16.23495726      -0.24328616       0.13938713       0.02422385       1.24321012       1.89863750       0.93038033
I        1.82426888      14.85493372      13.79811481      -0.13173498       0.12869571       0.12809420       0.58334706      -0.16264595       0.26796294
I       11.02064842      16.92917901      16.40098585      -0.12790827      -0.02909893       0.40176762      -0.04428180      -0.08765673       1.30205200
I       10.94707002       9.76570670      13.80587950       0.06206710       0.15189474      -0.06011117       0.92700039      -0.64090775      -0.92577300
I       18.27127764       8.34339286      13.79343850      -0.09078907       0.17771919       0.17863019       0.66709900      -1.14618028      -1.11674202
I        3.61688608      18.06649233      16.56493497       0.09963195       0.04260478      -0.28790458      -1.34366662      -1.31089040       1.42158260
I       12.99569583      13.84234713      13.71974227       0.07193485      -0.19945412       0.06374037      -0.13504667       2.25648628       1.62071637
I        8.96360005      13.07713069      16.39569624       0.03292724      -0.11271645      -0.02155139      -1.69313138      -1.45840184       1.15384298
I        5.72142089      10.94680948      13.65702360      -0.05227633       0.05161957       0.08607702      -2.53884749       2.34201361      -0.76600300
I       16.15199697      15.68494955      16.40158723      -0.05251429      -0.11180659       0.05138208       1.31378968      -1.46210461      -1.47743277
I        7.10134037      16.52797121      13.92836878       0.03972181      -0.01066704       0.02937154       0.61703986      -0.51126443       0.67261888
I       14.89363497      10.24536098      16.39502736      -0.17964476       0.15558013       0.00213749       1.11767746       1.37220856       1.62306461
Cs      26.26947216      20.27877810       2.00905715      -0.06346564      -0.07369923       0.01570696      -0.08192944      -0.90442451       4.64339951
Cs      32.66075824       7.57436241      19.09522487      -0.10957354      -0.04761723       0.00630143      -0.42536304      -1.19966924      -0.18914110
Cs      23.51441285       4.25315717       1.63049434       0.12293635      -0.08266789       0.13478242      -2.00421487       0.24736362      -0.90598890
Cs      35.40986841       2.46177845      18.91499834       0.05258847      -0.15866313       0.13242305      -0.31814715      -1.89096373      -0.98729593
Cs      25.94903421      20.16524083       6.93421015       0.08869553      -0.08653956      -0.00617489      -0.81259142      -1.91931805      -2.25577766
Cs      32.63826307       7.97833221       4.49537522       0.09698415      -0.09999715      -0.10301328      -0.41348251      -0.93362736      -1.02075318
Cs      23.82577165       3.91176613       6.70933873      -0.05784031       0.01382944      -0.21537050      -1.12564379       1.16855234      -1.19074066
Cs      35.67832188       2.35486902       4.40000371       0.13033826       0.10185806      -0.12709625       0.38525291      -0.74103558      -0.81443527
Pb      21.02166735      20.48437207      19.24328565      -0.20842819      -0.14420991       0.21538219       1.67749239       5.42791828       2.67544716
Pb       0.93028499       6.36594508       1.13417990       0.44705552      -0.25389650       0.35122614      -1.05619797       0.23390561      -0.45366265
Pb      28.25479969       4.60964089      19.07817968       0.09952148       0.13316969       0.00249735      -0.63498483       3.58811339      -0.70553781
Pb      30.82565311       1.49552672       1.51694203      -0.18261573       0.12002250       0.05812634       0.07849419       1.62774435      -0.24035867
Pb      21.18444173      20.83833955       4.58330738       0.22281141      -0.08658452      -0.32295310       3.45751227       1.45963683      -0.46443104
Pb       1.09929328       6.06512624       6.18973411       0.00344985       0.04605135      -0.16885964      -0.07978450      -0.57861107      -1.20644394
Pb      28.73496193       5.16167838       4.30592593      -0.38628800      -0.05674143      -0.10335885      -0.83453916      -1.35230072       0.81274433
Pb      30.80584806       1.78681333       6.30618256       0.06136133      -0.41387072       0.25329232      -2.50001647      -2.11653478       1.32569731
I       20.87968326       1.41553600       1.54077961      -0.23599911      -0.11197981       0.19825373      -0.28472371       0.61634761      -0.09105511
I       20.35735842       4.54283061      18.74153884      -0.09952622      -0.11278960      -0.09703199       0.46245858      -1.25218820       4.15958995
I       29.78287536       6.90157189       1.91684100       0.02465160       0.13280040      -0.19780755       0.94097637       0.82789259      -0.49678943
I       28.97461411      20.87191874      19.13789451       0.08452711       0.09533416      -0.08357698      -1.69263386       1.44653331      -1.15531234
I       -0.44084110      18.60666454      18.88080847      -0.10029327       0.10234560      -0.26323018       1.75480751      -2.63050102       0.10516152
I       22.30581166       8.00324050       1.80009887       0.16960066       0.23761802      -0.01044259       1.00120064      -0.59494610       3.48490720
I       31.42063355       3.26772830      18.83877992      -0.01502373       0.04457156       0.13860065       0.40435523      -1.15494023       0.95807949
I       27.54376105       3.10963422       1.91157267       0.37480868      -0.08222925      -0.31953862       0.46106413      -0.74029507      -1.42773438
I       24.07253177       0.55600161      18.76847517       0.38430603       0.18110828       0.07041338       0.68267838      -0.37623920       1.41116961
I       35.02581841       5.51251260       1.87779767      -0.38848747      -0.05002282       0.03721369       1.76708558       0.50723806      -0.03978041
I       25.50959608       6.02283109      19.02833162       0.03857484       0.08106177      -0.06221445      -0.92736262       0.80667884       1.79834806
I       33.10086103      21.53322739       2.32318977       0.01720084       0.18797979      -0.12940801       1.38818129       0.28102662       0.61751415
I       20.71542748       1.15343915       6.51170330      -0.24328616       0.13938713       0.02422385       1.24321012       1.89863750       0.93038033
I       20.55131664       4.77053555       4.07486085      -0.13173498       0.12869571       0.12809420       0.58334706      -0.16264595       0.26796294