320
Lattice="25.356093371687486 -0.1065490082268892 -0.19187677835240669 0.07755788227136919 25.376386568457004 0.27590338859444424 0.1691801122122475 -0.29781874292918886 25.404906270035514" Properties=species:S:1:pos:R:3:forces:R:3:momenta:R:3 energy=-976.7758800165221 stress="0.0 0.0 0.0 0.0 0.0 0.0 0.0 0.0 0.0" pbc="T T T"
Cs      13.83119228       8.72260254       5.62910705       0.03064913      -0.09416872       0.02061693      -0.24451810      -2.48228629      -2.23846202
Cs       7.12545719       2.45731826       5.33054116       0.10373553       0.00198432       0.02254377       1.73338916      -1.51252129       0.53879188
Cs       6.20256639       2.77234981      11.77524507       0.06227480       0.15632383       0.04655556       1.54791174       0.51408195      -0.69550672
Cs      13.42151135       9.21729791      12.10750611      -0.11805878      -0.07534440       0.06902003      -3.15487123      -0.73528184       0.30659750
Cs      12.89410195       2.88177393      11.98375294       0.06635534      -0.04052902      -0.00557330      -2.04819261       2.05767577       1.21519368
Cs       6.85064333       9.97140508      11.95674131      -0.06662048      -0.09964681       0.05966727       0.44302321       1.83528465      -3.36111798
Cs       7.30011355       9.06134811       5.61010376      -0.05587337      -0.15320858       0.04970517      -0.19006188      -0.00527526      -0.33457747
Cs      13.62176497       2.34623798       5.53085562       0.03121497      -0.10802656       0.04316041      -1.44240683      -0.05060301      -1.69436792
Pb       3.87731278      25.00119969       9.08077454       0.12971630      -0.08582990       0.17608916      -1.30413380      -0.10506325       0.53455555
Pb      10.40881836       5.87478578       8.84603083      -0.34586580      -0.13058597      -0.01939400      -0.04883155       1.84143823       1.19928489
Pb       4.12901719       5.86626060       8.76570579      -0.19171114       0.14317869       0.19058497       0.84406709       1.33243455      -0.81240091
Pb      10.20570995      24.87209875       8.79951686      -0.03543055       0.11494475      -0.08024190       0.91916719      -0.66040379      -0.20945001
Pb       3.71574182      25.06505447       2.64577219       0.25440098      -0.08742466      -0.20124825      -0.46449644      -1.25271834      -0.27386068
Pb      10.21035996       6.09900029       2.50858454      -0.23408522      -0.36683483      -0.15665818      -2.57190875       1.10928467       1.21611259
Pb       3.76444166       6.01067835       2.38422012       0.11898049       0.07521219       0.17194701      -0.60360870      -0.93912613      -0.32342609
Pb      10.24295596      24.94845028       2.56886361      -0.25417495       0.14019593      -0.05067458      -2.19327308       0.72590361      -0.78555557
I        3.11138837       2.76344852       9.33629333       0.01990769      -0.13646633      -0.00017484       2.56787429       4.61961410      -2.11005603
I        9.81642071       9.08179210       9.44228574      -0.05327318      -0.11667800      -0.00164139      -2.22380706       1.83765175      -0.36429486
I       17.23668275       9.19624624       8.12736927      -0.02737278      -0.43178820       0.03143187       0.26967924      -0.45330625       2.33537239
I       10.76885962       2.80446158       8.16016905      -0.02396468      -0.23079551       0.01109169       0.52562754      -0.30963218      -0.31822360
I       13.38827456       6.22246596       9.28255471       0.07659489       0.11212036       0.04861295      -0.77323294       0.17926373       1.44859798
I        7.25505800      13.09722963       9.06387579      -0.14044687      -0.01968259       0.11130050      -2.62013839      -0.14235954      -1.13941117
I        6.97884511       5.15233905       8.31011227       0.35617279       0.07230530      -0.00293698       1.39757576       0.49783069       0.61192458
I       13.27491795      24.30014752       8.56500758       0.13025966       0.08682525      -0.04171490      -1.58772194       0.21837179      -1.37026669
I       17.24419669       9.19251234       2.82647523      -0.07277537      -0.28242719       0.02805189      -0.59629117      -0.29788308      -0.26022094
I       10.93587884       2.67859611       2.92552011      -0.23500304       0.21046710      -0.09456972       1.36060460      -0.12006673      -0.93713093
I        3.19645863       2.84728637      14.50928231       0.06890771      -0.04417467       0.01335409      -1.11713936      -0.30721595       1.92685638
I        9.69320296       8.99287403      14.49800603       0.08240082      -0.13173727       0.08078116      -0.44743229       0.00439772      -2.78062674
I        7.05070461       5.34022091      15.78041450      -0.16571071      -0.01671730      -0.07507998       1.42867558      -1.38073530      -1.86585222
I       13.49301292      24.46157637      15.46464422      -0.21606404      -0.15238578       0.10717017      -0.44560388      -1.70812495      -1.31242009
I       13.40481423       6.44680724       2.10729299       0.11001561       0.03802702       0.02001490       0.01805258      -0.64302564       0.01721581
I        7.14327210      13.03762669       2.17256859       0.07780803       0.01739103      -0.11260683      -2.69756944       2.28380006      -0.63388002
I        3.51226944      11.77681743      11.96252788      -0.02159103       0.07754037       0.27284602      -0.74643751      -0.06498683       0.65542303
I        9.73367954       5.05138209      12.02043093      -0.05245578      -0.01761911      -0.17130791       1.84066041       1.24357240       0.19659221
I       17.05205417      -0.16703532       5.44833078      -0.04039522       0.20654946       0.13949765      -0.81040115       1.31100892       0.77376924
I       10.62628865       6.48176766       5.77159453      -0.03538276       0.07042977      -0.14585989      -1.85156188      -0.36826562       2.38751645
I        3.64872723       5.35860613       5.63234633      -0.12824973       0.04391104      -0.04893721      -0.55756246      -2.16633883      -1.41118392
I       10.05027268      11.72669787       5.57393710       0.01048305       0.03854339       0.12231029      -0.72301561       0.50885779       0.12080998
I       17.17362266       6.11246602      11.93937066      -0.05312718       0.08841599      -0.11263570      -0.61040626      -0.03350126      -0.79634175
I       10.35268775      -0.14012243      11.81458518       0.01945077       0.05429223      -0.12051620      -2.23878207       0.34282789      -0.45904582
Cs      14.10522829       8.55474543      18.35106939      -0.16112923      -0.05905050      -0.07332004       0.97645270      -0.27735141      -0.06629808
Cs       7.54581337       2.49948343      18.45294716       0.07643689      -0.04475839       0.01964217      -0.83363087      -0.36147405       0.45574184
Cs       6.54030103       2.58087627      24.67138925       0.05668724       0.22195653      -0.09299017       1.22134470      -0.32901973       0.16786223
Cs      12.95353697       8.95398055      24.89720317      -0.02376978      -0.07244113      -0.09876505       0.18664863       1.52430436       1.09074746
Cs      12.98244298       2.95405011      24.75564430      -0.01925200       0.06027154      -0.01848785       3.16485232       1.98858091       1.09485425
Cs       6.94622729       9.32392895      24.84894714       0.06041923      -0.05238682      -0.03416697       0.13197387      -1.01379756      -0.27444752
Cs       7.34509918       8.22659441      18.59606252      -0.13754235       0.00823230      -0.10710270      -1.07924723      -1.31731581       2.55636371
Cs      13.54335793       2.12424040      17.96221267      -0.04577914      -0.06296225       0.08902961      -0.55645013      -1.06769962      -0.60973720
Pb       3.95457565      24.86785095      21.69925724       0.09441130       0.10328917      -0.26611086       0.90279747      -3.10526741      -1.99981027
Pb      10.45699026       5.79078357      21.30276178      -0.39336688      -0.28064320       0.37761522      -0.95588581      -1.64288140       1.86900816
Pb       3.90036029       5.95659853      21.55991533       0.18726672      -0.27751032       0.03101637      -0.40262954      -0.38205720      -1.06731283
Pb      10.46875304      24.70433334      21.64812113      -0.37375837       0.07395252       0.12893656      -1.13825920       2.11183435       1.94260109
Pb       3.95255451      25.00728077      15.40799403      -0.10158025       0.01417033       0.10131308      -0.11366697       1.62111648       5.15301881
Pb      10.21095404       5.74226324      14.96087786      -0.21599811       0.25752684      -0.02281287       1.03853626      -2.02302238       0.98439553
Pb       3.95940226       5.91656315      15.16189778       0.02320893       0.35703581      -0.24755019       2.55066395       0.26869722       0.33722408
Pb      10.17227715      24.87380615      15.19282592       0.15489510      -0.07710499       0.14075414      -1.71914420       0.83826299      -1.10587315
I        3.48559321       2.65808716      21.82294132      -0.08670873       0.15644668       0.06258447      -0.95220104       0.52204449      -1.87492394
I        9.75655690       8.69279390      21.89969712      -0.00424842       0.38850342      -0.01957792      -0.25418849       0.99830210       0.73081393
I       17.03775999       8.71251184      21.14329803       0.00148665       0.32318349      -0.01132345      -0.03684343      -0.57713941       1.09669110
I       10.69105988       2.38858542      20.91306065       0.17390987       0.14960110       0.02219539      -0.03015743       0.44249449      -0.46256619
I       13.51336597       6.43582272      21.82404756      -0.14257073      -0.05326990       0.07322776       0.76784054      -0.71971989      -1.57972603
I        7.16336914      12.32020044      22.16655485       0.01679710       0.20216483       0.11388866       0.84705014      -0.96461070       0.50405072
I        7.06275405       5.13415140      21.23112177       0.09892264       0.11506260       0.00812135      -0.62697146       1.38816662      -1.39305240
I       13.48786208      23.81525981      21.62266215       0.25588917       0.06458053      -0.14610032       0.16557089       0.68872364      -0.33386977
I       16.98401740       8.95592178      15.48295589       0.00352037      -0.03818505       0.02442101       0.16970505       0.10894814       1.84966883
I       10.43226264       2.63666696      15.65369686       0.09672190      -0.25247536      -0.07947321      -0.88973294       0.53952720      -0.62227156
I        3.32634113       2.80984114       2.11813967      -0.07887224       0.22273986      -0.08847756       1.40689645      -3.29890926       2.92135270
I        9.59972671       9.17502306       2.17036852       0.03448610      -0.06869473      -0.02630224       0.98018759      -0.26697558       1.11109265
I        7.02352872       5.65327868       3.00408630       0.05489438      -0.00359007      -0.06211168       1.10495039       0.39428288       1.50649173
I       13.39578996      24.62728075       3.21608895      -0.10267012      -0.08390668      -0.07994509       0.41795798       1.48958456       0.00778851
I       13.43780747       5.93541224      14.78045959      -0.09557154       0.17172891      -0.10877108       0.60941776      -0.28291062      -0.60360662
I        7.03410177      13.06959761      14.83779294       0.08460613      -0.06326972      -0.06346257      -2.32371377      -1.15372521       1.22966873
I        3.61927947      11.33245028      24.75964150       0.03259175       0.11581151       0.00054477      -0.21325588       0.78769080      -0.38456080
I        9.70053180       5.50046411      24.69721810       0.17698838      -0.07650768       0.11161126      -1.54682680       3.20277637       0.58329962
I       16.71496389      -0.06727819      18.18079009       0.00963229      -0.03471909       0.21334815       0.06049502       1.70664536       0.12454798
I       10.41187173       5.90906899      18.28165190       0.30696650       0.23100664      -0.04034862      -0.38892932       0.16744972       0.54292077
I        3.47158440       5.80754568      18.34761406      -0.02315341      -0.06580039       0.02492302       1.11007102      -1.26806718      -0.07579188
I        9.07087684      11.78317281      18.24866504       0.16559963      -0.03636143       0.25057792       0.99119310      -0.21609021       0.42512949
I       17.13834339       6.04719393      24.60192142       0.02952825       0.01821784       0.26272486      -1.35872655       0.03321908      -0.21123878
I       10.54700135      -0.05246709      24.57698187       0.12331056      -0.12278438      -0.01614471      -0.75660472      -3.01224123       0.07189475
Cs      13.45792599      21.69392624       5.65976080       0.10859554      -0.07324615       0.07187401      -0.14913757       1.32819357       0.09919813
Cs       8.03673723      15.08626736       5.69998460      -0.10170589       0.06284157       0.02678450       2.53756887      -0.49970730      -1.44853156
Cs       6.29472081      15.71713201      12.30503804       0.04811496       0.12265152      -0.16583784       0.61798537       0.56973795       2.02013581
Cs      13.08868397      22.35528687      11.88434546      -0.07096524      -0.12785221       0.05722199      -1.67187151       0.35808627       0.96981328
Cs      13.07110678      15.46725765      11.96400264      -0.01944634       0.14969040       0.00802970      -1.19187973      -0.94329778      -0.58954241
Cs       7.01086618      22.12945221      12.16514767      -0.12317689       0.02733897      -0.08210701      -0.68488446       0.02485981       0.24627922
Cs       7.12867337      21.06145817       5.64928684       0.05708867       0.01360512      -0.06564113      -2.62310054       0.60653370       1.04769422
Cs      13.82564394      14.25751003       6.01100178      -0.04345868       0.17666484      -0.09573070      -1.48582970      -0.35141841       1.36621321
Pb       3.88674448      12.37611206       8.82095413      -0.17762566      -0.01793422       0.04683973       0.20886932       0.17266028       1.37527218
Pb      10.47479461      18.61490940       8.75454435      -0.00643093      -0.15851597       0.08876431      -2.80069423       0.56571702       1.22644487
Pb       3.99392458      18.69379256       8.98178956       0.06130757      -0.05704396      -0.07037811       0.53537619      -2.27265557      -0.58040682
Pb      10.12901175      12.08879339       8.92675452       0.21674447       0.21605399      -0.22085833      -0.75030281      -3.07402345       1.85544295
Pb       3.81170504      12.46012112       2.39740271       0.05449577      -0.07734195       0.21667096       2.87092098       0.70700530       1.12494290
Pb      10.13388184      18.59899571       2.38393325       0.01658036      -0.12738467      -0.07614205       0.91235946       1.26380539      -2.13601890
Pb       3.65644804      18.69282182       2.61902941       0.32737001       0.00570896       0.13266961       1.89713201      -3.75477862       2.78342550
Pb      10.27905330      12.42725790       2.38772794      -0.09306848       0.10101346       0.10935636       0.82427091       3.80022749       1.89645861
I        3.10256012      15.51072027       9.46462705       0.20485157       0.00197332      -0.11760879       0.48141205       0.10143358      -0.70372931
I        9.71076765      21.72959111       9.34873850      -0.00152981       0.07175096      -0.04230758      -0.11593678      -0.49964727      -0.74041622
I       17.08999274      21.68795406       8.47877516       0.08151182       0.19399840      -0.07863028       0.40775916      -0.64048631      -1.69990609
I       10.88537362      15.32772842       8.32972955      -0.00111020       0.16157658       0.08277423       1.43657273       1.25965835      -1.84521675
I       13.54278195      19.37964437       9.47013435      -0.24810637      -0.09930709       0.01117008       2.05456635      -0.25699695       0.01942486
I        6.96149054       0.22242441       8.97547703      -0.12814650      -0.04924350       0.02033613       1.05565941      -2.14392566       0.00914104
I        7.09018025      18.16814884       8.39060713       0.16153182      -0.07188256       0.02007952       1.05425837      -0.52203809      -0.24509674
I       13.57103182      11.62227334       8.11299779      -0.07634853      -0.03255594       0.13478025       1.22603531      -0.29921654      -1.24968944
I       17.01716407      21.83455618       3.20546620      -0.01253288      -0.20853453      -0.08651481      -0.75396834      -0.54438930      -2.38975974
I       11.15267714      15.41310801       3.10712081      -0.06731564      -0.05308975      -0.05000538      -0.85551504      -0.56517773       0.15051284
I        3.70287765      15.58823459      14.70462167      -0.17309309       0.01927296       0.03274810       0.53605425       1.11059268      -0.60494297
I        9.54865581      21.57887069      14.79876975       0.11772582       0.11469650       0.08474644      -1.30304501       0.94024433       0.81167444
I        7.08749575      18.11839170      16.00616253       0.20908146       0.00825771      -0.07053544       1.77221305       2.77100037      -1.05616577
I       13.31526545      11.71234230      15.82923462       0.20531349      -0.06663240       0.01047027      -0.07589363      -1.18248847      -1.08220787
I       13.25241772      18.73994567       1.80463180       0.15167945       0.29164299      -0.11947150      -0.57648983      -1.99691178       0.91285496
I        6.89107037       0.12245604       1.71257555       0.09786269      -0.07667598       0.16599828      -0.25716869      -3.07339080       0.69768753
I        3.64365368      24.22993812      12.27237274      -0.00668330       0.05055179      -0.28869293       0.48612227      -0.78986121       0.91331472
I        9.81718228      17.99784543      12.03454712       0.00805255      -0.03071409      -0.01788045      -1.48743914       0.33466476      -1.74477295
I       17.36521473      12.60355018       5.63348770      -0.00483381       0.04807980      -0.19233811       0.93066854       0.42992915       0.27847356
I       10.70830804      19.18839562       5.54642979      -0.17185993      -0.04314706       0.21150539       0.52605906      -0.82829120      -0.76898451
I        3.51620918      18.32559657       5.68310516      -0.14213564       0.04007989       0.26887335       1.18877477      -0.23178993       1.04346049
I        9.59322557      24.42673451       5.62609882      -0.05238302      -0.03480825       0.23851678       0.97483715       1.16179694      -0.04319704
I       17.17468348      18.95087622      12.01295697      -0.00158943      -0.00759215      -0.06762942       0.00593662      -0.53327932      -0.67361333
I       10.85100725      12.36478687      11.95590575      -0.00458037       0.01602971       0.04555129       0.54201460      -0.48619844       0.11552981
Cs      14.01218783      21.31066363      18.45910746       0.14522989       0.07658173      -0.08342241      -1.58154387      -0.25473263       1.91896417
Cs       7.03767308      15.05269328      18.49302634       0.15163174       0.00045897      -0.10048795       1.14353612      -0.54309446      -0.81502580
Cs       6.68523758      15.73204003      24.71264618      -0.03809860      -0.07725168      -0.00403133      -0.41537090       1.40692486      -1.42409727
Cs      13.26341951      21.97825631      24.62998739      -0.14534642      -0.15144456       0.08177541      -0.14397071       3.77921695      -1.05308908
Cs      13.20466843      15.58403323      24.66553483       0.11062572       0.03115779      -0.00651420      -1.10205607      -1.70812420       1.33051887
Cs       7.08833968      21.99198650      24.68326529      -0.21736561       0.07149844       0.01054296      -0.50788822       2.12180292       0.18749499
Cs       7.72590442      21.69690031      18.36033259      -0.07735520      -0.15728687       0.11812899      -0.59952744       2.35742947      -1.40969260
Cs      13.85596576      14.91702145      18.71474485       0.05300129       0.01667900      -0.15267381       0.28748587       2.08680416       0.81695999
Pb       4.02906776      12.16453325      21.68033351      -0.04387872       0.18628970       0.06283283      -1.49034116      -4.35856379      -2.22053709
Pb      10.49626684      18.39979383      21.36223831      -0.17099273       0.05586059       0.22532862       0.03517961       0.31388981      -1.67830956
Pb       4.03330513      18.57700046      21.76987796       0.08430111      -0.14921884      -0.28119991      -3.05465932      -2.70316239      -1.57015543
Pb      10.31250412      12.04145940      21.38148979       0.03236336      -0.14674583      -0.04502721       0.66694345       2.73114411       1.55087964
Pb       3.88070086      12.48217149      15.29826395      -0.12249299      -0.49526647      -0.21349626      -0.60655324       0.71280655       1.11014212
Pb      10.26158238      18.48655006      15.18820502      -0.08918301      -0.16578030      -0.03786211       1.43480969      -0.75918480       0.39342263
Pb       3.91843717      18.74105124      15.55652974       0.01172622      -0.01303615      -0.03222059       1.32278271      -1.71077363      -0.69326977
Pb      10.11540458      12.23022873      15.17194206       0.05842438      -0.22313696       0.09964144      -0.21062172      -2.18680805      -0.67163605
I        3.45786172      15.40099073      22.15585912       0.03740065      -0.15405197       0.08946081       2.35463835      -0.95608925       1.34369083
I        9.80575733      21.49324499      22.07907961       0.02364847      -0.06342111      -0.04532409       3.06838850       1.79677930      -1.49111000
I       17.38627811      21.63974278      21.25211197       0.09294992      -0.04999153      -0.10937544      -0.59014694       1.23209966      -0.69418057
I       10.84683285      15.14974423      20.90139337      -0.06265103      -0.06591039       0.07623004       2.12019398      -0.35639073      -2.29607346
I       13.64827746      18.95735672      22.06458136      -0.04811840      -0.02171612      -0.09976790      -0.73208469       0.94659344       1.02517066
I        7.03948744      -0.07213975      21.86725775       0.21541468      -0.09625605      -0.09926684      -1.82710235      -0.90765582       0.78313143
I        7.26198060      17.76361894      20.91660320      -0.06152278       0.23173214       0.18799410      -0.58155105       0.21777627      -0.56085601
I       13.39083082      11.43832081      20.76344902       0.01185760       0.03719820       0.04569903       2.65418750       0.04138385       0.54090399
I       17.31247576      21.76369649      15.72833052      -0.05668187      -0.25181820      -0.03553823       0.01872796       0.26632328      -0.52658135
I       10.99859034      15.13657099      15.61268503      -0.04315183       0.54178379       0.08909939       0.14456888      -0.91337493      -1.14750434
I        2.93822780      15.60472653       2.11119425       0.11880195      -0.08810863      -0.03588746      -0.15417753       1.91842282      -0.52250273
I        9.73148961      21.68508785       1.76214900       0.06619176       0.16252786       0.12685842       3.36720299      -1.79206158      -0.39019353
I        6.95272047      17.69920481       2.70760949      -0.18816254       0.14194398       0.02413796      -2.24491494      -0.79487583       2.15358998
I       13.48356609      11.46540002       3.08050775       0.00286235       0.08936649      -0.03245486       1.03773095       1.24550091       0.03475312
I       13.40189529      19.36476145      14.69265664      -0.07613385      -0.01243336      -0.03075496      -0.13914782      -1.48329756       1.21886203
I        7.02354315       0.11479015      14.56519297      -0.00169355      -0.02374293       0.03133903       2.17291032      -2.03016766      -0.61323670
I        3.56668034      24.38010676      24.70156694      -0.03228207      -0.06396817       0.26248154       0.21253383      -2.35412439      -0.23769484
I       10.02792845      17.78824348      24.62153077      -0.05632726      -0.03738950      -0.01497058       1.41432436       0.42981731      -0.07715829
I       17.07723734      12.45219884      18.53704632      -0.02532129      -0.04686954      -0.27992734      -0.19916225      -2.42571861       2.07445331
I       11.01236513      19.18582073      18.39925160      -0.09376913      -0.06735415      -0.19814532      -0.24185728       0.41854011       0.48861190
I        3.21070620      17.81730789      18.58030314       0.05723488       0.11871082      -0.06498473       0.96826150      -0.95781294      -0.56411464
I       10.10941803      24.48498830      18.50035188      -0.03009586       0.03546365      -0.13856868      -0.05402414      -0.10536691      -0.66028261
I       17.26266466      18.87885910      24.64286682       0.02011943      -0.03645946       0.38490331      -0.20040864      -0.18403889       0.57751111
I       11.16602184      12.25300575      24.68485317      -0.11432133       0.04282732      -0.25659145       1.61506005      -1.50232302       0.55716235
Cs       1.57641765       8.99385539       5.39390954       0.00324475      -0.04704849       0.19037402      -1.23195355       0.69610271       0.41504621
Cs      20.16352675       2.46505398       5.66213691       0.01318073      -0.06192105      -0.03050414       2.37386079      -0.36951225      -0.42892800
Cs      19.44597425       2.99582211      11.48438878      -0.00621668      -0.09312647       0.17038738      -0.72117245      -0.83115538       3.83856072
Cs      -0.07070697       9.17060336      11.89139181       0.19133862       0.19169379       0.00868088       2.90483084       0.22979602      -0.23052622
Cs       0.13123469       3.03077729      12.06183701       0.10871599       0.13184308      -0.06833132      -0.97835323      -1.31341227       2.33295994
Cs      19.42023582       9.39923109      11.76077577      -0.01620211       0.01902906      -0.01551790      -0.26314509      -0.52010005       1.00852075
Cs      20.25482672       9.01916361       5.31540480      -0.06199337       0.03409725       0.08865021      -0.42532567       1.07017305       1.53748977
Cs       0.92666813       2.29779099       5.70259156       0.02660138       0.01995580       0.10333284      -1.22403139       0.92816940       2.25174266
Pb      16.63897043      24.94838069       8.81375567      -0.26699566      -0.12535885       0.31709861      -0.08162547      -0.53144884      -1.69923007
Pb      23.02038022       5.98514376       8.67643942       0.23482155       0.08735987       0.08376129      -0.28823744      -0.25809872       0.49078334
Pb      16.73966681       5.89057125       8.61858633      -0.15246789      -0.03583205       0.29164081       1.03111584       1.59462782       2.56167435
Pb      22.95634552      24.88779299       8.92790558       0.01159750       0.00228177       0.21349624       1.42453122      -2.17339519      -0.02895087
Pb      16.48675531      24.85603166       2.62280502       0.03758376       0.03560787      -0.09520254       2.79352525       0.15346475       3.00363228
Pb      22.93868825       5.71447219       2.59513657       0.05122786       0.15251901      -0.33537534       2.02566602       0.65396312       0.67402678
Pb      16.57931729       5.94894658       2.48291247       0.08143760      -0.18514218      -0.30795552       1.72827484      -2.33631481       1.18604750
Pb      22.68193092      25.05193978       2.36788022       0.14898425      -0.03234546      -0.15150598       4.69881108       2.43851540       1.08818424
I       16.02184585       2.68861732       9.51496828       0.08429804       0.13645607      -0.21786401       1.37964650       1.48664297      -0.93272328
I       22.66135337       9.11163610       9.43014384      -0.14428873       0.06562086      -0.08810933       0.41675500       0.94886074       1.27586528
I        4.34372596       9.10251846       8.50341547       0.15913431       0.10056040      -0.13354271       1.07728147       0.36360698       1.88359868
I       23.22054822       2.65523980       8.36659414       0.03866647       0.27650654      -0.16083722       1.27761208       0.64734826       1.71141020
I        0.78136798       6.58753419       9.07213164      -0.18965316      -0.15380315       0.04150807      -0.74836805      -0.89556536       1.08783898
I       20.00606680      12.92878855       9.16102471      -0.43411364      -0.01951184       0.03218084       0.12551152       0.55157337       2.73580174
I       19.67692590       5.65681170       8.07513701       0.15950588      -0.09585279      -0.02700288      -1.38649662      -1.26182683      -0.12015636
I        0.62107004      24.55558662       8.86373071       0.15083958      -0.08915147      -0.11871143       1.91054281      -2.44357289       0.87660446
I        4.11879630       9.23467992       3.01972560       0.18098432      -0.04134638      -0.00459731       2.00273909      -0.14184064       1.62877612
I       23.64599558       2.73782831       2.80317679      -0.11358544       0.09396095       0.09323546       0.49010614      -1.33823091       1.25585097
I       15.81520894       2.54277993      14.61226691       0.10317744       0.18725140      -0.05374572       0.91011195       1.32214796      -2.38961708
I       22.16392863       8.73543602      14.42115731       0.03743278       0.43988355       0.07728116      -0.92492401      -1.04053525      -2.46267236
I       19.81108634       5.06706603      15.49019063      -0.23011027       0.11246581      -0.00577177       0.02080788      -0.26413370      -2.26394249
I        0.78908207      24.52686963      15.98649041       0.03018403      -0.08608314       0.00658235      -0.13496404      -1.31816876       0.50594188