320
Lattice="31.705123562890115 0.00098397742904671 0.8597404125717283 0.019921660697184568 29.971723771014627 -2.6265873698904523 -0.4087198441794399 1.5773423540450537 17.106165182112967" Properties=species:S:1:pos:R:3:forces:R:3:momenta:R:3 energy=-977.6725256927602 stress="0.0 0.0 0.0 0.0 0.0 0.0 0.0 0.0 0.0" pbc="T T T"
Cs       0.43998177       2.65033699       3.96853016       0.10013874       0.03036062       0.09116224       0.63930964       1.13465069      -1.49846600
Cs       5.05855372       6.29085994       8.82425158       0.03124752      -0.13827369      -0.12667498       0.32459384      -0.62956409       0.76037101
Cs       1.08926236      10.30073565      -0.90764373       0.03396028       0.01996385      -0.09084687       0.63052439      -0.81688976      -0.47450923
Cs       4.67619720      12.98095348       3.75945833       0.05808749       0.12158932       0.01169193      -2.49013755       1.33827407       1.59689082
Cs       9.00540161       2.98015765       4.87036712      -0.04346849      -0.01995958      -0.09821102      -0.08590724       0.50842343      -2.47280674
Cs      12.86114417       5.64230854       8.49814048      -0.01924090       0.07739754       0.15169677      -0.36754349       0.89942512      -0.37509025
Cs       8.84037844      10.65853397      -0.35129541      -0.01589002      -0.11531116      -0.06432608      -0.53860856       0.33711160      -1.57886937
Cs      13.15026327      12.40533679       3.53065974       0.00351803       0.11311647      -0.01330216      -0.09287423       2.54790149       0.33701460
Pb       2.30064494      15.96137226       7.25063140       0.06888413       0.14558824       0.04874693       0.02621785      -0.95339857      -2.15403044
Pb       6.30833357      16.04224171       7.60295320      -0.23449209      -0.01915870      -0.01869254       0.45072027       0.50130731       1.47573204
Pb       3.85909492       7.75705024       3.82409543      -0.31068997      -0.18076767      -0.04802687      -0.69002655       0.77269833      -1.41557734
Pb      31.44589269       8.07996745       4.54660135       0.06566610      -0.30997619      -0.22568907       1.36955219       3.10636892       5.77548018
Pb      10.31742184      15.66942583       7.55458304      -0.00288491       0.20797987       0.16388295      -2.52101432       1.75569032       1.67381271
Pb      14.03109413      15.55179053       7.69588015       0.31773901       0.41737222       0.23947135       3.14413738       0.09706018      -2.52880091
Pb      11.75198285       7.83825105       4.37123671      -0.35620257      -0.26090735      -0.53823703       0.87436825       3.04642151       0.47048575
Pb       7.65811294       7.85754096       4.18257175       0.32052122      -0.30601102      -0.26675671      -1.15535554      -0.54719917       3.14213577
I        4.49650502       1.76021732       2.18406139      -0.28948818       0.02266195      -0.02496489       0.23043958       1.83562592       0.79021433
I        1.86259009       6.00398181       1.94507167      -0.13389933       0.14038848       0.19399555       0.56660880      -1.39674927       0.46557958
I        4.53261176       1.62428488       6.33212726      -0.25511952       0.01131251       0.03569804      -1.11803465       0.00490959      -0.95157417
I        1.76130339       7.23696744       6.23598062      -0.20677117       0.06283981      -0.12143627      -0.34701442       1.01564489      -0.10569573
I        5.84825421       5.27424624       4.47026989      -0.13304793      -0.04333038       0.13134083       0.73156563      -1.25463625      -0.48203769
I        0.31045093       3.30574543       8.02646037       0.03445935      -0.24325911       0.08172908      -0.05151641       0.07687139       0.52448805
I        5.64316163       9.51037271       5.93171357      -0.09969121       0.17895801       0.22496884      -0.95342649       0.63153090       2.96769824
I        0.53873894      14.11589837       5.25791559      -0.26274845      -0.06481877      -0.03821826      -1.73016279       0.89620784      -0.48416989
I        5.95158213       8.59035755       1.57096904       0.11946562       0.04342684       0.05045825       0.00507786       1.41389555      -0.84206756
I        0.53719593      13.72038161       1.07125287      -0.00339046      -0.04023821       0.17810351      -1.55348069      -0.77600548      -1.38340438
I        4.35127923      13.39115032       7.94137755      -0.13849053       0.13829061      -0.09339646      -0.83879174       0.59642509       0.45845468
I        2.07372197      10.32057140       2.89306561      -0.22003180      -0.01682191       0.15979565      -2.93580558      -0.52185201      -0.83127762
I       12.37659371       1.85081455       2.76199390      -0.05523990       0.10506978       0.18109884      -1.33337633      -0.64319905       0.26254200
I        9.75437960       6.16051403       2.32186475       0.05321812      -0.01563424       0.14727894       0.26836903      -0.72899555       2.86152507
I       12.30620634       1.91796129       6.95190372       0.03935899      -0.05630450      -0.03567961      -2.06648237       2.45423095      -1.13648433
I        9.88066448       6.75535316       6.60761593      -0.25493964       0.10147381       0.18463104       1.02759704       0.51969803       0.76705645
I       13.85525438       5.25180819       4.49992107      -0.12403288       0.07470781       0.07132039       0.42076961       0.73335847      -0.60639522
I        8.27466627       3.29873965       8.40617212      -0.01031409       0.35571816       0.13475510       0.23050063      -0.53522256       0.51134088
I       13.71793616       9.59190808       5.96977352       0.05568942       0.18691462       0.42862426      -1.07113633       1.05635565       0.21086000
I        7.87825198      14.04609812       5.74741221       0.15220056       0.04467150       0.14690597      -1.13174796      -0.83082164       1.48213758
I       13.60533584       8.67272871       1.84560786       0.09295514       0.17789100      -0.33022686      -1.07744883      -3.20113830      -0.12334034
I        8.29274957      14.28796238       1.56992394      -0.05791643      -0.03675168       0.12800648       2.68326227       2.41137851       0.21911654
I       12.20919021      13.22314875       8.77894960      -0.29144893      -0.21544388      -0.19699594       1.31457323       0.27574470      -1.86377826
I        9.60357938      10.27144571       3.62325296       0.26288666       0.23268485       0.15071664      -0.09316936       0.10553088       1.65018935
Cs       0.52271868       3.67199294      12.74059643       0.00982542      -0.03022659      -0.06173909       0.30919957       2.36037342       1.45477312
Cs       5.29448781       5.12772025      -0.05797347      -0.07217182       0.02844558       0.01468476      -1.75370195      -1.38742286      -0.08703664
Cs       1.30679384      10.92861343       7.49377623      -0.03454075      -0.05987149       0.15161188      -0.93099033      -1.32448600      -2.37990402
Cs       4.84216975      13.76708046      11.74998967      -0.00821119      -0.02069977       0.12082955       2.13623688      -1.08911495       2.21100249
Cs       8.22892289       3.44254512      13.37684326       0.04403500      -0.00810267      -0.04902879       1.41080405       1.46556919       2.23859124
Cs      12.88190233       4.95223342       0.23117387       0.03574732      -0.00290719      -0.09686787      -0.16001642      -0.29433982      -0.04288231
Cs       9.10362649      10.65664396       7.98524409      -0.05608499      -0.00245616       0.07000410       0.59175595       0.53575297       1.06751634
Cs      12.37605864      14.06966833      12.42133166       0.02193685       0.02330847       0.05625648       0.81632935       0.20748557       1.17297776
Pb       2.54210011      15.03949380      -1.09694706       0.17334787       0.11630461      -0.22112485       0.81957093       1.77177111       1.84886633
Pb       6.34248009      15.20929834      -0.85900042       0.15574945       0.08749657      -0.15948987      -1.12151936       0.57105073      -0.74371492
Pb       3.24874942       8.84022869      12.68178213       0.37120682       0.18635317      -0.20378981       1.54831482      -1.95407979      -2.97396430
Pb      31.24195223       8.82669073      13.04755740      -0.41267049       0.27636122      -0.04303622       3.09944099       2.21553316      -1.35847973
Pb      10.32630163      15.22656241      -0.73023263       0.26104760       0.11586255      -0.18879250      -1.94308847       2.18737923      -3.29140829
Pb      14.48145945      15.21190400      -0.63734083      -0.46255046       0.10820825      -0.21751721       1.00379665      -1.87970205       1.16769896
Pb      11.26157388       8.77785488      12.69768366      -0.25739240      -0.05736106       0.22450972      -0.01237468       1.80976259       1.92319394
Pb       7.21065261       8.69651435      12.72715227       0.01781053       0.06324438       0.33473675      -1.02786773       0.29904924       3.19275852
I        3.94192771       2.64830511      10.64210494       0.32134790       0.01241452      -0.01403721       1.27648716       0.78817999       1.33328121
I        1.62609503       7.11696101      10.50110423       0.01582033      -0.15491696      -0.16577046       0.59661605      -0.39011962       1.36223005
I        3.96035293       2.24498132      14.73808783       0.23485453      -0.09904798       0.22466183       0.33548600       0.03985884       1.83661709
I        1.19286607       8.02828079      14.72137808      -0.05997196      -0.14316980       0.52459547      -1.10665080       2.82152360      -0.34241437
I        5.09455664       6.17272187      13.25640414       0.17339925       0.13059166      -0.06388892       0.90774029      -0.85019169       2.06014267
I        0.13680505       4.16434434      16.57238844       0.07106101      -0.05315456       0.09369997       1.51656836       0.88177844      -2.15571202
I        5.28781471      10.60940679      14.59076470      -0.07604818      -0.05929799      -0.09633843      -0.46955420      -1.49131981       1.58534239
I        0.42694530      15.38043590      13.67165795      -0.20273439      -0.30902680      -0.08052479       1.67489661      -1.03393292      -0.67187361
I        5.44101597       9.67659298      10.27887038       0.06435557       0.09146254      -0.15471256       1.46839737      -1.02894680       0.47038180
I        0.33532214      15.37915509       9.67020806      -0.20087478      -0.22855447       0.11837037      -1.67070842       2.04114261      -0.67245382
I        4.58828687      12.56183248      -0.15453644      -0.16763722       0.19990710      -0.15088811       0.44338812      -2.72399282      -0.63059802
I        1.49217255      11.47259971      11.97715803      -0.00057818      -0.04127815      -0.12409712       0.43091049      -0.89793596      -2.39192078
I       12.17763253       2.62081995      11.24870352      -0.03218800      -0.08791407       0.07245637      -2.13669449       0.72841316      -0.58397886
I        9.13362729       6.80261780      11.12843322       0.18355217      -0.06760001      -0.21979973      -0.16589421      -1.99517885      -0.49959529
I       12.12486837       2.92696283      15.72008190      -0.06812968       0.10000878      -0.17744554       0.38079206       0.84745713      -0.92335262
I        9.26709968       8.37212097      15.38300008       0.07093767      -0.03138780      -0.20788521      -0.80429246       0.57284999       0.21150931
I       13.26367907       6.14462068      12.89177519       0.08333548       0.10887390       0.16186791      -0.16958936      -0.05384316       0.29244414
I        7.76991851       4.22556782      17.04107853       0.20175091       0.21999287       0.07323627      -0.23091945       1.63171118       2.00838849
I       13.35027938      10.58255323      14.56974215      -0.03803059      -0.09533532       0.00294734       1.07255486       2.06737913      -2.31403578
I        7.93329821      15.32152843      14.25372002       0.04320040      -0.30766377      -0.23212230       0.87599749      -1.35744480      -1.05137369
I       13.15160973       9.78323430      10.31658935      -0.00004451      -0.09728365      -0.21746115       1.21371151      -0.05810137       0.45463105
I        8.15684917      15.16245138       9.98742271       0.00680125      -0.19416806       0.23786994      -0.05316125      -2.90686958      -1.44525915
I       12.27517413      12.64440539      -0.43786140       0.09104265      -0.07975120       0.03370575      -0.90249632      -0.24897738      -0.33859025
I        9.26058795      11.18069529      12.16128148      -0.06006557       0.13497791      -0.10801986       0.97402370       1.47567082       1.08904789
Cs       0.73777759      17.50088907       2.43745303       0.02483386       0.04347597       0.10936583      -1.18038929      -1.63491970       2.38137970
Cs       4.88865910      20.55569156       7.14177844       0.02332384      -0.03552385      -0.04253205       0.85150871       1.71115705       0.82729324
Cs       1.54515542      24.57618480      -1.66951772      -0.03257303       0.06578962      -0.01489062       1.75485362      -0.10330515       1.68241796
Cs       4.83365356      27.92080222       2.16228455      -0.00085338       0.00014715       0.01141645      -0.00364681      -0.51154119      -1.51329660
Cs       8.78622660      18.09846167       2.91477212       0.07013756      -0.04050009       0.08958036      -0.13881305       0.74158660      -1.38611296
Cs      13.13059908      21.15778886       7.25255214       0.06293145      -0.09248562       0.00722545      -0.22708017       0.39704008      -0.04274287
Cs       9.11366606      25.32480774      -2.01459988      -0.09651265       0.03235290       0.08854266       0.60367794      -1.97842225       2.35580988
Cs      12.50399188      28.25400474       2.62971233       0.09772693       0.00917716       0.05178094      -0.43114881      -0.40256534       0.21406692
Pb       2.46271398      30.72238060       6.10673120      -0.31510752       0.13665339      -0.29796190       0.96184001       1.73799359       2.06618876
Pb       6.30009936      30.93373127       6.26616281       0.08556945      -0.10437855      -0.21044365      -0.51412293      -1.34451391       0.43195057
Pb       3.76112393      22.88171879       2.80665274      -0.08120751       0.18222452      -0.37753550      -1.12670898       0.89400453      -0.07245691
Pb      31.53144776      22.75607755       3.49628905      -0.15565916      -0.09372483      -0.02493546       2.10725066       2.61131947       0.71965331
Pb      10.36315178      30.87680150       6.58394771      -0.36222863      -0.05494648       0.04423061       1.89906741       0.59084077      -2.11957969
Pb      14.19519071      30.70808781       6.82804795       0.17636275      -0.01812220       0.01578013      -0.78873952       0.36164585       0.03573705
Pb      11.57607574      23.27407288       2.64044407       0.33121701      -0.18001529       0.33045222      -0.24524207       3.90561455       2.01548401
Pb       7.70602906      23.19879546       2.76232570      -0.17682783      -0.15034270      -0.03657042      -1.01208682       0.35471362      -0.22599782
I        4.26078328      16.96905319       0.75028342       0.06763351       0.25245420       0.32307240       0.59248508      -1.45477121       0.95790844
I        2.01127951      21.05960377       0.75094619      -0.06587275       0.15787190       0.04813203       0.72194368      -2.89021637       1.20992487
I        4.46291271      17.12632100       5.13337245       0.01640769      -0.06754177      -0.16155828       1.35154612      -0.43451258      -0.89829389
I        1.91462657      22.03014931       5.04319517      -0.11811970      -0.11559775       0.43469821       0.15407155       0.06589626      -0.13108175
I        5.75374313      20.51898137       3.09612726       0.13785837      -0.02759666       0.04300991      -0.61914687       1.49707965      -2.05247338
I        0.24151287      18.46675490       6.51253159      -0.03801229      -0.32140537       0.04367896      -1.39049987      -2.86088984       3.41252580
I        5.67009706      24.80813934       4.58524551      -0.03402635       0.07413893       0.18735447       0.03096826      -0.08310726       0.80814476
I        0.51269611      28.82572920       4.04902757      -0.11375696       0.18040177       0.25356008      -0.31679678       0.75259970       0.92025446
I        5.64104193      24.10422993       0.32927853       0.18206311       0.00211699       0.04937861      -2.08036528      -2.62691031      -0.06665217
I        0.56425004      29.23302229      -0.06623311      -0.10603726      -0.07823529       0.25473452      -0.90255522      -0.38842753      -1.90573786
I        4.40552369      28.27226264       6.40537543       0.04783685      -0.25080972       0.24565100      -0.77415781       0.17009259      -0.08146871
I        1.51388937      25.36742601       2.37224741       0.24293414       0.08026547      -0.07422636       1.41029362       0.67410318      -1.45124382
I       12.20252506      16.85993206       1.16935233       0.11237107       0.07368217       0.01512924      -1.51174686      -1.10982996      -1.07636382
I        9.61492305      21.40920774       0.87783693       0.04947278       0.00596751      -0.04079839       1.40822131      -1.73785782      -1.63637013
I       12.24262100      16.20372956       5.06864782      -0.06435414      -0.04877183       0.05121379       0.05103883      -0.73195984       0.18754502
I        9.71936888      22.42029110       5.22752861      -0.02194611       0.05623969      -0.08595300       0.24078293       1.87723730      -0.49742810
I       13.45554479      20.59053361       3.17537777       0.12201918       0.12899977      -0.00000411       0.98998347      -0.70674312      -1.43810508
I        8.46214105      18.32489348       7.16927765      -0.03775611       0.18348891      -0.08269527      -0.85273957      -0.09968409       0.54234923
I       13.77728661      24.98463271       4.66166149       0.03563457      -0.28627893      -0.38168407      -0.50643753       0.73619687       2.65291656
I        8.51257489      29.22851101       4.40955791      -0.10771938       0.13083413       0.21690688      -2.04254939      -2.23403797      -0.96801782
I       13.67525104      23.74992456       0.15210513      -0.02886401       0.07270065       0.01806687      -0.09910668       0.86081361       1.09199205
I        8.20453608      29.15947071       0.37252425      -0.02449077       0.20316207      -0.35865154      -0.70772150       1.95680440      -0.51850064
I       11.97905011      28.29958641       7.51251063       0.14716473      -0.03285824      -0.17455086       0.86933657      -2.79382259      -0.51325821
I        9.54761720      25.67430981       2.24522401       0.03993289       0.19398436      -0.11408909       0.12531807      -0.40149659      -2.63656356
Cs       0.86999946      18.94706246      11.65687397      -0.06159499      -0.06420122       0.03866503      -0.66816144       0.80033121       0.86161351
Cs       5.65390460      20.54497012      -1.24752705       0.00452610      -0.04206512       0.01194160       0.79252720      -0.88153749       0.95801932
Cs       1.52730904      25.72702163       6.44481536      -0.13264735      -0.01975676       0.02391663      -1.26693284      -1.44799627       0.85904325
Cs       5.05209045      28.17162952      10.89828430      -0.01869381       0.14637980      -0.01977582       0.09824401      -0.26269884      -1.36822275
Cs       8.39545338      18.37254091      11.84081241       0.18351356      -0.00546068      -0.07006704       1.80985441       0.28110538      -0.87770992
Cs      13.05504438      20.14766786      -1.19493917      -0.01033850      -0.08542712       0.12072542       0.92703703      -0.65941767       1.93222386
Cs       8.73490593      26.13690269       7.03180499      -0.00693063      -0.05188953      -0.12055344      -0.02392917      -3.32128877       1.80411507
Cs      12.21353987      29.56539201      11.06678022       0.01774142      -0.08751022       0.05406393       0.32951443       1.25589058      -2.14681868
Pb       2.57890492      29.95301826      -2.43689027      -0.10573325      -0.06611594      -0.09561232       0.34775184       1.41295305       1.11001834
Pb       6.41654096      30.14053065      -2.24812335       0.05039965      -0.34688888      -0.14367762       0.87631464       1.56162693      -0.46059339
Pb       3.62751609      23.46899887      11.27965377       0.10776720       0.11341191       0.10970913      -1.42619306       0.11130325       3.24736984
Pb      31.34652210      23.66308811      12.11107033      -0.40622233      -0.04201063       0.39291529      -0.24953615      -2.06674835      -2.56776545
Pb      10.50895201      30.32668862      -1.78438383      -0.47521779      -0.31890661      -0.16945455       0.22750511      -0.29428493      -2.81254547
Pb      14.48899711      30.07229717      -1.71825168       0.08038050       0.09541386      -0.15808152      -0.53606973      -0.01064196       1.96819021
Pb      11.65058416      24.09586988      11.43500729       0.04268838      -0.07705538      -0.03720601      -0.43643231      -0.39608769       1.09743269
Pb       7.74408684      23.56641491      11.20033213      -0.07435061       0.06390295       0.25291445       0.55130481       0.07657063       1.86985797
I        3.67890301      17.69359551       9.44088013       0.47864777      -0.02585439      -0.02992877      -1.86176098       0.95170460      -0.75225245
I        1.58963305      22.13145859       9.32147935      -0.17334527      -0.38518843      -0.36065069      -0.21162983       2.12044218      -1.47541776
I        4.23469434      17.45875026      13.61042638      -0.12663578      -0.08559932       0.06807925       1.07791678      -0.70393141      -1.22841807
I        1.78329206      22.48220302      13.64158552      -0.20015212       0.02500188      -0.06080323      -0.53940795      -0.32889506      -0.54781272
I        5.95112735      21.06467093      11.78871175      -0.32837702      -0.02847205       0.01127049       1.69763403       0.55739182       0.54330829
I       -0.07320495      19.22551637      15.68207750       0.16506652      -0.19102454       0.10043026       0.89091129      -2.25722451      -0.09100444
I        5.48668426      25.13669330      13.18215915       0.13934966       0.11483683       0.09821912      -1.54015090      -0.63646606       0.53866522
I       -0.18812935      29.65061554      13.07603004       0.29779781      -0.04657108      -0.09828984      -1.74454169      -0.17949653       0.77501139
I        5.61928229      24.11212489       8.84839349      -0.01700560       0.26249689      -0.32078066      -0.57281727       0.48318461      -1.22325965
I        0.54489697      29.80085105       8.71993724       0.00813607       0.07910345      -0.36852870       1.60160902      -0.60281184       0.64860244
I        4.47508355      27.35987615      -1.91609846      -0.01547604       0.19731046      -0.03603360      -0.35351626       1.34170312       0.12247071
I        1.57509101      26.06879159      10.83561923       0.19542959      -0.05923056       0.00615690       0.64064681       0.60881472       0.50416720
I       12.04635411      17.58317622       9.58196534      -0.08473692      -0.13069745      -0.28416651      -0.89306476      -0.95591422      -1.95162317
I        9.90450852      21.95816689       9.63007820       0.01814473      -0.02342621      -0.03239669      -2.01776178      -1.69512059       2.33054837
I       11.92080290      17.77063170      14.01765029       0.11746438      -0.04310849       0.02987001       0.03338600      -1.50215811       0.75850274
I        9.63782827      23.46135556      13.92582705       0.03152663      -0.05139910      -0.03770310       0.00285072       1.04409487       1.16491179
I       13.29905604      21.49123103      12.42213067       0.14592762      -0.02786258      -0.16488165       0.81491155       1.19341174       1.14708486
I        8.02436738      19.30717501      15.42840435      -0.12394786      -0.01899190       0.25938415       3.07017176       1.59952944      -0.58107277
I       13.80202652      26.06025401      13.04072685      -0.00653722      -0.07175540      -0.01861011       0.68632037      -0.72498150      -1.47110217
I        8.18662920      30.23067516      12.84858911       0.24619061       0.07609833       0.21568130       2.20446119      -1.52804784       0.63005986
I       13.80013734      24.63721789       8.96507488       0.01735141      -0.14246116       0.08299516      -0.05862063      -1.20917771      -1.02596795
I        7.98113289      29.93113831       8.80104247       0.16371464      -0.00043429       0.03267219       0.38270899       2.17219258      -0.63811550
I       12.13800779      27.68637550      -1.18737956       0.17552408       0.07073259      -0.08954890      -1.77774093      -0.11885177       0.28341786
I        9.43482055      26.34938241      10.68659436      -0.00497874       0.23198585      -0.00387432      -0.57531244       1.62818090      -0.16803694
Cs      17.10678482       2.81655391       4.52926787      -0.04378178       0.16241043       0.14190144       2.23805194       0.04801320       0.76657174
Cs      21.21156779       6.02789580       8.89532939      -0.07637705      -0.02294931      -0.02911216      -1.67951473      -0.05634846      -2.33895571
Cs      17.09492190       9.98734247      -0.45323954      -0.00272723       0.00204274      -0.02318723       0.08506409      -2.64622206      -1.18194295
Cs      20.41678047      13.42043944       3.94987539       0.08908410      -0.05017594      -0.00091366       1.26902289      -1.43124313       1.08961879
Cs      24.91323152       2.94041427       4.79653952      -0.00929787      -0.02668578       0.02776538       0.65287199      -0.81219327       1.55734701
Cs      28.71589117       5.71187986       9.04959996       0.05669630      -0.02429953       0.03593923      -1.73073729       0.73596881       0.15515050
Cs      24.70718790       9.95441192       0.01938280       0.05532279       0.09467790      -0.15155797       0.86831351       2.72919745       1.90805136
Cs      28.70139232      13.04038536       4.06059284      -0.04778930       0.05315217      -0.00403082      -1.40589459       1.45394468      -0.37970036
Pb      17.96324610      15.57631416       8.04722432      -0.17730230       0.09744849      -0.16079383      -1.72593421       0.89444405      -0.50395975
Pb      21.98950575      15.97239590       8.10135533      -0.13956739      -0.29356830       0.09866033       3.82733500       2.07203662      -0.68689965
Pb      19.67768031       8.00126027       4.14753242      -0.04516382      -0.12510395       0.10277720      -0.20942053      -0.81156165      -1.16492739
Pb      15.68816565       7.86137666       4.08139085       0.08046206      -0.17567719       0.07661507      -4.71720069       2.42314369      -0.19784940
Pb      25.94704433      16.01482632       8.15645678       0.24705443      -0.03102647      -0.11195909       0.74775214       0.33892110       0.65821647
Pb      30.10617538      15.80105805       8.02807708      -0.13808746       0.41275788      -0.12764030       0.54514898      -1.16294310       0.07855374
Pb      27.47311758       8.18115498       4.37960597       0.13790748      -0.05708038      -0.15995427       0.97650865      -0.31463517       0.87581069
Pb      23.63445574       7.98284385       4.50206876      -0.32610759       0.12781572      -0.06392336       1.38994635      -3.06533546       0.33475435
I       20.38723047       1.56749522       2.86282104      -0.10342817       0.04893039       0.06694606       0.28959767       0.70965843       1.62142697
I       17.65260839       6.23264334       2.20474316       0.03519932       0.00527346      -0.13395095       1.22340352       1.99368206       0.51596280
I       20.03009724       1.84193940       6.97815464       0.29818556      -0.08210248       0.15408330       2.13406295       2.55295075       0.75622203
I       17.68385672       6.58457830       6.39167178       0.03646031       0.06296253      -0.01113761       0.51152538       2.41640935      -1.40024972
I       21.52573604       5.53517293       4.99223178       0.20233632      -0.13264693       0.00447840      -0.67269348      -0.73931480       0.00027553
I       16.03637256       3.28095205       9.04353343      -0.04074551       0.12049848      -0.15935383       1.22105535       3.21257888      -1.70596690
I       21.29067688       9.81500155       6.24143289       0.17619522      -0.09462435      -0.20466889      -2.17705585       1.96797920       1.37961217
I       16.06121754      13.68272181       6.17035027       0.00775469      -0.22749025      -0.10089646      -0.32807940      -2.23011280       1.16133445
I       21.82269528       8.39493843       1.70720379       0.00947764       0.01219479       0.15045207      -0.47003271       0.24009855       1.18738630
I       16.26109513      14.40292219       1.74362779       0.10706523      -0.16024074       0.34204769      -0.94556900      -0.58519380      -0.64410099
I       20.11293713      13.21771661       8.47041610       0.04092606      -0.11509923       0.03196182      -0.84849083       1.09103702      -0.78496150
I       17.60230602      10.42803536       3.77033586      -0.02304335       0.19696937      -0.11980227       1.45901976       3.62097985      -0.02226014
I       28.26680802       1.95153275       3.02996163      -0.13633173       0.04315341      -0.10469741       0.41678057       1.00737392      -1.03230141
I       25.46892166       6.11936526       2.75797789       0.08512947       0.08141654      -0.12914401       0.64021444      -1.13894050       1.72997615