320
Lattice="36.61494431704515 0.8521064442996575 0.6472952383376436 -0.4899562435077865 21.43320960287554 0.4582089290160639 -0.349194964961731 -0.4123068262220005 19.635594233834194" Properties=species:S:1:pos:R:3:forces:R:3:momenta:R:3 energy=-986.0212668243291 stress="0.0 0.0 0.0 0.0 0.0 0.0 0.0 0.0 0.0" pbc="T T T"
Cs       7.48243363      19.34325152       1.06528751       0.16357620       0.12505704       0.02575539       1.53122697       1.86207960      -1.23150027
Cs      14.13648546       7.03734814      18.44124598       0.04303072      -0.04402960      -0.22268217       0.82171997      -0.33275192       0.32326026
Cs       5.27469477       3.48014872       0.87563942       0.09021316      -0.00714747      -0.05949020       0.52746513      -1.47906873      -0.51493904
Cs      16.77894877       1.64359310      18.00670296       0.16424933       0.03813551      -0.09263263      -1.43197157       0.91941116       0.38839127
Cs       7.70937853      19.64072545       5.99449010      -0.03023003      -0.08735664       0.05575052      -0.12363043       0.16817238      -1.18425263
Cs      14.49808203       7.07847724       3.27039388      -0.07912618       0.05246545       0.12457090      -0.57126263       0.47008634       0.03259444
Cs       5.25120630       3.56672613       5.82025938       0.00618933      -0.17515290      -0.11634337      -0.44487898       0.03966488      -1.72591342
Cs      17.20401649       1.74188633       3.22017486      -0.05939478      -0.03392173       0.01898314      -0.86991389       2.09093952       0.40372047
Pb       2.49947846      20.04727844      18.05995876      -0.02308573      -0.03520354       0.03507087      -1.67955800      -2.05914351      -1.40876673
Pb      19.29033654       6.50433925       1.14128914       0.03853822       0.06798261      -0.22692948       0.67184949       1.28750917       0.62324699
Pb      10.12408036       4.00508587      18.12700256      -0.18326915      -0.13988753       0.05146151       1.47206510       1.96922747      -0.56734244
Pb      12.39013626       0.98809629       0.79960933       0.13785253      -0.23274189      -0.09896885       1.97381937       2.22760082       5.07364071
Pb       2.97948212      20.25452462       3.35025962      -0.25745930      -0.13207734       0.23161462      -2.77773015      -0.63692910       1.27679388
Pb      19.08641666       6.40053412       5.81571169       0.45220743       0.25004237       0.34924514       2.36879127      -1.94835022      -2.79806233
Pb      10.28545493       4.38009122       3.61683204       0.09226638      -0.26305247      -0.56713621       2.86000269       4.06775489       2.27316773
Pb      12.23620995       0.83088671       5.76253668       0.37879829      -0.05692759      -0.25630929      -1.26616925       0.19309776       2.70163031
I        2.53106030       0.84368779       0.64787321      -0.25666035      -0.01068237      -0.16350368       0.53014429       1.84926707       0.29055894
I        1.95107356       3.94036666      17.84420391      -0.04893989       0.19286037       0.04794883       1.32405896      -1.05995203      -0.05350334
I       11.48158343       6.25025889       0.91513819      -0.14837311      -0.05036174       0.22697798      -0.93651864      -2.36415851      -0.15474404
I       10.40151769      20.10128280      18.41492589       0.03274039       0.01369928      -0.10102299       0.33963672      -0.49003518      -0.28562133
I       17.89563790      18.92632992      18.15233072      -0.04972285       0.01389686       0.15726085       1.42962296      -0.73615285      -0.95065268
I        4.02163715       7.66135192       0.79139468       0.23468798      -0.27234105       0.04385304       0.94642749      -0.10921777       1.07093851
I       12.99244479       2.49140881      18.00807908       0.12678848       0.13584997      -0.03676277       0.42844364       0.18826722       1.05237251
I        9.50130472       2.21215710       0.73231545      -0.09054737       0.27411284       0.24896753      -0.61177900       1.52444808      -0.13073032
I        5.20224166      21.49069021      18.26563190       0.08901795       0.04974304       0.09057063       0.73232400       2.45170478       0.12574213
I       16.54522297       4.87334678       0.84841961       0.15317790       0.13350669       0.10870499      -0.30766335       0.02212268      -1.39183445
I        7.21228858       5.21672597      18.11076456      -0.11432809       0.14266005       0.01289561      -1.09225759       0.80180859       1.81008832
I       14.84892364      20.99609605       0.84551293      -0.10924117       0.00839867       0.30067041      -3.69136967       0.19157397       0.17300961
I        2.33135043       0.55526856       5.40943234      -0.19556883       0.24437571       0.06107109      -1.69839269      -0.17681665      -0.19869236
I        2.02830725       4.27367734       3.16587570       0.11399656      -0.06030546      -0.24161943       0.87868412      -1.64413428       1.37034298
I       11.30143067       6.28831246       5.69260626       0.01949548      -0.12212282       0.17443492      -2.04077058       1.23845102      -0.78822695
I       11.00652707      20.40082401       3.64794941      -0.18817908       0.02843217       0.08578345       0.96286061       0.05697273       0.01731571
I       18.12567367      18.93540149       3.80160689      -0.28178641       0.38342087      -0.12315491      -0.28936736       2.12625661      -0.24895638
I        4.07905652       7.27990788       5.60280293      -0.03028154       0.45114604       0.20935783      -0.33124046      -0.56027463       1.98618511
I       13.19919958       2.95183648       3.08677722       0.17763761      -0.01090952       0.33526023      -0.60890555      -0.24123540      -0.56926347
I        9.14993219       2.09706857       5.75105787       0.13780214       0.26866241      -0.07284916      -0.85511018       1.13819452       0.62894472
I        5.55267994      21.74467374       3.50954581       0.38358741       0.25248618       0.10521890       0.43615036      -2.28575867       0.47540251
I       16.44866481       4.90549075       5.87217364      -0.24011070      -0.09948125      -0.08398823       1.60965829       2.35272733      -0.30369528
I        7.56944404       5.80418037       3.47226200      -0.34454503      -0.03999288      -0.12645740       1.56982074       1.62557445      -1.61882459
I       14.56099883      20.73471958       5.98540561      -0.04567427       0.19486907       0.15566675      -1.93452678       1.07026145       1.30514007
Cs       7.47759135      19.29632122      10.97773551       0.05711096      -0.04839029       0.00913237       0.31949841       2.03402696       1.95290449
Cs      14.50746334       7.12318041       8.32617900      -0.05090768       0.07029822       0.03526300      -1.59790866      -1.35051426      -0.26013165
Cs       5.19874786       3.42846490      10.40908176      -0.02716383      -0.11324187       0.24965138      -0.48827296      -1.62399549      -1.52994084
Cs      17.15280366       1.95979017       8.11371374      -0.00524339      -0.11303187       0.01632977       1.99627644      -1.93808902       1.86979032
Cs       7.41127938      19.37566805      16.11644118       0.02450838      -0.04271435      -0.24948682       1.51670772       1.69467494       0.69692706
Cs      13.94677009       7.08943813      13.43842387       0.09389696      -0.01402042      -0.09763265      -0.06423050      -0.65698255      -0.11492310
Cs       5.24099523       3.10653748      15.49372885      -0.10809604       0.05330410      -0.05196973       0.35944188       0.93800959       0.65250499
Cs      17.05036783       1.87345372      13.20187263       0.00301448      -0.04478294       0.10369231       0.78628185       0.09006883       1.98297731
Pb       2.82037271      20.22101585       8.39567845      -0.02363498       0.13892205      -0.04291589       0.76908279       1.81150471       1.60004520
Pb      19.18692899       6.25634151      10.93109296       0.14335977       0.19753289      -0.10166223       0.67873069       0.35784179      -0.94334331
Pb      10.22934331       4.16942649       8.29444356       0.07224921       0.09363896      -0.06490780       1.41740310      -2.36425010      -4.02826080
Pb      12.50616771       0.72890735      10.69671040      -0.16792010       0.10090391       0.05123291       4.31253527       2.20898845       0.23975051
Pb       2.71757699      20.24159612      13.26507392       0.07357530       0.10908872      -0.08327269      -2.06299921       2.55766673      -3.13221802
Pb      19.17469901       6.26286571      15.71661291      -0.18538518      -0.00261311       0.12981277       1.22488698      -3.17989222       1.62258974
Pb      10.09145657       4.21882048      13.16068682      -0.27305882       0.10757571       0.07496228      -0.14848248       1.62500540       1.76365102
Pb      12.02647804       0.45271711      15.54968708       0.12690351       0.17275863       0.06120517      -0.78446052       0.81645098       1.23282226
I        1.97835340       0.70459007      10.43496157       0.12076201      -0.09331136      -0.10925036       0.50611094       0.09247888      -0.15739179
I        2.12797873       4.22935911       8.09226432       0.06583123      -0.28230562      -0.08253656       0.65215608      -1.77791330       2.20424982
I       11.05808519       6.16834359      10.58087138       0.10836187      -0.01118939       0.14785201      -0.26624235       1.19849313       1.37848628
I       10.76312858      20.46588150       8.45751509       0.04749038      -0.09739764       0.21993485      -0.21439798       3.29299359      -2.59287634
I       17.76026723      19.03610966       8.74014092       0.32015542       0.04467985      -0.15614449       1.59300988      -0.72283354       2.44850440
I        3.92668600       7.55351759      10.38529642       0.13156671      -0.14446027       0.30839280       1.45014682       0.97331351      -0.83598564
I       13.38327676       2.74625457       8.29452993      -0.07376349       0.13786471      -0.04441879       0.36339793       0.07681915       1.79664595
I        9.43827763       2.24050046      10.51704694      -0.14812227      -0.06692398       0.14672200       1.28048759      -0.72634078       1.19544598
I        5.64686130      21.68231837       8.61298345      -0.16689604       0.04662308      -0.07325180       0.33679458      -1.17674982       0.23471471
I       16.49280988       4.95253888      10.91160957      -0.23510411      -0.17151128      -0.05965776      -1.92669514       1.88825576      -1.19708857
I        7.51702406       5.58782661       8.44792212      -0.11110011       0.10956614      -0.21484102       0.94626548      -2.63615321      -0.98430618
I       14.79451219      20.89328447      11.16558419       0.01123536      -0.05675744      -0.05262509       1.04384944      -1.59455760      -2.48878105
I        2.02127964       0.68247212      15.19304565      -0.00329116      -0.22177692       0.13714254      -1.59671181       0.27663260      -1.26236023
I        1.79141362       4.19357816      13.13275524       0.18251459      -0.08612023      -0.36796001       0.31732957      -1.34781019      -0.98398161
I       11.17205212       5.92591667      15.77330002      -0.04464799       0.09927638      -0.19619811       0.09386782      -0.53693862      -2.33541349
I       10.66559874      20.25059729      13.49830819      -0.05468978      -0.04468219      -0.15848363      -2.31619395      -0.44985880      -0.13101720
I       17.68833116      18.77724215      13.36832098       0.31014680       0.29788389       0.10736883       1.49754034       0.46758538       0.28078047
I        3.82507082       7.28042990      15.58453930       0.09379650       0.08277066      -0.08100707      -1.33110665       1.83028280       1.77141960
I       13.06941696       2.90362439      13.20266795      -0.00286739      -0.34196342      -0.03810388       0.90927454       1.74310144      -1.97556708
I        8.96200970       2.21618847      15.56391418       0.28942909      -0.13828992      -0.14400489       1.29091373      -0.71982493      -1.57594711
I        5.50432285      21.73257524      13.35630083      -0.01165057      -0.03728783      -0.02137220       1.24129808       0.89684494       1.17587167
I       16.31284662       4.97117554      15.62243514       0.07300315      -0.12171201       0.05163053       1.22037121      -3.04421234       0.00294496
I        7.19671653       5.63057884      13.22730907       0.15040998      -0.02953274      -0.13874286      -0.38087063      -0.14262790      -1.50609909
I       14.39474448      20.53889484      16.08543555      -0.07742645       0.24289344      -0.17742834       0.87833484       2.16218343       0.65956499
Cs       8.02261857       8.53172491       0.82470256       0.10458877       0.14424239      -0.02797494      -1.41067836      -1.11009844       1.94071838
Cs      13.85338345      17.66889970      18.29784925      -0.05647316      -0.05683717       0.02332656       0.28129618       1.53223567       1.55917102
Cs       5.21765170      14.03795707       1.07572052      -0.06315383       0.08786894      -0.13569186       1.37176093      -0.23392508       0.09980595
Cs      16.73845673      12.27284531      18.30997126       0.07912127       0.00130876      -0.06930697       1.01509689      -0.37855758      -1.45639429
Cs       7.91450805       8.65481417       5.51812317       0.09752130       0.06165525       0.26278763       0.73148539       1.72616664      -0.84257177
Cs      13.96665511      17.89150593       3.55648781       0.18316720      -0.05009642       0.04679526       0.48726742       0.63640862      -0.26444770
Cs       5.10489565      13.85027278       5.60870410      -0.05415565       0.00918163       0.22696980       1.40010919      -2.58460792       3.40463598
Cs      16.88457438      12.77656085       3.43873682       0.15111752       0.03948262       0.17827159       0.03693722      -0.62557552       0.75900693
Pb       2.77712668       9.30861720      18.15229970      -0.39579343      -0.17228893      -0.35794992      -0.15458865      -0.25479674       2.91868483
Pb      18.98600357      17.27006593       1.15755248       0.19896366       0.00319593      -0.25931522       0.82652853      -0.64359527       0.62097209
Pb       9.72809688      14.63284526      18.49617420      -0.05301550       0.30890200      -0.46893650      -1.39936247       1.58985386      -1.27016551
Pb      12.34677484      11.74824866       1.01267157      -0.14386154       0.12674233      -0.00771242       1.10441256       1.26186533       1.47702157
Pb       3.10825925       9.46445565       3.24950913      -0.05960228       0.08011300       0.27622030       1.95124279       0.40809457      -1.98807065
Pb      18.84983491      16.99018541       6.21459029       0.24683770      -0.04860107       0.36794841       0.23293912      -0.85771311       2.07995102
Pb       9.76765713      15.15751134       3.57582507       0.14666276      -0.30745831       0.11517259       0.03284240       2.66419214       2.45454127
Pb      12.21466321      11.57131238       5.94600362      -0.03540405       0.04636130      -0.17462236      -0.17198875       0.36246618      -1.49070722
I        1.89944501      11.34061648       0.83696666       0.01550398       0.21370328       0.22565531       0.26749015      -1.85919017       0.18492593
I        1.90437120      14.57244959      18.17274621      -0.19720345       0.28385198      -0.01167706      -0.30648984      -0.93446640       0.87102143
I       11.10844375      17.03340736       1.31721176      -0.19717047      -0.09730082      -0.10879586       0.00320705      -0.75568104       0.00307522
I       11.05525801       9.55883616      17.97116632      -0.16329639      -0.13780045       0.35193657       0.22725217       0.21480255      -1.78283480
I       18.04626549       8.10600500      18.18722635       0.13350702      -0.06890989       0.11955423      -1.06049684       1.36297762      -0.78488560
I        3.85147731      18.43778414       0.96608332       0.07304580      -0.15284804      -0.24762350      -0.28758950      -0.69465804       2.09922063
I       12.84501167      13.40025903      18.09520351      -0.01060148       0.13734653       0.25775124       0.53009832       0.79198006      -0.11089549
I        9.18067709      12.96233423       0.85588114      -0.13168055       0.07165098       0.17246452      -1.48483617      -0.46570928       0.57199166
I        5.39827056      10.62101004      18.00527607       0.52831396       0.25190623       0.21710444      -1.10772470      -0.80216008       0.28797876
I       16.28414300      15.76398133       0.98358923      -0.11315948      -0.01533826       0.09390078      -1.81586562      -0.95962923      -0.77061129
I        6.88783821      16.10658976      18.08800913       0.09427429      -0.14514919       0.23375627       0.32269191       0.72855252       0.37106738
I       15.05226063      10.34983539       1.27289852       0.17374024      -0.03025506      -0.12992928       0.89550911       0.73195581      -2.67528634
I        1.81680896      11.31544298       5.66838814       0.12909393       0.01428100      -0.03013167      -1.54176357      -1.82443407      -1.30010393
I        1.83478703      14.95568809       3.48100544       0.06788518      -0.10776629      -0.07723130       1.55326127      -2.37433542      -1.06728957
I       10.76294624      16.89385499       5.94376451       0.04874833      -0.04644354       0.13515193       0.82847189      -1.03949699       0.22528827
I       11.17413878       9.86884704       3.30436725      -0.02221678      -0.10436754       0.00843293       0.20915772       1.91034444       0.11771139
I       18.29450795       8.54478624       3.48588733      -0.05788577      -0.01272830       0.02418700       1.36722894      -1.47926535      -1.83502360
I        3.84725102      18.15798136       5.94500100      -0.10188809       0.14629224       0.08111261      -0.81391470       0.19346138       2.20070336
I       12.90117332      13.87539732       3.59149454       0.04626820      -0.12130340      -0.12287001      -0.12372779       0.70516403       3.83281127
I        9.08679122      12.74702226       5.98910470       0.02736141       0.28081250      -0.04744179      -1.68490445      -0.13379416      -1.81597953
I        5.91008317      10.96939118       3.24018513       0.05610346      -0.00752087      -0.02901560       0.56757771       0.44926803       1.79165692
I       16.19493768      15.42298062       6.49924770      -0.16681125       0.03016981      -0.29844778      -0.86556976       1.19384530       1.22435757
I        6.98391597      16.53558864       3.64545904      -0.04205273      -0.03925962      -0.12511746      -0.04649383      -2.19713276      -1.00381806
I       15.03432593      10.21456694       5.87347194       0.03745756      -0.05794573      -0.01141481       1.36183888      -1.70276389      -1.93231387
Cs       7.92411581       8.87430394      10.65409481       0.07474458      -0.10990206       0.16782108      -0.08056439       0.75040143       2.00840028
Cs      14.02761414      17.73955616       8.61178648      -0.02004759       0.06134481      -0.00777757       0.81518435      -0.12619504       0.62739806
Cs       5.24160744      13.95000522      10.64350281      -0.17379849      -0.02058476       0.15583892      -1.47522624      -1.32753598       2.42624760
Cs      17.09135306      12.16353287       8.58999554      -0.01630808       0.13264983      -0.03311878       0.17018031      -0.20594860      -1.25882768
Cs       7.69278840       8.46114143      15.86464477       0.13808745      -0.02292630      -0.16716995       1.36358502       0.09767540      -1.70803396
Cs      13.95170549      17.70753703      13.44759815      -0.02413936      -0.03095074       0.03029691       1.22288991      -0.24210534       1.43297611
Cs       4.86506738      13.74663661      15.84059218      -0.04687931       0.08738119      -0.15147492      -0.37128932      -3.17607099       1.68314429
Cs      16.94545875      12.49258276      13.35041453      -0.06774716      -0.01469222       0.14548411      -0.29453914       1.16372392      -1.89217066
Pb       3.14421967       9.56513903       8.18078613      -0.38627750      -0.16284578      -0.22386271      -0.05841275       0.91304259      -0.59964053
Pb      18.85416891      16.99287158      11.00871552      -0.01812540      -0.38678352      -0.10507803       0.54048823       2.08029921      -1.05346659
Pb       9.85048081      14.90064131       8.51552809      -0.25597019      -0.05011506      -0.01752644      -2.83276003       0.21408360       1.65889498
Pb      12.13270791      11.61889712      10.78473425      -0.25262869      -0.05239401       0.26183109       0.17723281      -1.57615890      -2.14336212
Pb       3.03818736       9.30605436      13.15336064      -0.36570415       0.16886393      -0.04608941       1.26374455       2.25460888      -1.59205334
Pb      18.80214634      16.86300925      15.90134470      -0.00717806      -0.08992220      -0.10969425      -1.58349674      -0.11088817       2.47104218
Pb       9.94697361      15.15630111      13.61035729      -0.43468463      -0.19741342      -0.11497248      -2.87740332      -1.03401386       1.65759011
Pb      11.97316025      11.42685356      15.66482669       0.06798824       0.09717400      -0.07922510       0.57837512       0.36626791      -0.30434726
I        1.61472113      11.28001790      10.61701656       0.44147361      -0.24786958       0.01519895      -1.47417552      -0.92772287      -1.56593012
I        2.00103065      14.95158342       8.32149723      -0.06855930      -0.15310922      -0.06070440      -0.30101774       3.38154413       0.22850677
I       10.87995091      16.90196063      10.87535588      -0.03688022      -0.03476583       0.04155999       1.95990018       0.09727089       0.04764134
I       11.28905261       9.70350216       8.31441049      -0.21950305      -0.16728844      -0.01136001      -0.44722330      -1.65226458      -0.42497956
I       18.54271533       8.45073422       8.54474330      -0.34031385      -0.12516938      -0.03986785       1.32367517       0.57844143       1.33125963
I        3.60271064      18.28209324      10.67960088       0.09285815      -0.22026635       0.27443248       0.93426649      -0.68540080       0.38684984
I       12.92033654      13.56009362       8.39930560       0.17826684       0.15789934       0.01477545      -1.37970007      -0.24596257       0.28856255
I        8.81411518      13.04004380      11.11555628       0.38532688      -0.03953979      -0.22711693      -1.25599953       0.79347097       0.05970041
I        5.95044092      10.77687665       8.30813506       0.03474316       0.24785853      -0.13290731      -0.55548181       0.06131425       1.14330802
I       16.09115374      15.46791438      11.11159867       0.07813948      -0.01661928      -0.15642248       1.90444079      -0.62653975       1.10804986
I        7.02471580      16.22733051       8.27939904       0.06174774       0.07553125      -0.02830637       0.52499363       0.32751507      -0.14466385
I       14.79265726      10.07982058      10.97447889       0.08277440       0.01380245      -0.02129947       1.32838064       0.00803040       1.17335842
I        1.69475706      11.08577370      15.63596830       0.07693474      -0.05705499      -0.19034050       0.18603326      -0.20221783      -1.22810145
I        1.80378690      14.70100289      13.29444596      -0.02761417       0.06492729      -0.06087371      -3.46682453      -1.50299490       1.19148369
I       10.75378509      16.90103459      15.94829434       0.03895707      -0.12744743       0.17732906      -0.12488518      -1.91713146       0.77571580
I       10.98596767       9.66201944      13.29245100      -0.14731197      -0.14029449      -0.18515781      -1.48453815       0.39551222      -0.15809882
I       18.14975124       8.27014928      13.50048205      -0.01285454      -0.05969746      -0.29380771      -0.31203049       0.99822012      -0.09916446
I        3.62527440      18.10248315      15.56008215      -0.03667803       0.07351274       0.21378587       3.73430749       1.62277967      -1.42503410
I       12.98826953      13.57886386      13.28547705      -0.11096475       0.08084119       0.03033384       0.10973698       0.43255522      -0.06801714
I        8.76210045      12.83901574      15.82998434       0.28735526       0.14596040      -0.03446041       2.75373068      -1.17207782      -0.53161634
I        5.66325258      10.83354089      13.33170130       0.05806891      -0.00124133      -0.08171386      -0.45625943      -0.42300740      -1.24974413
I       15.96562846      15.53756392      15.99961421       0.02973498      -0.16955924      -0.06862184      -0.67748588       0.93117777      -0.71213851
I        6.90559680      16.27598333      13.41821229       0.26687629      -0.02468338       0.02278053      -0.38469890      -0.72962050       0.91506999
I       14.73946621       9.96791526      15.76447767       0.02187256       0.10257282       0.02293604      -0.26154441       0.35321965      -0.44291627
Cs      26.41616113      19.94062271       1.21745685      -0.16367544       0.01970356       0.12509668       1.86930274      -1.45731900       0.45519222
Cs      32.36261906       7.60980071      18.33947782       0.01259834      -0.10409598       0.03716422      -1.50043044      -0.60593156      -2.01988725
Cs      23.54277747       3.86698860       1.14879134      -0.01951764       0.01941639      -0.05177860      -0.14142591      -2.81897688      -0.34030939
Cs      35.38397836       2.22911628      18.31981571       0.03930817      -0.02426134       0.03669845       0.81188563      -1.31539722       1.61006727
Cs      25.84173891      19.70883384       6.24650528       0.07322789       0.11349796       0.03346847       1.42860362       0.35557558       1.63559171
Cs      32.56031405       7.50277688       3.69738734       0.16822583       0.07849389      -0.08197425      -0.94221069       1.17304630      -0.23240045
Cs      23.55937459       3.58537105       6.07286237      -0.01297595       0.04471296      -0.18927572       0.60995912       2.40181559       1.49979697
Cs      35.64697575       2.55132160       3.59341010       0.07432405       0.02386842      -0.03317565      -0.53826215       1.03545608      -0.69475368
Pb      20.87673985      20.52957223      18.36697393      -0.02120876      -0.29912955       0.06240365       0.41264292      -0.23876727      -0.22757816
Pb       1.01311709       6.29985527       0.60030849      -0.20470744      -0.35767379      -0.12184314       3.71904598       1.29565318      -2.23790198
Pb      28.14195438       4.64566351      18.20662689      -0.12543644       0.05945690      -0.07704712      -0.52247368       0.17915251      -1.96553992
Pb      30.86023693       1.58714286       1.00848778       0.02830761      -0.38204229       0.27295213      -4.00494376       1.72818956       1.34226494
Pb      21.04712195      20.62915198       3.65685428       0.21316986      -0.12598132       0.16085199       0.50439795      -0.08706639       2.56636069
Pb       0.97310369       5.90808070       5.64780146       0.22724453       0.40907757      -0.09437583       1.96332364      -0.39100266      -0.16587927
Pb      28.39836631       4.82442526       3.26246591      -0.01003976       0.03703382       0.12636182      -0.40956132       1.03995054       1.68134841
Pb      30.78405711       1.36167340       6.08121171      -0.08041692       0.04047784      -0.34579113       1.67786148      -3.61125523      -0.66638410
I       20.45768711       1.11412442       0.82677855      -0.09503320       0.08097789       0.13473971       0.38504431      -0.01810154       0.39633334
I       20.11551205       4.46136784      18.25899012       0.11372465      -0.23429423       0.05249061       1.70315692       0.18261930       1.50523281
I       29.52153771       6.97163414       1.01499825      -0.04620977      -0.25757975       0.15998412       1.12838553       2.96596543       0.36637355
I       28.93476808      20.56823468      18.68653372       0.04588426       0.12812755      -0.08583435       0.39662340       2.45980896      -0.78642543
I       -0.58454632      18.49609713      18.14635535       0.17198102      -0.07393428       0.09782515      -1.08265244      -1.39869149       0.35385972
I       22.47527531       7.98742953       1.29214015      -0.26827045      -0.03678886      -0.16052664      -0.26052464       1.38076932      -2.20609967
I       31.18277564       3.08926074      18.34226118       0.06431680       0.20779596      -0.11367981      -1.47788932       3.27094172       0.54388635
I       27.66695825       2.80506500       0.88640413       0.01079949      -0.03833657      -0.02071147       0.63058828      -1.95522412       1.12416007
I       23.61332451      21.98301285      18.63444830       0.12383196       0.02148577       0.02948206      -0.23943517       0.22822754       0.07823996
I       34.83811011       5.59310470       1.01227892       0.12125569       0.07770066       0.15899015      -2.32079602      -0.43411906      -0.65944823
I       25.24357353       5.95245443      18.31494905       0.19971221      -0.08234850       0.06305634      -0.87091699       1.56248011      -0.12121705
I       33.25117873      21.63481146       1.65447079      -0.19541225       0.10778085      -0.12110703       0.86824688       1.71056373      -0.37111020
I       20.38326923       1.08925429       5.81598877       0.06177847      -0.18527151      -0.08854547       1.74768978      -0.60591343      -0.49383469
I       20.07297264       4.42503800       3.65021328       0.18843887       0.05969968      -0.27864543       0.29041290      -0.13572483      -0.00274903