320
Lattice="31.705123562890115 0.00098397742904671 0.8597404125717283 0.019921660697184568 29.971723771014627 -2.6265873698904523 -0.4087198441794399 1.5773423540450537 17.106165182112967" Properties=species:S:1:pos:R:3:forces:R:3:momenta:R:3 energy=-969.5692729098866 stress="0.0 0.0 0.0 0.0 0.0 0.0 0.0 0.0 0.0" pbc="T T T"
Cs       0.77098645       2.34498949       3.66700398      -0.04427859       0.14000441       0.14366685       1.35532051      -2.78459172      -1.12055014
Cs       4.05400234       4.73318476       8.25668452      -0.12043415       0.15119179       0.06256145       2.10653895       0.42031741      -1.64207299
Cs       1.33624128      10.49751068      -0.54245057      -0.08228857      -0.14845440      -0.16539049       1.16975892      -0.62157030       0.40518153
Cs       4.90249252      12.97108592       3.00547310       0.04626570       0.01859851       0.02171319      -1.89468308       1.52828524       0.71857995
Cs       8.49033259       2.84119751       4.51089542       0.04625985       0.10030211      -0.01163201       3.25659256       0.27259982      -1.81586377
Cs      13.45853486       6.56934667       8.51006299       0.02469319      -0.18978193       0.07910022      -2.45163476       1.90229827       3.48836105
Cs       9.24993783       9.72382555      -0.14913650       0.01722039       0.04916394      -0.23762484       4.10527727       1.01626716       2.44700811
Cs      13.49565318      12.47653202       4.35147783      -0.14932597       0.15163380      -0.13918254       3.68446412      -1.01848648      -1.71997490
Pb       2.14796621      15.71902774       7.25137890       0.32010999       0.01895956       0.04547286       0.59647215      -2.68662178      -1.57052620
Pb       6.20113376      15.89168122       7.45510351      -0.25754360      -0.31235732      -0.24332663       4.41586972      -2.16931569      -0.11181943
Pb       3.45778650       7.95054132       3.63769537      -0.23472426      -0.08222284       0.54817070       0.29969252       2.19075650      -2.60552162
Pb      31.20914084       8.15856087       4.73781973      -0.05152265      -0.43695438       0.10059691      -0.95440598      -0.72707211      -2.77388802
Pb      10.27484023      15.82664800       7.83670535       0.21067731       0.14200908      -0.10449702      -3.13429984      -1.46871042       3.98596931
Pb      14.08393479      15.49212300       8.33093531       0.22953159       0.92102009      -0.10413648      -1.29537619      -3.02986378       1.60176034
Pb      11.45891205       8.04772537       4.55910716      -0.00962089       0.02226769      -0.19890394      -1.32230974       7.94795339      -2.00628330
Pb       7.49185704       8.15553340       4.14444993      -0.10148276      -0.30093606       0.13609353      -0.96835467      -1.36633810       0.61410726
I        4.54406297       1.94660090       2.20236283      -0.18165568      -0.09606363       0.14800308      -0.31026081      -3.21991447       5.21907375
I        1.41259228       6.20059760       1.87323168      -0.03621449       0.18506883       0.20267854       2.52851522       0.57775375      -2.35778776
I        4.55784165       1.34607767       6.53261190      -0.20569560       0.06290636       0.09986731       0.37258179       3.31002240       1.00155736
I        1.35764786       7.42509921       6.39634886       0.01493278       0.14787756      -0.28299590       1.38533054      -0.41326423      -0.15589758
I        5.25371355       5.45642422       4.50221742       0.32044957       0.29287878      -0.09751164      -0.02361724      -1.81132152       1.33187681
I        0.61641893       3.36504763       7.62798889       0.17300018      -0.55061793       0.22707189      -1.46283659       0.13156574      -2.19016192
I        5.36102119      10.19498792       5.34591329      -0.01402285      -0.11941386       0.10428766      -1.16395379      -0.78126481      -2.39351487
I        0.04351021      14.11861282       5.25087000       0.01917288       0.15286006       0.25549468       2.72891826      -0.69985364      -1.47240757
I        5.54190084       8.97374936       1.69601552       0.06675910      -0.05561604      -0.55577713      -3.80659413      -4.02907425       0.91621784
I        0.81716720      14.12077974       1.05314502       0.02186116      -0.08546929       0.00895801       2.86389027      -1.04737347      -0.91773953
I        3.99332719      13.27591498       8.50735738       0.26570197       0.27176269      -0.18468786       0.30594090       2.12808858       2.07909603
I        1.41494713      10.45167088       3.08339109       0.02359039       0.20498503       0.03238741       2.21797258       2.49441204      -0.13871271
I       12.49000045       1.60892007       2.63626181      -0.15226245       0.20055237       0.12288986      -1.76441979       0.19709779      -0.60925677
I        9.80918483       6.30085033       2.37241100      -0.02082558       0.16426595       0.12154916      -0.01459532      -1.62078259      -2.23169286
I       12.07615419       2.76473158       6.85647771       0.18899599       0.03162552      -0.04308211      -0.31202234      -1.63503694       3.22231035
I        9.20935139       7.26823775       6.78880815       0.11713270       0.15663957      -0.20048969      -0.18776732      -0.36820429      -2.78625278
I       13.60645326       5.50608882       4.39750292       0.03354560       0.03770902       0.12825453       0.97961017      -2.49693529      -1.54572227
I        7.83777857       3.38112524       8.64774953      -0.03977362       0.48263927      -0.08419249       0.93599506       2.17000872      -1.04665183
I       13.77995948       9.79569263       6.63271255      -0.39171671      -0.28575023      -0.17696972       1.03541909      -2.73458221      -0.67055721
I        8.49354061      14.27257645       5.46570370      -0.17221896       0.23748122       0.45885808       1.56412419      -0.75414708      -1.03463825
I       13.37839773       9.48186934       2.14995739      -0.00165854      -0.20521037       0.28114971       3.47470327       1.70693218      -1.45527800
I        8.51090922      14.27403607       1.53996432      -0.35163102       0.00331833       0.11226669      -0.96052496      -1.53945423       0.15368367
I       11.87709534      13.11924879       8.95269142      -0.07081988       0.36142144      -0.16579677       0.91306069      -4.10605871      -1.20436238
I        9.55730497      10.47646904       3.55982095      -0.02088422       0.03505421       0.13376375       0.15755743      -0.72088408       1.00447893
Cs       0.19183179       3.34623169      12.91496764       0.04425882      -0.04834460      -0.03782348       0.70231839      -0.56808707      -2.81569142
Cs       4.71474543       4.62804779       0.09235326       0.10253404       0.15094027      -0.13498531      -3.07489910      -1.71658131       2.09366326
Cs       1.10558531      11.23778867       8.50705389      -0.05546282      -0.13657310      -0.21207979      -1.03248386      -1.82905947      -0.04303926
Cs       4.31146501      14.69869751      12.24937421      -0.02802089      -0.15943591       0.11341716       0.76039149      -2.76656490      -1.16420253
Cs       8.77474959       3.74256823      13.27812365       0.03672513       0.09343614      -0.08338826      -1.39432237       1.26035685      -1.54333140
Cs      12.72052938       5.17678392       0.46265352       0.19546777       0.02816356      -0.12137557      -3.61228541       0.69375007       2.06365222
Cs       7.80746688      11.28165722       8.60302816       0.07977381      -0.00326373      -0.15787498       1.95927480       2.36298819      -4.71285050
Cs      12.44713702      14.52534791      13.10351810      -0.04464263      -0.16398513      -0.00893406      -2.38629318      -0.34701297       1.32329176
Pb       2.71333206      15.34050672      -1.18442779       0.23449851      -0.01785242      -0.31901158       3.71331673      -2.61313735      -1.53209746
Pb       6.75829553      15.52520882      -1.03490019       0.27479403      -0.01144376       0.19171219       0.12983490       0.22614391      -1.14919556
Pb       3.42898365       8.61695691      12.68800274       0.24888392       0.02703964      -0.16344060       1.92473279       2.03094834      -2.62575132
Pb      31.30862840       8.82162799      13.29040966      -0.21729535      -0.10090030       0.01578771       4.89034575      -1.00857005       0.49439104
Pb      10.55089165      15.10911579      -0.42823549       0.31992903       0.05616978      -0.02415772      -3.13453930      -2.70866732      -0.12655150
Pb      14.48430388      14.86583829      -0.27625246      -0.16921783      -0.16798063       0.03481584       3.90282312       1.17450716       5.42968453
Pb      11.52964612       8.74414919      12.59171641       0.27914953      -0.13708964       0.44067587      -4.77049532       5.15510965       2.06478896
Pb       7.55654319       8.56227194      12.07000361      -0.32661036       0.02490451       0.42037790       3.14302762       2.60748215      -0.44053023
I        4.10514569       1.86344820      10.97864569      -0.08173057       0.35709957       0.39545712       1.80615797      -0.97560552      -2.68871113
I        1.33252336       6.82578049      10.74350505       0.28260028       0.11645482       0.15995200       5.41546372       1.27242219      -0.54143248
I        4.43338515       2.79597334      15.27025763       0.03066417       0.25251938      -0.76689802       0.65367422      -2.55712945      -1.06614768
I        1.41410234       7.88598429      15.06192827      -0.00106260       0.13245479       0.06146879       0.13187718       0.55224705      -0.09008942
I        5.65998905       6.15594475      13.00269582      -0.21053716      -0.02715168       0.05724167       1.54763318       0.08622894      -1.15791109
I        0.32150264       4.49317251      17.11733612      -0.35504643      -0.29291800      -0.11171779       1.77108873       0.41370779       1.17526940
I        6.01825967      10.54984509      14.10150749      -0.42442817      -0.05894718      -0.18162311       2.45918076       3.18770951       0.71276918
I        0.38155895      14.82600423      13.65648772       0.34961842       0.28543277       0.32346212       1.16303981       1.24481828       1.81772969
I        5.05609309       8.50025340       9.61138110       0.14879577       0.16683683       0.02655532      -1.67279917      -1.08124774       2.72678203
I        0.29669790      14.73952925       9.53416070      -0.36498505      -0.02874143       0.13629820      -1.06099011      -0.89359789       0.54710015
I        4.98483300      12.83555286      -1.16477671      -0.27175007      -0.08668005       0.05233893      -4.19769299      -0.36384432      -0.29992543
I        1.57677863      11.33536182      12.07200326       0.30628000      -0.10810038       0.08605269       1.32873476       2.19173887       1.01522708
I       12.11741854       2.68795609      11.14247774       0.31454422       0.28067180      -0.02879101      -0.70122390       3.20213366      -0.34508213
I        9.90980326       7.05391138      10.57753856       0.14744056      -0.22219292      -0.16704615       0.66430580       3.47575951       1.35286639
I       12.21383753       2.82165269      15.44797668       0.09181996      -0.00378138      -0.08094939      -1.71384962       0.74738747       2.22588031
I        9.13747374       7.54494259      14.77803835       0.33107570       0.15240503      -0.21533200      -5.19017044       0.09141786      -1.36101036
I       13.78323701       6.18009235      13.24517024      -0.44194899      -0.01621501       0.04892435       5.38716373       2.53573520      -0.62589614
I        7.94502260       4.06452172      16.68411885       0.17776664       0.08668194       0.21867933      -1.16924764      -4.90607101      -0.26361331
I       13.57015906      10.14150173      15.03402917      -0.22019854       0.10857479      -0.13929451       0.90118420       2.47271655      -3.42417671
I        8.57305523      15.52660591      14.08653555      -0.18807362      -0.11274357      -0.04020437       0.08931805      -0.61088812      -0.25160053
I       13.89316693       9.76545187      10.38741262      -0.34323436      -0.11950434       0.32124553      -2.82219770       0.65048736       0.23720173
I        7.84863262      14.92496398       9.96791080       0.20832198      -0.18764327      -0.00614633      -0.22552769      -1.09318234       0.37126441
I       12.28365036      12.41061851       0.15059326       0.27890722       0.12950511      -0.20549158      -0.28947645       1.15384972       0.67574055
I        9.65251272      11.22370734      12.42398302      -0.01252853       0.20218355      -0.21338168       2.58002257      -5.27375619      -0.17925839
Cs       1.01388453      17.79093640       2.92057315      -0.02992398       0.02618423      -0.02688420      -2.98779392      -2.42664870      -3.04468522
Cs       5.48571053      21.28260327       7.65883546      -0.07628075       0.16590204      -0.12938162       0.57048004      -0.45124955       2.23996464
Cs       0.86268890      25.80370113      -2.27271411      -0.01781233      -0.07220092      -0.05046137       1.22184445       2.62286876       0.78967513
Cs       5.35133187      27.52488368       2.70074133      -0.00023001      -0.06152225      -0.23658421       0.41082597      -2.32563724       0.89739024
Cs       9.74198303      18.43784554       3.56158277      -0.11505429      -0.18047676      -0.13287880      -4.37078313      -0.74721414      -0.10305475
Cs      12.25114140      20.30495682       7.07947914       0.17525948      -0.06799002       0.12002733      -0.19780117      -3.88429865      -0.46912280
Cs       9.55186757      24.62121946      -2.13237700       0.12963127      -0.08142171       0.07879801      -1.27433459       1.96261760      -1.09456578
Cs      12.26945704      29.44515256       3.14604727      -0.08055641      -0.17385954      -0.13061471      -2.11199571       1.35537115      -1.32961009
Pb       2.35328805      30.36521548       6.23790160      -0.32870026       0.33704110      -0.27011240      -2.47795835      -0.07344787      -0.37310637
Pb       6.34757312      30.68086697       6.42257278       0.19295864      -0.40529515      -0.02227594      -1.34315188       4.33314511      -0.75908451
Pb       3.85437265      22.86165492       2.56465965       0.12203832       0.07079843      -0.10402498      -0.15472809       2.13070566      -5.46336646
Pb      31.55652270      22.64972693       3.00413093      -0.07356465       0.46863002       0.28018742      -2.57211825      -1.34221364      -2.18006361
Pb      10.36167059      31.43154636       6.44783095       0.01960586      -0.48721408       0.09344657      -2.27698490       1.05391430      -1.58943312
Pb      14.57658444      31.27753132       6.39894344      -0.31571245      -0.25717096       0.17557536      -3.43193889       1.45192312      -4.09247870
Pb      11.68546493      23.23736438       2.63274932       0.45242141       0.08386006      -0.55546085       3.84490621       2.36675931      -2.20101926
Pb       7.93476281      23.02124882       2.86445167      -0.28391527      -0.11154018      -0.38821263      -0.14965131      -3.55966691      -2.16518885
I        4.62765804      16.98245957       0.87096473      -0.30133875      -0.17775984      -0.26238114      -1.38073077       0.09512772       0.34441875
I        2.30151322      20.78789817       0.67873709      -0.20529350       0.07151454       0.02975660       3.55571410       0.18348907      -0.48759023
I        4.24547572      16.35825733       4.86760935       0.00411852      -0.00683234       0.01580113       0.53231677       0.34942905      -2.79026271
I        1.43530015      22.27839868       4.62040143       0.35089594      -0.33094511       0.74069746      -1.28942233      -3.40940389       0.33334114
I        6.00365524      20.41955201       3.29449776       0.04849502       0.08263381       0.07080871      -0.68980743      -2.73053975       0.33837043
I        0.08635904      18.20390988       6.78107696      -0.07579592       0.12772041       0.03120594      -0.91245847       0.78560516      -1.10025636
I        5.93790319      24.35344400       4.81032818      -0.25330921       0.19465457       0.16352821       2.36667344      -0.28703846       3.13395490
I        0.50372896      29.19182874       3.73665920       0.16477970      -0.40363566      -0.17165699       3.08182537      -1.36176376      -0.76499690
I        6.01761176      24.21737259       0.51140486       0.09918396      -0.08885908      -0.02858973      -1.83233562      -0.13194478      -1.85401781
I        0.56890132      28.96016972      -0.44608476      -0.26368223      -0.10874014      -0.11251230       2.22500770       1.25425921      -0.24638345
I        4.30521117      28.00333326       6.77487699      -0.00057411      -0.02391661      -0.01312519      -0.64268733       0.63043498       2.77382895
I        1.97728870      25.34742252       1.53629760      -0.09715106      -0.27541077       0.13292368       3.34520223       2.25768302       0.66222463
I       12.57193033      16.51225203       1.75737627       0.15567890       0.00517737       0.10302764      -0.74396901       0.65063868      -2.47256519
I        9.84558953      21.15208835       0.89660315       0.06049229       0.15807144       0.01882868       1.60965997      -1.74752323       2.44397874
I       12.65325420      17.02670410       5.61246977      -0.38404502      -0.41523990       0.44457383       1.95104068      -2.87998554       0.83334806
I       10.05685681      23.08479301       5.42394686      -0.04922702      -0.40620454       0.14382082       0.53652628      -3.98963027       0.99262231
I       13.43814915      20.25414069       3.07906817      -0.16935748       0.00829456       0.17199201      -0.08348447      -0.29469765      -3.51613369
I        8.07294575      18.34834712       7.29918321       0.23189743       0.09269861      -0.07402362      -1.11636799       0.87226858      -1.11113932
I       14.05853965      25.18370557       3.86287337      -0.14615372      -0.05843023       0.08604730      -0.70243768       0.33817692      -0.27987285
I        8.50134211      29.21306378       4.36580168       0.07752215       0.14451300       0.18546206       4.44574008       0.34366825       0.94052395
I       14.03001511      22.67554037      -0.34299631      -0.35024414       0.05824226       0.01661100       1.10942283      -0.09256397      -1.01052662
I        8.49334716      29.75365277       0.52602586       0.05464413      -0.15180410      -0.10553562       3.32763464       1.58191198      -3.45164863
I       12.39012757      28.93961142       7.00813505      -0.01786969      -0.29468868      -0.19785631      -1.83651949      -0.25073296      -0.67807037
I        9.71820531      25.65150470       2.01511649       0.16674893       0.04021389      -0.11110519       4.29403409      -0.48234564      -0.49040176
Cs      -0.12890180      18.46784723      11.04785770       0.27336319      -0.01257507      -0.02323428      -2.37862861      -1.08922425      -3.53889315
Cs       5.88459947      20.57429070      -1.60323518      -0.01949416      -0.00776984      -0.00712854       2.48987644      -2.05303018      -1.29514141
Cs       1.12970833      25.66089488       6.67772954      -0.02257608       0.02898349      -0.12219223       5.26900593      -3.39602795      -1.26515001
Cs       5.10560258      28.87420695      11.06101176      -0.00914044      -0.09492344      -0.04758726       0.85980163       2.81526056      -2.44816534
Cs       8.04686636      17.92667933      12.15725119       0.13921776       0.34549813      -0.00850433       0.78844950       1.32996906       0.78994122
Cs      14.08830164      18.52611873      -1.05606435      -0.54723329       0.44094750      -0.15404314      -1.54225931       1.72066301       0.59194747
Cs       9.08443565      26.61967499       6.70902895      -0.03567067      -0.06733833       0.21987050      -0.25856570      -3.16341180      -2.48249175
Cs      11.92824969      29.54870287      11.01823202       0.17074769      -0.08806957      -0.03934386       1.56215528      -0.54260549      -2.15531641
Pb       2.65416060      30.35106443      -2.66333649      -0.14396378      -0.36406295       0.42207008       2.51034792      -2.82224512       1.13934213
Pb       6.50467709      29.99859985      -2.00434314       0.30388488      -0.04682321       0.00607946       2.21855923       0.48873207      -1.32883594
Pb       3.41551269      24.19329858      11.18375553       0.45091992      -0.19849430      -0.20166974       2.29476889       0.69923356       0.41901360
Pb      31.20104457      23.82578084      11.84310115      -0.24810277       0.39866683      -0.27728846       1.69660095      -2.89182386      -0.97901502
Pb      10.60069745      30.06025085      -2.22671865      -0.15013366       0.17431836       0.60266166      -1.77117207      -0.66825266       1.03295630
Pb      14.59568660      29.89328077      -1.72235547      -0.04878539       0.24179601      -0.02189277      -1.34659471       1.74036058       0.03935709
Pb      11.65329081      23.69159732      11.00039791      -0.22079689      -0.12605604       0.05869686      -5.48614710       2.83551330       2.75755017
Pb       7.56910690      23.83632454      11.41899808       0.12205461       0.02496934      -0.47216706      -1.31778681       0.55268525       1.48427722
I        4.11899378      17.77314233       9.17234566      -0.17403869      -0.26990645      -0.10416624      -0.23052647       4.43847499      -0.77475751
I        1.64733536      22.43542781       8.99461323      -0.03347277      -0.09216949       0.03487126      -0.40656023      -1.08632308      -1.42617060
I        4.49690886      18.27714775      13.75135024      -0.17235653       0.05386248      -0.18639832      -1.48163123       2.09344244       2.98198188
I        1.28813146      23.22461780      13.34315630       0.00409271      -0.06330242       0.41106393      -6.32516347      -2.11176944      -0.68611340
I        5.40964952      21.44494394      11.24788250      -0.00210052      -0.06289437       0.14654570       2.94593321       0.90794285      -0.82072687
I        0.01876639      19.10127764      14.98583875       0.10458846      -0.03016022       0.11810715       2.09116786       1.50072754      -1.34245803
I        5.54502535      25.49217352      13.45959044      -0.11191749      -0.15923061      -0.12644844      -4.30047639       2.77189567       0.50360232
I        0.36645802      30.60601696      11.98139012      -0.02479403       0.08036053       0.21841405      -1.18895320      -1.41973637       0.26119245
I        5.59210794      25.22307438       8.95281011       0.06237626      -0.06943298       0.18479866       3.57208373      -2.76514274      -0.55381346
I       -0.32635303      29.65979692       8.24404681       0.41057136       0.10552893      -0.29539519       0.48384678      -0.83871411      -4.13363873
I        4.36343645      27.51924400      -2.22244747      -0.01716791       0.09839144       0.20833758       1.70650954      -0.36399820      -1.66046563
I        1.48513665      26.44333703      10.50990767      -0.08087848       0.33821411       0.09059563      -0.89862541       1.91298807       0.33178178
I       11.93113109      17.83272936       9.95439639      -0.12025110      -0.60172206      -0.26616230      -1.13014601      -1.34676386       0.18768401
I        9.34311981      21.87788698       9.45415399      -0.31656409      -0.02167732      -0.03987034       0.43486313       0.72180109      -2.04318200
I       12.28247304      18.42162415      14.54198436       0.14811579      -0.23103696      -0.00541798       0.50514747      -0.37593549       0.76244338
I        9.65840363      22.49783508      13.33084613       0.01911054       0.04656827       0.47549356      -0.81412825      -1.05525621       0.99884138
I       13.52016292      21.17123574      11.83581515       0.19893910       0.11305348      -0.03616653      -0.98455216      -1.33378024      -3.02139610
I        8.77275609      19.47715042      16.47714941      -0.41407612       0.20452370      -0.20937493       0.97439822       2.19307488      -3.11152154
I       13.23716147      25.70738035      12.58962241       0.38674816       0.19325332       0.12033309       2.00966381       0.93114302      -0.38184046
I        8.23914451      29.70278946      13.42143749      -0.01807504      -0.17384871      -0.33349979       0.89339281      -3.00325463      -1.21216062
I       13.56587623      23.87365890       8.29001323       0.04361134       0.08310571      -0.10560227      -0.31576745      -2.48335505       0.45279697
I        8.54230832      30.10807671       8.93115929      -0.19029062      -0.06022835      -0.00645654       0.65533276      -3.93649265      -1.35154114
I       12.62839398      27.73290180      -0.95933627      -0.28353103      -0.36962684      -0.13713386       0.66456321      -0.31122085       5.07080548
I        9.67027089      26.46938912      11.09025403      -0.11448976      -0.29094684      -0.13549535       2.19128330      -1.75712962      -1.94901204
Cs      17.40880157       3.17434212       4.09370576      -0.05496288       0.11556426       0.10731559       3.43603737      -1.72575458      -0.73660472
Cs      20.65634162       5.36501724       8.45521459      -0.05814870       0.03107120       0.08591408       4.52983730       0.19327828      -4.12621559
Cs      17.13848896      10.16628478      -0.08652447      -0.01042453      -0.27063028       0.03496586       2.51267698       1.61547615      -2.21960362
Cs      20.44664657      13.34944731       4.46136118       0.06745946      -0.03714418      -0.06504833      -0.17565281      -1.04651608       1.22315681
Cs      24.71964799       3.17315405       4.78780760       0.02736970       0.08448033      -0.04364300      -0.30846803       2.85139403      -2.82749804
Cs      29.67101648       5.89836246       8.25473461      -0.18128095       0.16345174       0.18598202      -3.38828880       1.21329217       1.78678913
Cs      25.63845506       9.58229945       0.26898690      -0.15567053      -0.08440606      -0.09920144       2.11060463      -0.01933655       1.87988654
Cs      28.79496712      12.47583816       4.03481174       0.02772282       0.06560597      -0.01571482      -0.31061313       0.35799467       1.24936651
Pb      18.23402784      15.89790235       8.24305073      -0.13950468       0.49067578       0.10696013       1.24959261       0.31117135       2.60227223
Pb      22.15274928      16.03227407       7.97393363      -0.18804004       0.14180531       0.36152668       3.44203085       0.06456744      -1.71123712
Pb      19.42463368       8.15575068       4.25237521      -0.02544847      -0.03719874      -0.40210987       3.41164475       4.50631021       4.92871263
Pb      15.40018485       8.20986700       4.39444920       0.24078336      -0.08029299      -0.33336030       1.73186667      -3.95077625      -3.04896271
Pb      26.13314180      15.56291629       8.34299118      -0.83515784       0.40568338      -0.25211612       2.66223239      -2.05776551      -1.71220007
Pb      29.70921902      15.84465813       8.11440951       0.52169950      -0.26988792      -0.06084518       2.18801464       1.57525481      -2.30157547
Pb      27.18331775       7.96686515       4.21792556      -0.21517139       0.11075162       0.27610044      -2.79043624      -1.03456074       1.54448724
Pb      23.26989770       8.12269546       4.20617916       0.03602099      -0.21486275      -0.30734642       1.94592638       2.82013880      -1.69828561
I       21.06922461       2.00143348       2.59062150      -0.52957289      -0.13247454       0.17932921      -1.55152915       3.22525417       2.05946652
I       17.28390536       6.92140795       1.89578319       0.32807795       0.18215750       0.41631587       1.51264714       0.02495615       1.08627916
I       20.37682868       1.83703482       6.79696511      -0.12696621      -0.05051372       0.10278413      -1.56936298      -2.45631000       2.22327699
I       17.65569873       6.74195058       6.56381511      -0.10347956       0.21471152      -0.01386492       0.29413395       1.03569820       1.62365173
I       21.46162795       5.42848714       4.57017591      -0.27794092       0.21197087      -0.07784583       0.37790801      -2.60368645      -4.18156053
I       16.69884684       3.52638074       8.68607316      -0.24195647       0.57272498      -0.20440853      -0.33998815       1.70292916      -0.55254011
I       21.77302947       9.85657864       6.12582105      -0.55189965       0.02583727       0.08762580       4.06569262       0.46184388       1.04511411
I       16.17526737      14.11578976       6.30989130      -0.07965057      -0.05219304       0.10518161      -0.61953078       5.19087313       0.60994491
I       21.51716689       8.82860223       1.62721631      -0.21951162      -0.06791835       0.21853380      -3.75674316       0.52142232       1.54235620
I       16.44833663      13.95029221       2.06696270       0.19712482       0.12641801      -0.14887952       0.42228090       0.95782558       1.40027273
I       19.96849448      13.42660439       8.59661348       0.28141488      -0.29838054       0.07750343       3.01411293       0.47653300      -4.15989139
I       17.39919449      10.80691238       4.13694784       0.20764421      -0.29177299       0.09434785       1.11615107       3.18934726       2.24719556
I       28.36507439       2.22884291       2.51133901       0.06391448      -0.37268809      -0.10996375       2.84814949       1.14137229      -1.77527930
I       25.21445777       6.73135929       1.85715536       0.36553191       0.07946512       0.02420914       1.55709052       3.58142578       0.63935614