320
Lattice="25.356093371687486 -0.1065490082268892 -0.19187677835240669 0.07755788227136919 25.376386568457004 0.27590338859444424 0.1691801122122475 -0.29781874292918886 25.404906270035514" Properties=species:S:1:pos:R:3:forces:R:3:momenta:R:3 energy=-976.8402723866461 stress="0.0 0.0 0.0 0.0 0.0 0.0 0.0 0.0 0.0" pbc="T T T"
Cs      13.55150047       9.25828921       5.25118658       0.10369351      -0.06665663       0.02493912       0.27026671       1.47271212      -0.41823478
Cs       7.84887276       2.54434265       5.77374995      -0.05702641       0.22574631      -0.06069549      -1.79684296       0.30441691      -1.68024497
Cs       6.39378182       3.44752829      12.11725563       0.15665568      -0.07378573       0.04646351       1.32225831      -0.34114311       1.85582304
Cs      12.79569988       9.64371153      11.97861126       0.11631812       0.03780233       0.00698737       0.57208284       0.12391520       0.50604873
Cs      13.06494049       3.20476975      11.83448447      -0.00437571       0.09871625      -0.02632294       2.00696424      -0.19240140       1.36327815
Cs       6.57144879       9.61691602      11.98287506       0.12889348       0.01977078      -0.09266985      -0.50157870      -0.85236327       1.01716731
Cs       7.25903151       8.96771516       5.72042137      -0.07084268       0.02314384      -0.00781087       0.17409891      -1.30664326      -1.76586182
Cs      13.77148569       2.53298048       5.82101207       0.08661348      -0.08818607      -0.04860129      -1.04929335       3.12096381      -2.15919799
Pb       4.02627669      25.29975654       9.20792642      -0.13072046       0.02651152      -0.00253877       1.83602330       0.15665750      -3.60304224
Pb      10.40623835       6.24313143       8.67070540      -0.27469288      -0.16881291       0.20972592       0.32432910       0.91523887       0.92108506
Pb       3.76295562       5.96504224       8.67699584       0.21739624       0.19467519      -0.08334906      -0.38105484      -0.39253286       2.09042359
Pb      10.26949096      25.10651531       8.99299594       0.12297469       0.05002542       0.13268237      -2.49674551      -0.87560455       2.83666341
Pb       3.77364739      25.22678769       2.87875720      -0.06193527       0.10290358      -0.16487993      -1.15319507       0.78230333      -0.67196814
Pb      10.16410184       6.18134233       2.35391465      -0.08269442       0.18043700      -0.17576746       0.51378122      -0.79236694      -0.91024178
Pb       3.89756424       6.39455247       2.37765572      -0.27206557      -0.24641646      -0.06951586      -1.77221502       1.55148942      -3.79695100
Pb      10.17235104      25.47789459       2.65206044       0.16562508      -0.21239792       0.21761138      -0.63553184      -1.39353305      -1.13084601
I        2.84356531       3.00573668       9.51316836       0.19744294      -0.09632860      -0.09593561       1.52740734      -1.48674785       1.06300148
I        9.73227142       9.28978549       9.24254700      -0.04500454       0.22418362       0.07830169       2.00211706       1.80709748       1.28719162
I       16.96052264       9.30208496       8.18674849       0.09372708       0.01126180      -0.03917665       1.18423113      -2.82773585       0.10298617
I       10.94495677       2.96865353       8.46358891      -0.00712696       0.01350462      -0.04260370      -2.97804699       0.57925509      -0.17818299
I       13.44338011       6.93881970       9.14426690      -0.02831632      -0.07734246       0.02925300       2.31070501       1.00122936       0.03457249
I        7.08244631      13.01360892       9.25115375       0.06901113      -0.15508678      -0.04146257      -1.00454678      -1.93152383       0.85524067
I        7.10009028       5.49139272       8.49062552      -0.20201651       0.04106812      -0.03362661      -2.33755251      -0.91925533      -1.24044958
I       13.44222962      24.49227424       8.59126095      -0.10788614       0.02181314       0.02620252      -0.37175243       0.92844373       0.74107107
I       16.99069036       9.43986284       2.77309737       0.14674334      -0.05182285       0.10428327      -0.96553093      -1.10912211       0.24606266
I       10.86674352       3.11149622       3.17535648      -0.05454733      -0.23949868      -0.03392580       2.49229485       0.04315011       0.23090436
I        3.48683749       3.00507599      14.65555851       0.04464810      -0.12220230       0.03720792      -1.22868880      -0.63979020       1.46948545
I        9.52033195       9.44960891      14.51759425       0.14288414      -0.11592723       0.10740886       1.20486404      -0.50481883      -0.30807074
I        7.07181180       5.96090488      15.80123355       0.06505171      -0.05220385      -0.13876023       0.60250625       0.19322646       0.04656747
I       13.57324682      24.68939076      16.04946667      -0.21266428       0.05918578      -0.07974828      -1.05614214       0.69430408      -0.44414794
I       13.28897553       6.90491731       1.80193086      -0.08569005      -0.00935013       0.00002575       0.86429638       0.96375239      -0.06294847
I        7.04941142      13.13993455       2.26994748       0.12663333       0.02819883      -0.06451589      -0.53436979       1.31568447       1.08646461
I        3.19973998      11.39572518      12.01793005       0.01628826       0.06614652       0.23481504       1.63764888       1.01454275      -2.41340020
I        9.74939532       5.88109210      11.99077592       0.10541899      -0.04372700       0.06238420       2.00812867       1.74594986      -0.43264394
I       16.90552449       0.01248357       5.54606621      -0.02103337       0.06687559      -0.09318694      -0.49120129      -0.63124972      -1.23708945
I       10.40532347       6.84090069       5.56273402       0.09856824      -0.03410563       0.04105040      -0.70819416      -0.09528788       1.34279711
I        3.29431503       5.83836441       5.49695188       0.05356800      -0.07104396       0.14245291       1.63833355       1.54363754       1.30702191
I       10.13183438      11.88678255       5.65745255      -0.02946550       0.08148741      -0.07912995      -0.14494875      -1.68060729       0.27412377
I       17.09665837       6.72407820      12.01658514      -0.05233403      -0.01921028      -0.32473961      -1.39501732      -0.22128872      -0.97240709
I       10.63992263       0.19760162      11.98314748       0.02590096      -0.05325213      -0.05456028       1.81476137      -0.21105143      -0.72334244
Cs      13.90165606       8.97155993      18.32983946       0.02691908       0.08979282       0.01509567       0.44333439       0.18953904       1.50196438
Cs       7.45030880       3.14180976      18.12892880       0.02557511      -0.22531802       0.10282331       0.62329417       1.53400836       1.66501410
Cs       6.56746013       2.79685042      24.59384270       0.05796324       0.11850465       0.13258635      -2.07942730       1.19670903      -0.20730273
Cs      12.94229605       9.50053961      24.56021274      -0.00010290       0.00400186      -0.04834628       0.95576678      -0.91162165      -0.16659546
Cs      13.29279945       3.37967488      24.50041078      -0.01182333       0.02530541      -0.03255315      -0.77307421       0.27253908      -1.28989343
Cs       7.10087594       9.63837557      24.50760289      -0.08144846      -0.11703481       0.04415597      -0.68614095      -0.52300684      -1.08179151
Cs       7.71107816       8.96861623      18.38316347      -0.07743231       0.02132475       0.08432628       0.67036136       1.71850928       0.77883532
Cs      13.51993968       2.57114034      18.36718902       0.02231208      -0.01640391      -0.09900982       2.59357032      -2.52137783       1.87537576
Pb       3.72408912      25.00105538      21.68085622       0.20152839       0.19560635       0.03202226      -0.01824675       1.08517155      -1.91582234
Pb      10.26701226       6.16336881      21.48153796       0.19819024      -0.08467861       0.21819514      -0.10968328      -1.42400890      -0.09905513
Pb       3.98621809       6.10918042      21.47173779      -0.03431711      -0.11658020       0.03406885      -3.66611956      -1.47679308       1.17550235
Pb      10.16943192      25.19158124      21.75066480       0.04535475       0.19010123      -0.03216761      -2.39653999       2.32583946      -0.91090482
Pb       3.83837639      25.04229015      15.40564306       0.17051262       0.03891780      -0.03436857      -2.52471842      -0.79996047      -0.52075869
Pb      10.34278137       6.08230088      15.17170909       0.05954991       0.31387627      -0.20231657      -0.01856519       1.36665723       1.91148966
Pb       4.03148788       6.28671204      15.01174459      -0.39268324      -0.13724535       0.11745619       1.20075263      -0.50681180       1.25536374
Pb      10.24294244      25.06704967      15.42085761       0.13041791      -0.03905123      -0.20222174       0.65935714       1.75943970       0.43625943
I        3.32437372       3.00309157      21.79037292      -0.06231269      -0.20134488      -0.04361882       0.81108740      -1.28884346      -1.04640943
I       10.06880149       9.30206078      21.87999954      -0.08665263       0.17430641       0.03614614       1.98950651      -0.55657378       0.91928515
I       16.81414692       9.35511038      20.86684655       0.05230373      -0.12664835       0.06008979       0.11538670       0.67459116       1.40011240
I       10.74607693       2.98071604      21.14028871      -0.03933731      -0.07204700      -0.08049669      -0.83736764      -1.29243072       0.50628893
I       13.57159237       6.43562398      21.82433527      -0.03415122       0.03888857       0.13037157       0.05606943      -2.75156417       2.94032298
I        7.21986879      12.97043198      21.94976996      -0.20434506      -0.04798132      -0.03462155      -2.33346353      -0.14522041      -0.02299520
I        7.26218085       5.56771866      21.41307680      -0.25008476      -0.01781965      -0.22622024       1.23823584       0.59091738      -0.03769237
I       13.47431409      25.08577269      21.04988918      -0.00378184      -0.08893925       0.12519171      -0.86070024      -0.33731599       0.64515684
I       17.02916089       9.37532261      15.61814364       0.04678873      -0.25802914       0.05767626       1.01929734       1.41462174      -0.06608098
I       10.66595258       3.01896653      15.16153646       0.09550687       0.12716371       0.23322499       0.12642313      -1.34932495       1.47040101
I        3.19170664       3.05767047       1.87827446       0.07636944       0.21843715       0.13353191       0.93191670      -2.03315559       1.56744451
I        9.70238836       9.31962797       1.88116164       0.02299926       0.28953730       0.02885944      -1.15736861       1.19358568       0.78505235
I        6.98341268       5.59542529       2.65743429      -0.10051394      -0.06399795       0.20737869       1.03938080      -0.51858541       1.12241257
I       13.41955032      24.71536616       2.86197161      -0.21499186      -0.06298368       0.03737702       1.21493940      -2.64837758      -0.81396845
I       13.42307858       6.84865496      14.62762295      -0.25214503      -0.05381452       0.00679551      -1.96615121       2.04714200      -0.35445961
I        7.16662180      13.25045914      14.59721445      -0.12891510      -0.06831428      -0.02094595       1.62539598      -1.45114407       0.96894910
I        3.61864114      11.79339793      24.82565939      -0.00562964      -0.02166450      -0.18435921       0.23019140       0.02204268      -0.11891421
I        9.77503144       5.57533436      24.64338910       0.07628979      -0.11838390       0.16885560      -1.88329305      -0.38716744       0.92828159
I       17.28687689       0.80807995      18.23393155      -0.12229218      -0.10104837       0.25615410      -0.91420651      -1.73721293      -0.97545681
I       10.88554412       6.67112579      18.50303282      -0.11222487      -0.09370726      -0.51440222       1.50286662      -0.07983537      -0.46932021
I        3.77178748       5.69630642      18.21798715      -0.04799089      -0.01427761       0.09604089      -0.44848525      -0.74089265      -0.18345099
I       10.00758263      12.12671810      18.30739451      -0.08181190       0.03599005      -0.11616547       0.07151905      -3.62746700       1.29288659
I       17.31445127       6.69803420      24.39899898      -0.09751055      -0.14074526       0.39285838      -2.34218960       0.21347068       1.52006431
I       10.54887252       0.50152300      24.73304151       0.04568124      -0.22882815      -0.10839654       1.34676854      -0.94857613       1.08544070
Cs      13.91166269      21.72678940       5.67340932      -0.04729951       0.14943262      -0.01059285      -0.31595242       1.36554141      -0.49699062
Cs       7.62026424      15.17073380       5.69222523      -0.03052318      -0.02379914       0.16607330       2.26384423       0.54147542      -0.74768471
Cs       6.71094677      16.09638073      11.60015172       0.07550170       0.03373098       0.09692055       1.46536232      -0.68634147      -0.09523465
Cs      12.77707322      22.46986296      12.09578658       0.06484948      -0.04790752       0.00095048      -2.37548877      -1.18392801       0.68915032
Cs      13.48237276      16.33954129      12.24227047      -0.10398042      -0.03863328       0.00219526      -0.62817911       0.78593843      -0.27440292
Cs       6.76539201      22.36617730      12.17784860      -0.03293551       0.05217340       0.03637265       0.35050944       0.31881985       2.45804702
Cs       7.26955213      21.00646155       5.55820752       0.08184392       0.14981272       0.07080782       0.38415333      -1.80081754      -1.01830044
Cs      13.76842082      15.45332556       5.69001039      -0.06939433      -0.06968692      -0.02951480      -2.36172063      -0.08573569       0.86295400
Pb       3.74500486      12.38770074       9.06089318       0.19708776       0.12828660      -0.03898507      -1.77539287       1.62915816      -0.18115148
Pb      10.34099996      18.80780940       9.00743832      -0.06031355       0.07312888      -0.11513176       1.54910980       1.90044404       2.21441476
Pb       3.98050110      19.05465725       9.04562322      -0.06787831      -0.42909578      -0.12601076       1.21191355       0.93613031      -1.32898603
Pb      10.45447846      12.52019270       8.79619092      -0.29967886       0.03295243       0.14505315      -0.71755691       1.52818437       2.47438951
Pb       3.85746764      12.61210978       2.65479151      -0.39801010       0.11277647       0.08787885       3.40085578       2.80620839       0.07911937
Pb      10.05165959      19.08102742       2.61388304       0.07726622      -0.20854631      -0.07206483      -0.96918735       2.54593937      -1.44130018
Pb       3.89772358      18.89003133       2.46967006      -0.08510279      -0.08647717       0.15346583       0.26315696       1.47992807      -0.56156460
Pb      10.16876680      12.69187921       2.39483952       0.30369448      -0.12615215      -0.13956231       1.98079941      -1.35904684      -0.84363637
I        3.41804402      15.62192523       9.52578368       0.01174070       0.23955059      -0.05677789       1.20952378       0.98150956       0.37901301
I        9.59369284      21.96057238       9.27775967      -0.03425240       0.07790010       0.07474923      -0.69960431       0.67303197       0.10624769
I       16.88498796      22.04570340       8.19945734       0.04930036      -0.32667344       0.17220790       1.34287692      -0.00907063       0.33936638
I       10.89604032      15.72064416       8.48238960       0.00084394      -0.23243091      -0.04560254       0.55413949      -0.51748121       1.34974881
I       13.37603386      19.29234636       9.71601063       0.21841520       0.08913936      -0.07395959      -2.14833565       1.18722596      -1.20888187
I        7.13044932       0.57571642       9.62457510      -0.29640901      -0.02008673      -0.07230703      -3.84947097      -0.62287801       1.65434462
I        7.12936133      18.06910882       8.77365203      -0.06123150       0.01648369      -0.07339473       1.80453898       0.99054371      -0.06275469
I       13.53741404      11.89856056       8.34965179      -0.25659878      -0.03937232      -0.05313986      -0.18830312       1.29737146      -2.48764672
I       17.29886119      21.94143386       3.00043347      -0.03959150       0.38049757       0.01308195      -0.73331990       0.73776272      -0.04864207
I       10.76392605      15.71105527       2.93950790       0.02530725       0.06888042       0.05113452      -1.06338624      -0.45635326      -1.19612845
I        3.57324174      15.48090879      14.45242220      -0.02694016       0.06884114       0.13902046      -1.54657651      -2.53877733       4.03859338
I        9.72090868      22.06485000      14.93998763       0.02900219      -0.09227964      -0.02719894       0.24138544       2.41252643       1.60803246
I        7.16557425      18.47617753      15.72044733       0.19376491      -0.15356213       0.07251480      -1.51512786      -2.54792964       0.70015047
I       13.45007593      11.99357658      15.72410769      -0.10824863      -0.03421662      -0.04150856       0.79281308       1.86439193       2.11502716
I       13.32053703      19.87560778       2.34175332       0.11575943      -0.19636871      -0.02095051       0.54831538      -0.73705377      -0.45493830
I        6.84198303       0.18199036       2.11751936       0.07813425       0.19334743      -0.09284150      -0.67869806       0.17859194       0.71788049
I        3.04688406      24.56350528      12.33469704       0.21235087      -0.08529902      -0.28765977       0.68694650      -2.95606533      -0.55909230
I       10.18472213      18.57916205      12.12481413      -0.23150769      -0.09132121       0.14353642       0.79536362       0.07704420      -0.10120919
I       17.02435087      13.24406367       5.64822383      -0.06020603      -0.11425008      -0.14933368      -0.59493867      -1.03389675       2.26888749
I       10.86443977      19.10610948       5.73214640      -0.06135709       0.04989262       0.11916362      -0.17129693      -0.39275245       3.07609161
I        3.59799582      18.37509017       5.84466295       0.05630376       0.13514086       0.06915833      -0.96822375      -1.75174587      -0.05445936
I        9.85892279      24.63478734       5.95449707      -0.08064923      -0.04296814      -0.24055374       2.20681639       1.67479946       1.64533294
I       17.36554281      19.35291561      12.27729318      -0.01171324      -0.08659802      -0.34854907      -0.02787630      -1.18847421      -1.49001119
I       11.02196001      13.21877715      12.04611563      -0.00562302      -0.10066691      -0.28046078       0.67661842       0.01235068       0.57355213
Cs      13.91129736      21.89557762      18.47126105       0.08489430      -0.01520601       0.10453486      -0.83439534       0.87390687      -0.18567229
Cs       7.28912171      15.22148278      18.25267547       0.09721132       0.03985110      -0.02665430      -0.66461956       3.29977033       4.53253492
Cs       6.72872930      15.47279804      24.72234839      -0.01915729       0.13404160       0.05875152       1.42654780       1.04640106       1.00460301
Cs      12.91570372      22.16811672      25.11027167      -0.01716864       0.16906764      -0.08918212      -0.68735943      -0.98943464      -0.13424053
Cs      13.36694374      16.16440332      25.10510357      -0.01307881      -0.02606571       0.02222672      -0.65979012      -0.82636950      -0.24370112
Cs       7.00952339      22.49557248      24.67983177      -0.20809699       0.04815492       0.04803068       0.54546568      -0.19571351      -0.68347020
Cs       7.59896659      21.58571589      18.37221196       0.00971111       0.05750048       0.02909834       0.84694187      -1.27809094       0.99373002
Cs      13.82217707      15.23326631      18.10068712      -0.01530734      -0.02507160       0.04424790       1.77738129      -0.26875606      -0.74424480
Pb       4.09786342      12.29082171      21.75318056      -0.31506033       0.20670936      -0.07833150      -0.07468682       0.51337680       0.73959268
Pb      10.40427175      18.81205605      21.66379281      -0.11857343      -0.17763506      -0.01634402       0.95092530       1.95749841       0.43185928
Pb       4.11098019      18.81536491      21.51673227      -0.02652615      -0.20675901       0.21659820       0.32299027      -2.25294324       1.83637584
Pb      10.44820734      12.63794280      21.36816841       0.17078839      -0.09084536       0.06398586      -1.71244710      -2.49210720       0.08366406
Pb       4.03818808      12.37496112      15.25581641       0.02607825       0.03031461      -0.25670537       2.70469440       1.97132313      -1.00307341
Pb      10.39468677      18.78120182      15.37037755      -0.01312405       0.15970496       0.06013362       2.00311538      -1.60632159      -1.11650011
Pb       4.03320500      18.57560205      15.42170084      -0.21053902       0.19609582       0.11627604       0.28309071      -1.22413934       2.15686856
Pb      10.36665604      12.50015651      14.94006276      -0.17080753      -0.10191148       0.20088491      -1.80401339      -1.24556482       1.97922809
I        3.48727929      15.60850010      22.11123139       0.10868195      -0.08480111      -0.06356889      -0.40521049      -0.37635956      -0.01019355
I        9.90257461      22.05322550      22.13177128      -0.00816263      -0.15600717       0.06935784      -0.12367852       1.16230390       1.47668180
I       17.07130771      21.94833557      21.07156650      -0.05445891      -0.06093419       0.09221449       0.30370802      -1.61661226      -0.37229412
I       11.01984827      15.63388317      20.73124165      -0.08685705       0.20646525       0.06898143       0.44895883      -0.10703844      -0.34900165
I       13.37038697      19.32675009      22.19262797       0.25184985       0.08039310       0.15446258       0.34024093      -1.30518890       1.39859950
I        6.90117540       0.34116333      22.11753181       0.08795777      -0.17264257      -0.19241050      -1.93036772       0.05997220       0.56930988
I        7.28257936      18.24662668      20.96008422      -0.24468271       0.00445936      -0.00722357       1.59967346      -2.31204724      -1.77271722
I       13.54789815      11.95758351      21.03458994      -0.17403562      -0.02875752      -0.07057114      -0.75951593       2.02028984       2.30685046
I       17.06993402      21.92580999      16.10169248       0.03003890      -0.09772823      -0.08889127      -1.24672621      -0.27818688      -0.57925656
I       10.86136129      15.77792146      15.37806060       0.05471633      -0.07127108       0.19350106       0.35610522       0.42956137       0.87253531
I        3.06972866      15.78003611       2.00112490       0.11921618       0.02551592       0.02776135       1.38808387      -0.96722842       0.82327033
I        9.22849431      22.09738878       2.42485627       0.13627174       0.13780500      -0.09487332       2.05306534      -1.71842697       2.92728821
I        7.07294291      18.04929301       3.31733475      -0.03598036       0.06875775      -0.09106875      -0.73855154       1.15773199       1.10470666
I       13.64610438      12.32301332       2.57139472      -0.52933785      -0.06593618       0.11376965      -1.72578122      -0.58724799      -1.13053104
I       13.45546703      19.31271636      14.48853148       0.12225688       0.04159338       0.12850781      -2.21394573      -0.51040454      -1.54774719
I        7.13378827       0.10943694      14.63031653      -0.33382828       0.08701473      -0.07749970      -2.42995832      -0.71857777      -0.26290645
I        3.19639547      24.66695478      24.94688266       0.19314788      -0.04191039      -0.09385127       1.02402696       1.03852840       1.42660486
I        9.87270912      18.02235211      24.82022262      -0.00043150       0.08239671      -0.01054312       1.60933643       1.45441455       0.03633542
I       17.04811053      12.98327387      18.31860099       0.04923086       0.04109674       0.23701214      -1.03629866       0.47594750       0.37153513
I       10.90928772      19.64899802      18.60285105      -0.01852335      -0.13366735      -0.31696518       0.18371631       0.56730052       0.10873531
I        3.28523364      18.13052740      18.66510102       0.09134030      -0.11299583      -0.20762133       1.05831294      -2.17093371       0.47710633
I        9.81856548      24.94158562      18.55263480      -0.12107887       0.04879141       0.25707617      -1.83183548       0.47263642       2.03291833
I       17.34051754      19.09762345      24.97165593      -0.17669634      -0.08783996      -0.15801250       0.48412508       0.36643535       1.30070179
I       10.93799720      13.11273035      24.59807669      -0.11241057      -0.14527305       0.23757510      -3.08251623      -0.27122569       0.42825073
Cs       0.98860826       9.00360028       5.70139747       0.01820492       0.00420041      -0.00725397      -1.13171488      -0.77141983       3.05993979
Cs      20.12808540       2.57527310       5.58948489      -0.05441647      -0.03064268      -0.02475604      -1.51793254       1.33877130      -0.61196822
Cs      18.95091697       3.25191488      11.85326825       0.05587801      -0.09207902      -0.04495421       1.80979414      -0.66037270       0.36496535
Cs      -0.47348581       9.40825627      11.88913856       0.15490667      -0.02985884       0.02810629       1.06855065       1.75057790       0.29237332
Cs       0.33501292       4.00903732      12.20452662      -0.05039108      -0.14961621       0.11077578      -1.44150603      -0.29731196      -0.30284126
Cs      19.88413819       9.81377404      12.29830322      -0.26504935       0.00002622      -0.05188934       1.05682942       2.10794699       1.62921697
Cs      19.99186296       8.70192705       5.79858926      -0.17694939      -0.03971486      -0.14754552      -1.87965996      -1.01800935       0.16478775
Cs       1.08253233       2.42196358       5.44134294      -0.14052072       0.09002990       0.08060658      -2.62303038      -0.50715120      -3.05436926
Pb      16.64026948      25.02877531       9.09209939      -0.01814801       0.08488251      -0.01447090       0.62302883       1.71500843       0.86021815
Pb      22.83805456       5.89364626       8.66092971      -0.17626493       0.08186893      -0.04341000      -1.83800741       1.11970154      -1.91612363
Pb      16.51417930       6.18150233       8.74078898       0.13686659      -0.10612287       0.10504713      -0.66283767       3.52141334      -0.86369738
Pb      23.12233879      25.08996144       8.82470146      -0.19356327      -0.13139091      -0.18939287      -2.75787746       0.13185503       1.05980259
Pb      16.70182746      25.12341538       2.53867772      -0.11432020       0.17043097       0.19654850       1.40895814      -1.17497739      -2.81609766
Pb      22.72155002       6.05966481       2.28555367      -0.07319588      -0.01021316       0.04508516      -3.58913506      -0.75503051       0.64642759
Pb      16.36370272       6.16903100       2.22430537       0.23983012      -0.00423303       0.05887097      -1.55040787       0.76835393      -0.11802605
Pb      22.92139304      25.05782868       2.37960348      -0.19174521       0.25199025       0.27911220       3.60412634       0.62390328       1.26260911
I       16.09918149       2.94149155       9.01455962      -0.12133349       0.14527843       0.09731251       0.04865676      -0.92099687       1.40938960
I       22.26538707       9.15015599       9.42786360       0.04073941      -0.01077632      -0.15789608      -2.01485342       1.04016199       0.59186146
I        4.27781945       9.27120222       8.33890864       0.01684912      -0.15970899      -0.00505231      -0.44620520      -0.97747373       2.26829478
I       23.28710624       2.72930800       8.07019632       0.14317435       0.25276689      -0.08921300       1.72181520      -0.98072297      -0.91655981
I        0.51478849       6.48409942       9.18148704       0.36565021       0.13093989       0.06895771       0.81881738       1.46620668       1.12155009
I       19.68461915      13.13523198       9.12287246       0.18648187      -0.03835873       0.08634094      -2.56733773       1.61933335       0.09379790
I       19.74160604       5.46278298       8.42918172      -0.28347781       0.00075384      -0.11078346       1.59769500       2.96716046      -0.16893108
I        0.87277631      24.66375003       8.23965552       0.02682395      -0.00389254       0.10061976      -0.05082549       0.03416049      -0.83266258
I        4.39769471       9.59601132       2.90836166       0.07725434      -0.46627423      -0.00771414       1.09831793      -1.45158384      -1.11707821
I       23.21399085       2.89945333       2.94455858       0.03686615       0.08119783      -0.07250198       0.54734729       1.20338889       0.02729926
I       15.97415266       2.84591547      14.51479333      -0.03557178       0.33459373      -0.00492447      -0.77865754      -1.55566158      -0.62185963
I       22.36067932       9.28085088      14.89469714       0.03492704       0.13979447      -0.01739577       2.13784577       0.52662555       2.28320169
I       19.59773117       5.67671003      15.52593761       0.12556993      -0.05402074       0.09446718      -0.15421132      -0.50813818      -1.07817012
I        0.74683676      24.62091537      16.02277624       0.13968245       0.02380450      -0.05659030      -2.51051735      -1.03697595       1.02123033