320
Lattice="36.61494431704515 0.8521064442996575 0.6472952383376436 -0.4899562435077865 21.43320960287554 0.4582089290160639 -0.349194964961731 -0.4123068262220005 19.635594233834194" Properties=species:S:1:pos:R:3:forces:R:3:momenta:R:3 pbc="T T T"
Cs       7.98185826      18.81930125       1.47040485      -0.05264219      -0.09479098      -0.00587991      -0.66876982      -0.36406963       1.28885598
Cs      14.16756709       5.68390172      18.37527402       0.08325382       0.18899386       0.09499345       0.07406977       1.31796184      -0.57730435
Cs       5.55072562       2.45912856       1.11461127      -0.04391292       0.07959158       0.07281041      -0.16667986       1.27012047      -0.52935927
Cs      16.78370484       0.60108244      18.55131782       0.23676535       0.10532834       0.05985630       2.08951453       1.67102414      -1.35848538
Cs       8.02509951      18.55391783       6.44839290      -0.09332543       0.05401198      -0.02245775       0.61898436      -1.49771117       2.03482706
Cs      14.27399543       6.07331775       3.70557945       0.10477187       0.13083873       0.11226561      -0.32189273      -0.74401268       2.58743919
Cs       5.43050436       2.64882524       6.18493995      -0.14445756      -0.10792447      -0.19314659       0.05266422      -2.27279653       1.68834039
Cs      17.31484238       1.25288403       3.92595611       0.06032080      -0.09685068      -0.14611405       0.27903724       0.01385405      -0.32407090
Pb       2.73544108      19.25085432      18.66988672      -0.00246625      -0.08380312      -0.08745022      -2.85267537      -1.49161173       0.60875760
Pb      19.45734298       5.85566699       1.36411464      -0.11206623      -0.22659795       0.13683488       1.81946096       1.27231598       0.15401794
Pb       9.91416791       3.10879665      18.28852849      -0.00945530      -0.08312505       0.17072781       1.34698775      -1.38720919      -1.72810822
Pb      12.09813927      21.40616719       1.35305600      -0.10032976       0.11574491       0.18479177       2.04681180      -2.77697460      -2.55742519
Pb       2.91624309      19.51761444       3.97956170       0.20620248       0.09798075       0.04071031      -1.62288425      -0.74824719      -1.62807638
Pb      19.38932924       5.74591370       6.23744451      -0.04730797      -0.12260331       0.03522166      -2.89668844       1.19360014      -0.67186821
Pb      10.12732056       3.35660505       3.67040804      -0.00157347       0.12861420      -0.13173220       1.90538277      -0.15188088      -2.18816749
Pb      11.90972655      21.52007131       6.39990840      -0.00366751      -0.10599553       0.08775858      -1.22899089      -0.66862701      -2.84938873
I        1.95741917      21.39499423       1.43693476      -0.10727896       0.09223930       0.10598593      -1.62726989       0.79252589       1.85085076
I        1.85084409       3.32459536      18.26129856       0.12473703      -0.22273281      -0.00547523       1.62676687      -1.30489711       0.15107462
I       11.48860110       5.17792156       1.20330301      -0.18023170       0.08543336       0.06932954       1.94501306      -2.14487004       0.96060460
I       10.91213320      19.06316828      18.81725429      -0.13020262       0.12615401      -0.41623415       0.93966678       1.52098595      -1.74487491
I       17.93659314      18.19469371      18.88840265       0.00400865      -0.04373515      -0.00451110       2.38942279       1.27625192      -1.59753787
I        4.15384256       6.83405892       1.19459463       0.00277583       0.00989633       0.21608090       0.99491459       0.23246095      -0.05443789
I       13.07082971       1.95157456      18.28305268      -0.05057574      -0.28691772       0.05945600      -1.25276146       2.03048980       0.03955271
I        9.53696704       1.44447432       1.16857772      -0.24731737      -0.08286100      -0.10671640       0.40896055       1.88740933      -2.25653132
I        5.56557502      20.63886974      18.50058675      -0.04195364      -0.00317921       0.13240731       1.17057560       1.19999588      -0.24345731
I       16.70911518       4.13579951       1.38008826       0.09861945       0.10267742      -0.01231534       1.45950878      -1.19772943      -0.29649894
I        7.12911896       4.53040553      18.28671781       0.05919929       0.08940418       0.16003924       0.69144845      -0.66241678      -2.90432691
I       14.74295346      19.94083682       1.71273960       0.27099877       0.00960925       0.00872128       1.49065375      -2.38426105       1.14378497
I        1.68809948      21.33159063       6.58850137       0.07926081      -0.06239687      -0.27794463      -1.69843215      -0.56841894      -0.56662590
I        2.26310323       3.34603097       3.60212178      -0.09249583       0.26988575      -0.10617568      -0.03107206      -2.50694548       1.09368065
I       11.31714500       5.08436861       6.19631477       0.05201881       0.22444693      -0.08915689       0.48320869       0.55933129      -1.79424785
I       10.83747986      19.66761218       3.98124789       0.12159149      -0.08667919      -0.06548301       0.99599174      -3.20460766       1.17591331
I       18.15070508      18.52064967       4.09481841       0.02229351       0.01461538       0.04147676      -0.62309205       0.77137360      -0.96136947
I        4.13798751       6.70775703       6.14330011      -0.11232698       0.04937367      -0.09786733       0.67137028       0.55671541       0.11611302
I       13.16636616       2.01774439       3.45593117       0.20105393       0.09721889       0.31950104      -0.20668714      -0.11722178       0.08015627
I        9.23008394       1.24324577       6.00801485       0.00666400       0.06822673       0.03931549       0.77506504      -0.56796585       0.99163695
I        5.82150116      20.88887800       3.98883815      -0.26571657      -0.03456040       0.05356039       0.10072542      -1.14597281       0.29834998
I       16.66267472       4.04652664       6.36356703       0.02180272       0.08228359      -0.11197269      -0.58648657       0.37090068       0.43305441
I        7.46588942       5.11422555       3.83751786       0.01366486      -0.21143438      -0.20946823      -2.95454248      -1.08909645       0.21251290
I       14.68111956      20.26329322       6.59845602       0.06930052      -0.26638132      -0.11174327      -0.58485591       0.22545313      -2.23900657
Cs       7.80726077      18.61314784      11.28820197      -0.05264219      -0.09479098      -0.00587991      -0.66876982      -0.36406963       1.28885598
Cs      14.34216457       5.89005514       8.55747691       0.08325382       0.18899386       0.09499345       0.07406977       1.31796184      -0.57730435
Cs       5.37612814       2.25297515      10.93240839      -0.04391292       0.07959158       0.07281041      -0.16667986       1.27012047      -0.52935927
Cs      16.95830232       0.80723586       8.73352071       0.23676535       0.10532834       0.05985630       2.08951453       1.67102414      -1.35848538
Cs       7.85050202      18.34776442      16.26619002      -0.09332543       0.05401198      -0.02245775       0.61898436      -1.49771117       2.03482706
Cs      14.09939795       5.86716434      13.52337657       0.10477187       0.13083873       0.11226561      -0.32189273      -0.74401268       2.58743919
Cs       5.25590688       2.44267183      16.00273707      -0.14445756      -0.10792447      -0.19314659       0.05266422      -2.27279653       1.68834039
Cs      17.14024490       1.04673062      13.74375323       0.06032080      -0.09685068      -0.14611405       0.27903724       0.01385405      -0.32407090
Pb       2.91003856      19.45700773       8.85208961      -0.00246625      -0.08380312      -0.08745022      -2.85267537      -1.49161173       0.60875760
Pb      19.28274550       5.64951358      11.18191176      -0.11206623      -0.22659795       0.13683488       1.81946096       1.27231598       0.15401794
Pb      10.08876539       3.31495007       8.47073138      -0.00945530      -0.08312505       0.17072781       1.34698775      -1.38720919      -1.72810822
Pb      11.92354178      21.20001378      11.17085312      -0.10032976       0.11574491       0.18479177       2.04681180      -2.77697460      -2.55742519
Pb       2.74164560      19.31146103      13.79735882       0.20620248       0.09798075       0.04071031      -1.62288425      -0.74824719      -1.62807638
Pb      19.21473176       5.53976029      16.05524163      -0.04730797      -0.12260331       0.03522166      -2.89668844       1.19360014      -0.67186821
Pb       9.95272308       3.15045164      13.48820516      -0.00157347       0.12861420      -0.13173220       1.90538277      -0.15188088      -2.18816749
Pb      11.73512906      21.31391790      16.21770552      -0.00366751      -0.10599553       0.08775858      -1.22899089      -0.66862701      -2.84938873
I        1.78282168      21.18884082      11.25473188      -0.10727896       0.09223930       0.10598593      -1.62726989       0.79252589       1.85085076
I        2.02544157       3.53074878       8.44350145       0.12473703      -0.22273281      -0.00547523       1.62676687      -1.30489711       0.15107462
I       11.31400362       4.97176815      11.02110013      -0.18023170       0.08543336       0.06932954       1.94501306      -2.14487004       0.96060460
I       11.08673068      19.26932169       8.99945718      -0.13020262       0.12615401      -0.41623415       0.93966678       1.52098595      -1.74487491
I       18.11119062      18.40084712       9.07060554       0.00400865      -0.04373515      -0.00451110       2.38942279       1.27625192      -1.59753787
I        3.97924508       6.62790551      11.01239175       0.00277583       0.00989633       0.21608090       0.99491459       0.23246095      -0.05443789
I       13.24542719       2.15772798       8.46525557      -0.05057574      -0.28691772       0.05945600      -1.25276146       2.03048980       0.03955271
I        9.36236956       1.23832091      10.98637484      -0.24731737      -0.08286100      -0.10671640       0.40896055       1.88740933      -2.25653132
I        5.74017250      20.84502315       8.68278964      -0.04195364      -0.00317921       0.13240731       1.17057560       1.19999588      -0.24345731
I       16.53451770       3.92964610      11.19788538       0.09861945       0.10267742      -0.01231534       1.45950878      -1.19772943      -0.29649894
I        7.30371644       4.73655895       8.46892070       0.05919929       0.08940418       0.16003924       0.69144845      -0.66241678      -2.90432691
I       14.56835597      19.73468341      11.53053672       0.27099877       0.00960925       0.00872128       1.49065375      -2.38426105       1.14378497
I        1.51350199      21.12543722      16.40629849       0.07926081      -0.06239687      -0.27794463      -1.69843215      -0.56841894      -0.56662590
I        2.08850575       3.13987756      13.41991890      -0.09249583       0.26988575      -0.10617568      -0.03107206      -2.50694548       1.09368065
I       11.14254752       4.87821520      16.01411189       0.05201881       0.22444693      -0.08915689       0.48320869       0.55933129      -1.79424785
I       10.66288237      19.46145877      13.79904501       0.12159149      -0.08667919      -0.06548301       0.99599174      -3.20460766       1.17591331
I       17.97610759      18.31449626      13.91261553       0.02229351       0.01461538       0.04147676      -0.62309205       0.77137360      -0.96136947
I        3.96339003       6.50160362      15.96109723      -0.11232698       0.04937367      -0.09786733       0.67137028       0.55671541       0.11611302
I       12.99176868       1.81159098      13.27372829       0.20105393       0.09721889       0.31950104      -0.20668714      -0.11722178       0.08015627
I        9.05548646       1.03709236      15.82581197       0.00666400       0.06822673       0.03931549       0.77506504      -0.56796585       0.99163695
I        5.64690367      20.68272459      13.80663527      -0.26571657      -0.03456040       0.05356039       0.10072542      -1.14597281       0.29834998
I       16.48807724       3.84037323      16.18136415       0.02180272       0.08228359      -0.11197269      -0.58648657       0.37090068       0.43305441
I        7.29129194       4.90807214      13.65531498       0.01366486      -0.21143438      -0.20946823      -2.95454248      -1.08909645       0.21251290
I       14.50652207      20.05713981      16.41625314       0.06930052      -0.26638132      -0.11174327      -0.58485591       0.22545313      -2.23900657
Cs       8.22683638       8.10269645       1.24130038      -0.05264219      -0.09479098      -0.00587991      -0.66876982      -0.36406963       1.28885598
Cs      13.92258896      16.40050653      18.60437849       0.08325382       0.18899386       0.09499345       0.07406977       1.31796184      -0.57730435
Cs       5.30574750      13.17573336       1.34371573      -0.04391292       0.07959158       0.07281041      -0.16667986       1.27012047      -0.52935927
Cs      16.53872671      11.31768725      18.78042229       0.23676535       0.10532834       0.05985630       2.08951453       1.67102414      -1.35848538
Cs       8.27007763       7.83731303       6.21928843      -0.09332543       0.05401198      -0.02245775       0.61898436      -1.49771117       2.03482706
Cs      14.02901731      16.78992255       3.93468391       0.10477187       0.13083873       0.11226561      -0.32189273      -0.74401268       2.58743919
Cs       5.18552624      13.36543004       6.41404441      -0.14445756      -0.10792447      -0.19314659       0.05266422      -2.27279653       1.68834039
Cs      17.06986426      11.96948883       4.15506057       0.06032080      -0.09685068      -0.14611405       0.27903724       0.01385405      -0.32407090
Pb       2.98041920       8.53424952      18.44078226      -0.00246625      -0.08380312      -0.08745022      -2.85267537      -1.49161173       0.60875760
Pb      19.21236486      16.57227179       1.59321910      -0.11206623      -0.22659795       0.13683488       1.81946096       1.27231598       0.15401794
Pb       9.66918978      13.82540146      18.51763296      -0.00945530      -0.08312505       0.17072781       1.34698775      -1.38720919      -1.72810822
Pb      12.34311739      10.68956239       1.12395153      -0.10032976       0.11574491       0.18479177       2.04681180      -2.77697460      -2.55742519
Pb       3.16122121       8.80100964       3.75045723       0.20620248       0.09798075       0.04071031      -1.62288425      -0.74824719      -1.62807638
Pb      19.14435112      16.46251850       6.46654897      -0.04730797      -0.12260331       0.03522166      -2.89668844       1.19360014      -0.67186821
Pb       9.88234244      14.07320985       3.89951250      -0.00157347       0.12861420      -0.13173220       1.90538277      -0.15188088      -2.18816749
Pb      12.15470467      10.80346651       6.17080393      -0.00366751      -0.10599553       0.08775858      -1.22899089      -0.66862701      -2.84938873
I        2.20239729      10.67838943       1.20783029      -0.10727896       0.09223930       0.10598593      -1.62726989       0.79252589       1.85085076
I        1.60586596      14.04120017      18.49040303       0.12473703      -0.22273281      -0.00547523       1.62676687      -1.30489711       0.15107462
I       11.24362298      15.89452636       1.43240747      -0.18023170       0.08543336       0.06932954       1.94501306      -2.14487004       0.96060460
I       11.15711132       8.34656348      18.58814983      -0.13020262       0.12615401      -0.41623415       0.93966678       1.52098595      -1.74487491
I       18.18157126       7.47808891      18.65929819       0.00400865      -0.04373515      -0.00451110       2.38942279       1.27625192      -1.59753787
I        3.90886444      17.55066372       1.42369909       0.00277583       0.00989633       0.21608090       0.99491459       0.23246095      -0.05443789
I       12.82585158      12.66817937      18.51215715      -0.05057574      -0.28691772       0.05945600      -1.25276146       2.03048980       0.03955271
I        9.29198892      12.16107912       1.39768218      -0.24731737      -0.08286100      -0.10671640       0.40896055       1.88740933      -2.25653132
I        5.81055314       9.92226494      18.27148229      -0.04195364      -0.00317921       0.13240731       1.17057560       1.19999588      -0.24345731
I       16.46413706      14.85240431       1.60919272       0.09861945       0.10267742      -0.01231534       1.45950878      -1.19772943      -0.29649894
I        6.88414083      15.24701034      18.51582228       0.05919929       0.08940418       0.16003924       0.69144845      -0.66241678      -2.90432691
I       14.98793158       9.22423202       1.48363513       0.27099877       0.00960925       0.00872128       1.49065375      -2.38426105       1.14378497
I        1.93307760      10.61498583       6.35939690       0.07926081      -0.06239687      -0.27794463      -1.69843215      -0.56841894      -0.56662590
I        2.01812511      14.06263577       3.83122624      -0.09249583       0.26988575      -0.10617568      -0.03107206      -2.50694548       1.09368065
I       11.07216688      15.80097341       6.42541923       0.05201881       0.22444693      -0.08915689       0.48320869       0.55933129      -1.79424785
I       11.08245798       8.95100738       3.75214342       0.12159149      -0.08667919      -0.06548301       0.99599174      -3.20460766       1.17591331
I       18.39568320       7.80404487       3.86571394       0.02229351       0.01461538       0.04147676      -0.62309205       0.77137360      -0.96136947
I        3.89300939      17.42436183       6.37240457      -0.11232698       0.04937367      -0.09786733       0.67137028       0.55671541       0.11611302
I       12.92138804      12.73434919       3.68503563       0.20105393       0.09721889       0.31950104      -0.20668714      -0.11722178       0.08015627
I        8.98510582      11.95985057       6.23711931       0.00666400       0.06822673       0.03931549       0.77506504      -0.56796585       0.99163695
I        6.06647928      10.17227320       3.75973368      -0.26571657      -0.03456040       0.05356039       0.10072542      -1.14597281       0.29834998
I       16.41769660      14.76313144       6.59267149       0.02180272       0.08228359      -0.11197269      -0.58648657       0.37090068       0.43305441
I        7.22091130      15.83083035       4.06662232       0.01366486      -0.21143438      -0.20946823      -2.95454248      -1.08909645       0.21251290
I       14.92609768       9.54668842       6.36935155       0.06930052      -0.26638132      -0.11174327      -0.58485591       0.22545313      -2.23900657
Cs       8.05223890       7.89654304      11.05909750      -0.05264219      -0.09479098      -0.00587991      -0.66876982      -0.36406963       1.28885598
Cs      14.09718645      16.60665994       8.78658137       0.08325382       0.18899386       0.09499345       0.07406977       1.31796184      -0.57730435
Cs       5.13115002      12.96957995      11.16151285      -0.04391292       0.07959158       0.07281041      -0.16667986       1.27012047      -0.52935927
Cs      16.71332420      11.52384066       8.96262517       0.23676535       0.10532834       0.05985630       2.08951453       1.67102414      -1.35848538
Cs       8.09548015       7.63115962      16.03708555      -0.09332543       0.05401198      -0.02245775       0.61898436      -1.49771117       2.03482706
Cs      13.85441983      16.58376914      13.75248103       0.10477187       0.13083873       0.11226561      -0.32189273      -0.74401268       2.58743919
Cs       5.01092876      13.15927663      16.23184153      -0.14445756      -0.10792447      -0.19314659       0.05266422      -2.27279653       1.68834039
Cs      16.89526678      11.76333542      13.97285769       0.06032080      -0.09685068      -0.14611405       0.27903724       0.01385405      -0.32407090
Pb       3.15501669       8.74040293       8.62298514      -0.00246625      -0.08380312      -0.08745022      -2.85267537      -1.49161173       0.60875760
Pb      19.03776738      16.36611838      11.41101622      -0.11206623      -0.22659795       0.13683488       1.81946096       1.27231598       0.15401794
Pb       9.84378727      14.03155487       8.69983584      -0.00945530      -0.08312505       0.17072781       1.34698775      -1.38720919      -1.72810822
Pb      12.16851991      10.48340898      10.94174865      -0.10032976       0.11574491       0.18479177       2.04681180      -2.77697460      -2.55742519
Pb       2.98662373       8.59485623      13.56825435       0.20620248       0.09798075       0.04071031      -1.62288425      -0.74824719      -1.62807638
Pb      18.96975364      16.25636509      16.28434609      -0.04730797      -0.12260331       0.03522166      -2.89668844       1.19360014      -0.67186821
Pb       9.70774496      13.86705644      13.71730962      -0.00157347       0.12861420      -0.13173220       1.90538277      -0.15188088      -2.18816749
Pb      11.98010719      10.59731310      15.98860105      -0.00366751      -0.10599553       0.08775858      -1.22899089      -0.66862701      -2.84938873
I        2.02779981      10.47223602      11.02562741      -0.10727896       0.09223930       0.10598593      -1.62726989       0.79252589       1.85085076
I        1.78046345      14.24735358       8.67260591       0.12473703      -0.22273281      -0.00547523       1.62676687      -1.30489711       0.15107462
I       11.06902550      15.68837295      11.25020459      -0.18023170       0.08543336       0.06932954       1.94501306      -2.14487004       0.96060460
I       11.33170881       8.55271689       8.77035271      -0.13020262       0.12615401      -0.41623415       0.93966678       1.52098595      -1.74487491
I       18.35616875       7.68424232       8.84150107       0.00400865      -0.04373515      -0.00451110       2.38942279       1.27625192      -1.59753787
I        3.73426696      17.34451031      11.24149621       0.00277583       0.00989633       0.21608090       0.99491459       0.23246095      -0.05443789
I       13.00044907      12.87433278       8.69436003      -0.05057574      -0.28691772       0.05945600      -1.25276146       2.03048980       0.03955271
I        9.11739144      11.95492571      11.21547930      -0.24731737      -0.08286100      -0.10671640       0.40896055       1.88740933      -2.25653132
I        5.98515063      10.12841835       8.45368517      -0.04195364      -0.00317921       0.13240731       1.17057560       1.19999588      -0.24345731
I       16.28953958      14.64625090      11.42698984       0.09861945       0.10267742      -0.01231534       1.45950878      -1.19772943      -0.29649894
I        7.05873832      15.45316375       8.69802516       0.05919929       0.08940418       0.16003924       0.69144845      -0.66241678      -2.90432691
I       14.81333410       9.01807861      11.30143225       0.27099877       0.00960925       0.00872128       1.49065375      -2.38426105       1.14378497
I        1.75848012      10.40883242      16.17719402       0.07926081      -0.06239687      -0.27794463      -1.69843215      -0.56841894      -0.56662590
I        1.84352763      13.85648236      13.64902336      -0.09249583       0.26988575      -0.10617568      -0.03107206      -2.50694548       1.09368065
I       10.89756940      15.59482000      16.24321635       0.05201881       0.22444693      -0.08915689       0.48320869       0.55933129      -1.79424785
I       10.90786050       8.74485397      13.56994054       0.12159149      -0.08667919      -0.06548301       0.99599174      -3.20460766       1.17591331
I       18.22108572       7.59789146      13.68351106       0.02229351       0.01461538       0.04147676      -0.62309205       0.77137360      -0.96136947
I        3.71841191      17.21820842      16.19020169      -0.11232698       0.04937367      -0.09786733       0.67137028       0.55671541       0.11611302
I       12.74679056      12.52819578      13.50283275       0.20105393       0.09721889       0.31950104      -0.20668714      -0.11722178       0.08015627
I        8.81050834      11.75369716      16.05491643       0.00666400       0.06822673       0.03931549       0.77506504      -0.56796585       0.99163695
I        5.89188180       9.96611979      13.57753080      -0.26571657      -0.03456040       0.05356039       0.10072542      -1.14597281       0.29834998
I       16.24309912      14.55697803      16.41046861       0.02180272       0.08228359      -0.11197269      -0.58648657       0.37090068       0.43305441
I        7.04631382      15.62467694      13.88441944       0.01366486      -0.21143438      -0.20946823      -2.95454248      -1.08909645       0.21251290
I       14.75150020       9.34053501      16.18714867       0.06930052      -0.26638132      -0.11174327      -0.58485591       0.22545313      -2.23900657
Cs      26.28933042      19.24535448       1.79405247      -0.05264219      -0.09479098      -0.00587991      -0.66876982      -0.36406963       1.28885598
Cs      32.47503924       6.10995495      18.69892164       0.08325382       0.18899386       0.09499345       0.07406977       1.31796184      -0.57730435
Cs      23.85819778       2.88518178       1.43825889      -0.04391292       0.07959158       0.07281041      -0.16667986       1.27012047      -0.52935927
Cs      35.09117699       1.02713567      18.87496544       0.23676535       0.10532834       0.05985630       2.08951453       1.67102414      -1.35848538
Cs      26.33257167      18.97997106       6.77204052      -0.09332543       0.05401198      -0.02245775       0.61898436      -1.49771117       2.03482706
Cs      32.58146759       6.49937097       4.02922707       0.10477187       0.13083873       0.11226561      -0.32189273      -0.74401268       2.58743919
Cs      23.73797652       3.07487846       6.50858757      -0.14445756      -0.10792447      -0.19314659       0.05266422      -2.27279653       1.68834039
Cs      35.62231454       1.67893725       4.24960373       0.06032080      -0.09685068      -0.14611405       0.27903724       0.01385405      -0.32407090
Pb      21.04291324      19.67690754      18.99353434      -0.00246625      -0.08380312      -0.08745022      -2.85267537      -1.49161173       0.60875760
Pb       1.14987082       5.42961377       1.04046702      -0.11206623      -0.22659795       0.13683488       1.81946096       1.27231598       0.15401794
Pb      28.22164006       3.53484988      18.61217611      -0.00945530      -0.08312505       0.17072781       1.34698775      -1.38720919      -1.72810822
Pb      30.40561143      21.83222042       1.67670362      -0.10032976       0.11574491       0.18479177       2.04681180      -2.77697460      -2.55742519
Pb      21.22371525      19.94366767       4.30320932       0.20620248       0.09798075       0.04071031      -1.62288425      -0.74824719      -1.62807638
Pb       1.08185708       5.31986048       5.91379689      -0.04730797      -0.12260331       0.03522166      -2.89668844       1.19360014      -0.67186821
Pb      28.43479272       3.78265827       3.99405566      -0.00157347       0.12861420      -0.13173220       1.90538277      -0.15188088      -2.18816749
Pb      30.21719871      21.94612454       6.72355602      -0.00366751      -0.10599553       0.08775858      -1.22899089      -0.66862701      -2.84938873
I       20.26489133      21.82104746       1.76058238      -0.10727896       0.09223930       0.10598593      -1.62726989       0.79252589       1.85085076
I       20.15831624       3.75064859      18.58494618       0.12473703      -0.22273281      -0.00547523       1.62676687      -1.30489711       0.15107462
I       29.79607326       5.60397478       1.52695063      -0.18023170       0.08543336       0.06932954       1.94501306      -2.14487004       0.96060460
I       29.21960536      19.48922150      19.14090191      -0.13020262       0.12615401      -0.41623415       0.93966678       1.52098595      -1.74487491
I       -0.37087902      17.76864048      18.56475503       0.00400865      -0.04373515      -0.00451110       2.38942279       1.27625192      -1.59753787
I       22.46131472       7.26011214       1.51824225       0.00277583       0.00989633       0.21608090       0.99491459       0.23246095      -0.05443789
I       31.37830186       2.37762779      18.60670030      -0.05057574      -0.28691772       0.05945600      -1.25276146       2.03048980       0.03955271
I       27.84443920       1.87052754       1.49222534      -0.24731737      -0.08286100      -0.10671640       0.40896055       1.88740933      -2.25653132
I       23.87304718      21.06492296      18.82423437      -0.04195364      -0.00317921       0.13240731       1.17057560       1.19999588      -0.24345731
I       35.01658734       4.56185273       1.70373588       0.09861945       0.10267742      -0.01231534       1.45950878      -1.19772943      -0.29649894
I       25.43659111       4.95645876      18.61036543       0.05919929       0.08940418       0.16003924       0.69144845      -0.66241678      -2.90432691
I       33.05042562      20.36689005       2.03638722       0.27099877       0.00960925       0.00872128       1.49065375      -2.38426105       1.14378497
I       19.99557164      21.75764386       6.91214899       0.07926081      -0.06239687      -0.27794463      -1.69843215      -0.56841894      -0.56662590
I       20.57057539       3.77208419       3.92576940      -0.09249583       0.26988575      -0.10617568      -0.03107206      -2.50694548       1.09368065