320
Lattice="25.356093371687486 -0.1065490082268892 -0.19187677835240669 0.07755788227136919 25.376386568457004 0.27590338859444424 0.1691801122122475 -0.29781874292918886 25.404906270035514" Properties=species:S:1:pos:R:3:forces:R:3:momenta:R:3 pbc="T T T"
Cs      14.04404699       8.51031567       5.96797342      -0.00482416      -0.10461551      -0.00796449      -0.19737182      -0.83110599       1.27542419
Cs       7.21063621       1.50247791       5.83634578       0.05461447       0.15954681       0.16567971      -0.33637503       1.38189076      -0.39604980
Cs       6.78884373       2.36148331      12.32921537      -0.03933418       0.07321234      -0.09052805       0.17492172       0.93497784      -1.05364412
Cs      12.28911908       8.63802506      12.73826973       0.16901916       0.08884318      -0.04638234       1.18409121       1.53170964      -1.96976612
Cs      13.32291006       2.49864733      12.39579920      -0.06864372       0.03649403      -0.07212973       0.27306723      -1.82896679       1.60552248
Cs       6.54641874       9.02347715      12.15525429       0.01475182       0.09700886       0.11180004      -0.80644443      -0.68189281       2.42315224
Cs       7.38412778       8.04286825       6.16657267      -0.03082003      -0.05717161      -0.12809118       0.42930359      -2.11238586       1.36754475
Cs      13.64026679       2.24805895       5.99556086      -0.00757607      -0.13025319      -0.03676752      -0.17073652       0.02484901       0.10360841
Pb       3.96919163      24.51985359       9.54827706       0.02994586      -0.00403496      -0.11662671      -1.27482149      -0.28201588       0.98927344
Pb      10.19116142       5.37570269       9.10306327      -0.04290042      -0.12698450       0.00728880       3.51723246       0.39089428      -0.77431967
Pb       3.79967043       5.58134524       9.19114075       0.20253616      -0.12487652       0.27152014       1.59007789      -0.68801248      -0.95053245
Pb      10.46249223      24.26568569       9.16985139      -0.18533312       0.22437230       0.11860109       2.17363920      -2.93926233      -1.35940551
Pb       3.83246182      24.29232284       3.10889042      -0.25278607       0.09537517      -0.08557597      -2.39501877      -1.13789075      -2.60661246
Pb      10.20334015       5.39426582       2.81473127      -0.21098157      -0.06048331       0.09900720      -3.80286648       1.24254580      -0.32204568
Pb       3.88596038       5.29634859       2.85440607       0.22320728       0.04611396      -0.12634722       2.92732254       0.02887615      -1.93740856
Pb      10.04368919      24.50747044       2.81826026       0.24304275      -0.10140464       0.19408944       0.35133616      -1.91299465      -3.63491818
I        3.25451363       2.27233526       9.56925052       0.03918965      -0.10061747      -0.01816270      -1.05734468       0.22365603       0.89149538
I        9.24880316       8.60445745       9.61842623       0.19273265      -0.13959480       0.02192532       1.64046607      -1.91689469      -0.05415491
I       17.37098796       8.44529996       8.55959454      -0.10061338       0.32117187       0.10084150       2.23995795      -2.06750329       0.80322943
I       11.11870772       2.22320336       8.95371697      -0.17953181       0.02083310      -0.11393863       0.53023182       2.23730222       0.92942878
I       13.38032981       6.22299039       9.71010615      -0.04526046      -0.04439937      -0.00789174       2.77989587       0.82755097      -0.65387061
I        7.07750728      12.37980478       9.45407937       0.14279341       0.00710174       0.05514890       3.02153131      -0.01653423      -1.68017178
I        6.99036955       4.76597392       8.56160814       0.18816123      -0.07143875       0.03242140      -1.25859037       2.35288246      -0.11456976
I       13.56283591      23.77093898       8.88857054      -0.29065475      -0.03173646       0.00112141      -0.00432704       1.30355701      -1.85566746
I       17.13097094       8.53088237       2.97980521       0.07149170      -0.07871722       0.15937983       0.87401739      -0.01795187      -0.01628621
I       10.72442144       2.15330689       3.27350029      -0.05987361       0.03622728       0.01169851       0.74789812      -1.91024766       0.08622901
I        3.58706769       2.04085732      14.92892937      -0.02953286       0.17293569       0.09332069       0.14425821       0.11431542      -3.23400595
I        9.49153752       8.36508368      15.04862563       0.01154921       0.12312048      -0.04553748      -0.78326210      -0.16248406       0.93896358
I        7.14720996       4.75272789      16.54149394       0.10983795      -0.01920664      -0.19183104      -3.02457964      -0.01984980       0.20344180
I       13.37908190      23.74706481      16.21881284      -0.08190393       0.05997115      -0.11932755       0.46501266      -2.27789469       0.40847848
I       13.44113075       5.75520892       2.46236314      -0.14816571       0.06144756      -0.04246174       0.25792306      -0.03973444      -0.89584968
I        6.89177265      12.48107013       2.51903805       0.15986048      -0.08286154      -0.02645545       1.01655840      -1.97741505       1.10695655
I        3.19042278      11.34794391      12.36709436       0.00727491      -0.14884816       0.01045162      -0.95219355       0.43044871      -2.17904050
I        9.95119373       4.74094357      12.36991900      -0.01258642       0.06127383       0.01337993       0.83674629       0.50878833      -0.38766213
I       16.62165854      24.86251915       6.01876952       0.06354973      -0.01909556       0.19559208      -0.56073079      -0.41242908       0.00806505
I       10.79830247       5.92637493       6.02620479       0.06757899       0.02543431      -0.02030297       1.54058785      -0.28904488       1.55873624
I        3.46863722       5.13276960       6.11149983      -0.08678262       0.00858895      -0.02415875       0.24432858      -1.23794839       0.65083805
I        9.68829229      11.16785812       6.13053829       0.04948100       0.07380047      -0.36266189      -0.52312864       0.39968320      -0.79669189
I       17.40517579       5.77508637      12.40784557      -0.11070177      -0.18996417      -0.17301127      -2.99682387      -1.70248569      -0.30939207
I       10.67028072      25.02115321      12.50101203      -0.05181176      -0.15656874       0.19288680      -1.76336564       1.69424396      -0.32996813
Cs      14.12863705       8.36140630      18.67042656      -0.00482416      -0.10461551      -0.00796449      -0.19737182      -0.83110599       1.27542419
Cs       7.29522627       1.35356854      18.53879892       0.05461447       0.15954681       0.16567971      -0.33637503       1.38189076      -0.39604980
Cs       6.87343379       2.21257394      25.03166851      -0.03933418       0.07321234      -0.09052805       0.17492172       0.93497784      -1.05364412
Cs      12.20452902       8.78693443       0.03581659       0.16901916       0.08884318      -0.04638234       1.18409121       1.53170964      -1.96976612
Cs      13.40750012       2.34973796      25.09825234      -0.06864372       0.03649403      -0.07212973       0.27306723      -1.82896679       1.60552248
Cs       6.63100880       8.87456778      24.85770743       0.01475182       0.09700886       0.11180004      -0.80644443      -0.68189281       2.42315224
Cs       7.46871784       7.89395888      18.86902581      -0.03082003      -0.05717161      -0.12809118       0.42930359      -2.11238586       1.36754475
Cs      13.72485685       2.09914958      18.69801400      -0.00757607      -0.13025319      -0.03676752      -0.17073652       0.02484901       0.10360841
Pb       4.05378169      24.37094422      22.25073019       0.02994586      -0.00403496      -0.11662671      -1.27482149      -0.28201588       0.98927344
Pb      10.27575148       5.22679332      21.80551641      -0.04290042      -0.12698450       0.00728880       3.51723246       0.39089428      -0.77431967
Pb       3.88426049       5.43243587      21.89359389       0.20253616      -0.12487652       0.27152014       1.59007789      -0.68801248      -0.95053245
Pb      10.54708229      24.11677632      21.87230452      -0.18533312       0.22437230       0.11860109       2.17363920      -2.93926233      -1.35940551
Pb       3.91705188      24.14341347      15.81134355      -0.25278607       0.09537517      -0.08557597      -2.39501877      -1.13789075      -2.60661246
Pb      10.28793021       5.24535645      15.51718441      -0.21098157      -0.06048331       0.09900720      -3.80286648       1.24254580      -0.32204568
Pb       3.97055044       5.14743922      15.55685921       0.22320728       0.04611396      -0.12634722       2.92732254       0.02887615      -1.93740856
Pb      10.12827925      24.35856107      15.52071339       0.24304275      -0.10140464       0.19408944       0.35133616      -1.91299465      -3.63491818
I        3.33910369       2.12342589      22.27170366       0.03918965      -0.10061747      -0.01816270      -1.05734468       0.22365603       0.89149538
I        9.33339322       8.45554808      22.32087937       0.19273265      -0.13959480       0.02192532       1.64046607      -1.91689469      -0.05415491
I       17.45557802       8.29639059      21.26204768      -0.10061338       0.32117187       0.10084150       2.23995795      -2.06750329       0.80322943
I       11.20329778       2.07429399      21.65617011      -0.17953181       0.02083310      -0.11393863       0.53023182       2.23730222       0.92942878
I       13.46491987       6.07408102      22.41255929      -0.04526046      -0.04439937      -0.00789174       2.77989587       0.82755097      -0.65387061
I        7.16209734      12.23089541      22.15653251       0.14279341       0.00710174       0.05514890       3.02153131      -0.01653423      -1.68017178
I        7.07495961       4.61706455      21.26406128       0.18816123      -0.07143875       0.03242140      -1.25859037       2.35288246      -0.11456976
I       13.64742597      23.62202961      21.59102367      -0.29065475      -0.03173646       0.00112141      -0.00432704       1.30355701      -1.85566746
I       17.21556100       8.38197300      15.68225835       0.07149170      -0.07871722       0.15937983       0.87401739      -0.01795187      -0.01628621
I       10.80901150       2.00439752      15.97595343      -0.05987361       0.03622728       0.01169851       0.74789812      -1.91024766       0.08622901
I        3.50247763       2.18976669       2.22647623      -0.02953286       0.17293569       0.09332069       0.14425821       0.11431542      -3.23400595
I        9.40694746       8.51399305       2.34617249       0.01154921       0.12312048      -0.04553748      -0.78326210      -0.16248406       0.93896358
I        7.06261990       4.90163726       3.83904080       0.10983795      -0.01920664      -0.19183104      -3.02457964      -0.01984980       0.20344180
I       13.29449185      23.89597418       3.51635970      -0.08190393       0.05997115      -0.11932755       0.46501266      -2.27789469       0.40847848
I       13.52572081       5.60629955      15.16481628      -0.14816571       0.06144756      -0.04246174       0.25792306      -0.03973444      -0.89584968
I        6.97636271      12.33216076      15.22149119       0.15986048      -0.08286154      -0.02645545       1.01655840      -1.97741505       1.10695655
I        3.27501284      11.19903454      25.06954750       0.00727491      -0.14884816       0.01045162      -0.95219355       0.43044871      -2.17904050
I       10.03578379       4.59203420      25.07237214      -0.01258642       0.06127383       0.01337993       0.83674629       0.50878833      -0.38766213
I       16.70624860      24.71360978      18.72122265       0.06354973      -0.01909556       0.19559208      -0.56073079      -0.41242908       0.00806505
I       10.88289253       5.77746556      18.72865793       0.06757899       0.02543431      -0.02030297       1.54058785      -0.28904488       1.55873624
I        3.55322728       4.98386023      18.81395297      -0.08678262       0.00858895      -0.02415875       0.24432858      -1.23794839       0.65083805
I        9.77288235      11.01894875      18.83299143       0.04948100       0.07380047      -0.36266189      -0.52312864       0.39968320      -0.79669189
I       17.48976585       5.62617700      25.11029871      -0.11070177      -0.18996417      -0.17301127      -2.99682387      -1.70248569      -0.30939207
I       10.75487078      24.87224384      25.20346516      -0.05181176      -0.15656874       0.19288680      -1.76336564       1.69424396      -0.32996813
Cs      14.08282593      21.19850895       6.10592511      -0.00482416      -0.10461551      -0.00796449      -0.19737182      -0.83110599       1.27542419
Cs       7.24941515      14.19067119       5.97429747       0.05461447       0.15954681       0.16567971      -0.33637503       1.38189076      -0.39604980
Cs       6.82762267      15.04967659      12.46716706      -0.03933418       0.07321234      -0.09052805       0.17492172       0.93497784      -1.05364412
Cs      12.32789802      21.32621834      12.87622142       0.16901916       0.08884318      -0.04638234       1.18409121       1.53170964      -1.96976612
Cs      13.36168900      15.18684061      12.53375089      -0.06864372       0.03649403      -0.07212973       0.27306723      -1.82896679       1.60552248
Cs       6.58519768      21.71167043      12.29320598       0.01475182       0.09700886       0.11180004      -0.80644443      -0.68189281       2.42315224
Cs       7.42290672      20.73106153       6.30452436      -0.03082003      -0.05717161      -0.12809118       0.42930359      -2.11238586       1.36754475
Cs      13.67904573      14.93625223       6.13351255      -0.00757607      -0.13025319      -0.03676752      -0.17073652       0.02484901       0.10360841
Pb       3.93041269      11.83166030       9.41032536       0.02994586      -0.00403496      -0.11662671      -1.27482149      -0.28201588       0.98927344
Pb      10.22994036      18.06389597       9.24101496      -0.04290042      -0.12698450       0.00728880       3.51723246       0.39089428      -0.77431967
Pb       3.83844937      18.26953852       9.32909244       0.20253616      -0.12487652       0.27152014       1.59007789      -0.68801248      -0.95053245
Pb      10.42371329      11.57749240       9.03189969      -0.18533312       0.22437230       0.11860109       2.17363920      -2.93926233      -1.35940551
Pb       3.79368288      11.60412955       2.97093872      -0.25278607       0.09537517      -0.08557597      -2.39501877      -1.13789075      -2.60661246
Pb      10.24211909      18.08245910       2.95268296      -0.21098157      -0.06048331       0.09900720      -3.80286648       1.24254580      -0.32204568
Pb       3.92473932      17.98454187       2.99235776       0.22320728       0.04611396      -0.12634722       2.92732254       0.02887615      -1.93740856
Pb      10.00491025      11.81927715       2.68030856       0.24304275      -0.10140464       0.19408944       0.35133616      -1.91299465      -3.63491818
I        3.29329257      14.96052854       9.70720221       0.03918965      -0.10061747      -0.01816270      -1.05734468       0.22365603       0.89149538
I        9.28758210      21.29265073       9.75637792       0.19273265      -0.13959480       0.02192532       1.64046607      -1.91689469      -0.05415491
I       17.40976690      21.13349324       8.69754623      -0.10061338       0.32117187       0.10084150       2.23995795      -2.06750329       0.80322943
I       11.15748666      14.91139664       9.09166866      -0.17953181       0.02083310      -0.11393863       0.53023182       2.23730222       0.92942878
I       13.41910875      18.91118367       9.84805784      -0.04526046      -0.04439937      -0.00789174       2.77989587       0.82755097      -0.65387061
I        7.11628622      25.06799806       9.59203106       0.14279341       0.00710174       0.05514890       3.02153131      -0.01653423      -1.68017178
I        7.02914849      17.45416720       8.69955983       0.18816123      -0.07143875       0.03242140      -1.25859037       2.35288246      -0.11456976
I       13.52405697      11.08274569       8.75061884      -0.29065475      -0.03173646       0.00112141      -0.00432704       1.30355701      -1.85566746
I       17.16974988      21.21907565       3.11775690       0.07149170      -0.07871722       0.15937983       0.87401739      -0.01795187      -0.01628621
I       10.76320038      14.84150017       3.41145198      -0.05987361       0.03622728       0.01169851       0.74789812      -1.91024766       0.08622901
I        3.62584663      14.72905060      15.06688106      -0.02953286       0.17293569       0.09332069       0.14425821       0.11431542      -3.23400595
I        9.53031646      21.05327696      15.18657732       0.01154921       0.12312048      -0.04553748      -0.78326210      -0.16248406       0.93896358
I        7.18598890      17.44092117      16.67944563       0.10983795      -0.01920664      -0.19183104      -3.02457964      -0.01984980       0.20344180
I       13.34030296      11.05887152      16.08086114      -0.08190393       0.05997115      -0.11932755       0.46501266      -2.27789469       0.40847848
I       13.47990969      18.44340220       2.60031483      -0.14816571       0.06144756      -0.04246174       0.25792306      -0.03973444      -0.89584968
I        6.93055159      25.16926341       2.65698974       0.15986048      -0.08286154      -0.02645545       1.01655840      -1.97741505       1.10695655
I        3.22920172      24.03613719      12.50504605       0.00727491      -0.14884816       0.01045162      -0.95219355       0.43044871      -2.17904050
I        9.98997267      17.42913685      12.50787069      -0.01258642       0.06127383       0.01337993       0.83674629       0.50878833      -0.38766213
I       16.58287960      12.17432586       5.88081782       0.06354973      -0.01909556       0.19559208      -0.56073079      -0.41242908       0.00806505
I       10.83708141      18.61456821       6.16415648       0.06757899       0.02543431      -0.02030297       1.54058785      -0.28904488       1.55873624
I        3.50741616      17.82096288       6.24945152      -0.08678262       0.00858895      -0.02415875       0.24432858      -1.23794839       0.65083805
I        9.72707123      23.85605140       6.26848998       0.04948100       0.07380047      -0.36266189      -0.52312864       0.39968320      -0.79669189
I       17.44395473      18.46327965      12.54579726      -0.11070177      -0.18996417      -0.17301127      -2.99682387      -1.70248569      -0.30939207
I       10.63150178      12.33295992      12.36306033      -0.05181176      -0.15656874       0.19288680      -1.76336564       1.69424396      -0.32996813
Cs      14.16741599      21.04959958      18.80837825      -0.00482416      -0.10461551      -0.00796449      -0.19737182      -0.83110599       1.27542419
Cs       7.33400521      14.04176182      18.67675061       0.05461447       0.15954681       0.16567971      -0.33637503       1.38189076      -0.39604980
Cs       6.91221273      14.90076722      25.16962020      -0.03933418       0.07321234      -0.09052805       0.17492172       0.93497784      -1.05364412
Cs      12.24330797      21.47512772       0.17376829       0.16901916       0.08884318      -0.04638234       1.18409121       1.53170964      -1.96976612
Cs      13.44627906      15.03793124      25.23620403      -0.06864372       0.03649403      -0.07212973       0.27306723      -1.82896679       1.60552248
Cs       6.66978774      21.56276106      24.99565912       0.01475182       0.09700886       0.11180004      -0.80644443      -0.68189281       2.42315224
Cs       7.50749678      20.58215216      19.00697750      -0.03082003      -0.05717161      -0.12809118       0.42930359      -2.11238586       1.36754475
Cs      13.76363579      14.78734286      18.83596569      -0.00757607      -0.13025319      -0.03676752      -0.17073652       0.02484901       0.10360841
Pb       4.01500275      11.68275093      22.11277850       0.02994586      -0.00403496      -0.11662671      -1.27482149      -0.28201588       0.98927344
Pb      10.31453042      17.91498660      21.94346810      -0.04290042      -0.12698450       0.00728880       3.51723246       0.39089428      -0.77431967
Pb       3.92303943      18.12062915      22.03154558       0.20253616      -0.12487652       0.27152014       1.59007789      -0.68801248      -0.95053245
Pb      10.50830335      11.42858303      21.73435283      -0.18533312       0.22437230       0.11860109       2.17363920      -2.93926233      -1.35940551
Pb       3.87827294      11.45522018      15.67339186      -0.25278607       0.09537517      -0.08557597      -2.39501877      -1.13789075      -2.60661246
Pb      10.32670915      17.93354973      15.65513610      -0.21098157      -0.06048331       0.09900720      -3.80286648       1.24254580      -0.32204568
Pb       4.00932938      17.83563250      15.69481090       0.22320728       0.04611396      -0.12634722       2.92732254       0.02887615      -1.93740856
Pb      10.08950031      11.67036778      15.38276170       0.24304275      -0.10140464       0.19408944       0.35133616      -1.91299465      -3.63491818
I        3.37788263      14.81161917      22.40965535       0.03918965      -0.10061747      -0.01816270      -1.05734468       0.22365603       0.89149538
I        9.37217216      21.14374136      22.45883106       0.19273265      -0.13959480       0.02192532       1.64046607      -1.91689469      -0.05415491
I       17.49435696      20.98458387      21.39999937      -0.10061338       0.32117187       0.10084150       2.23995795      -2.06750329       0.80322943
I       11.24207672      14.76248727      21.79412180      -0.17953181       0.02083310      -0.11393863       0.53023182       2.23730222       0.92942878
I       13.50369881      18.76227430      22.55051098      -0.04526046      -0.04439937      -0.00789174       2.77989587       0.82755097      -0.65387061
I        7.20087628      24.91908869      22.29448420       0.14279341       0.00710174       0.05514890       3.02153131      -0.01653423      -1.68017178
I        7.11373855      17.30525783      21.40201297       0.18816123      -0.07143875       0.03242140      -1.25859037       2.35288246      -0.11456976
I       13.60864703      10.93383632      21.45307198      -0.29065475      -0.03173646       0.00112141      -0.00432704       1.30355701      -1.85566746
I       17.25433994      21.07016628      15.82021004       0.07149170      -0.07871722       0.15937983       0.87401739      -0.01795187      -0.01628621
I       10.84779044      14.69259080      16.11390512      -0.05987361       0.03622728       0.01169851       0.74789812      -1.91024766       0.08622901
I        3.54125658      14.87795998       2.36442793      -0.02953286       0.17293569       0.09332069       0.14425821       0.11431542      -3.23400595
I        9.44572641      21.20218634       2.48412419       0.01154921       0.12312048      -0.04553748      -0.78326210      -0.16248406       0.93896358
I        7.10139885      17.58983055       3.97699250       0.10983795      -0.01920664      -0.19183104      -3.02457964      -0.01984980       0.20344180
I       13.25571291      11.20778090       3.37840801      -0.08190393       0.05997115      -0.11932755       0.46501266      -2.27789469       0.40847848
I       13.56449975      18.29449283      15.30276797      -0.14816571       0.06144756      -0.04246174       0.25792306      -0.03973444      -0.89584968
I        7.01514165      25.02035404      15.35944288       0.15986048      -0.08286154      -0.02645545       1.01655840      -1.97741505       1.10695655
I        3.31379178      23.88722782      25.20749919       0.00727491      -0.14884816       0.01045162      -0.95219355       0.43044871      -2.17904050
I       10.07456273      17.28022748      25.21032383      -0.01258642       0.06127383       0.01337993       0.83674629       0.50878833      -0.38766213
I       16.66746966      12.02541649      18.58327096       0.06354973      -0.01909556       0.19559208      -0.56073079      -0.41242908       0.00806505
I       10.92167147      18.46565884      18.86660962       0.06757899       0.02543431      -0.02030297       1.54058785      -0.28904488       1.55873624
I        3.59200622      17.67205351      18.95190466      -0.08678262       0.00858895      -0.02415875       0.24432858      -1.23794839       0.65083805
I        9.81166129      23.70714203      18.97094312       0.04948100       0.07380047      -0.36266189      -0.52312864       0.39968320      -0.79669189
I       17.52854479      18.31437028      25.24825040      -0.11070177      -0.18996417      -0.17301127      -2.99682387      -1.70248569      -0.30939207
I       10.71609184      12.18405055      25.06551347      -0.05181176      -0.15656874       0.19288680      -1.76336564       1.69424396      -0.32996813
Cs       1.36600030       8.56359017       6.06391181      -0.00482416      -0.10461551      -0.00796449      -0.19737182      -0.83110599       1.27542419
Cs      19.88868290       1.44920341       5.74040739       0.05461447       0.15954681       0.16567971      -0.33637503       1.38189076      -0.39604980
Cs      19.46689042       2.30820881      12.23327698      -0.03933418       0.07321234      -0.09052805       0.17492172       0.93497784      -1.05364412
Cs      24.96716577       8.58475056      12.64233134       0.16901916       0.08884318      -0.04638234       1.18409121       1.53170964      -1.96976612
Cs       0.64486337       2.55192183      12.49173759      -0.06864372       0.03649403      -0.07212973       0.27306723      -1.82896679       1.60552248
Cs      19.22446543       8.97020265      12.05931590       0.01475182       0.09700886       0.11180004      -0.80644443      -0.68189281       2.42315224
Cs      20.06217447       7.98959375       6.07063428      -0.03082003      -0.05717161      -0.12809118       0.42930359      -2.11238586       1.36754475
Cs       0.96222010       2.30133345       6.09149925      -0.00757607      -0.13025319      -0.03676752      -0.17073652       0.02484901       0.10360841
Pb      16.64723832      24.46657908       9.45233867       0.02994586      -0.00403496      -0.11662671      -1.27482149      -0.28201588       0.98927344
Pb      22.86920811       5.32242819       9.00712488      -0.04290042      -0.12698450       0.00728880       3.51723246       0.39089428      -0.77431967
Pb      16.47771712       5.52807074       9.09520236       0.20253616      -0.12487652       0.27152014       1.59007789      -0.68801248      -0.95053245
Pb      23.14053892      24.21241118       9.07391300      -0.18533312       0.22437230       0.11860109       2.17363920      -2.93926233      -1.35940551
Pb      16.51050851      24.23904833       3.01295203      -0.25278607       0.09537517      -0.08557597      -2.39501877      -1.13789075      -2.60661246
Pb      22.88138684       5.34099132       2.71879288      -0.21098157      -0.06048331       0.09900720      -3.80286648       1.24254580      -0.32204568
Pb      16.56400707       5.24307409       2.75846768       0.22320728       0.04611396      -0.12634722       2.92732254       0.02887615      -1.93740856
Pb      22.72173588      24.45419593       2.72232187       0.24304275      -0.10140464       0.19408944       0.35133616      -1.91299465      -3.63491818
I       15.93256032       2.21906076       9.47331213       0.03918965      -0.10061747      -0.01816270      -1.05734468       0.22365603       0.89149538
I       21.92684985       8.55118295       9.52248784       0.19273265      -0.13959480       0.02192532       1.64046607      -1.91689469      -0.05415491
I        4.69294127       8.49857446       8.65553293      -0.10061338       0.32117187       0.10084150       2.23995795      -2.06750329       0.80322943
I       23.79675441       2.16992886       8.85777858      -0.17953181       0.02083310      -0.11393863       0.53023182       2.23730222       0.92942878
I        0.70228312       6.27626489       9.80604454      -0.04526046      -0.04439937      -0.00789174       2.77989587       0.82755097      -0.65387061
I       19.75555397      12.32653028       9.35814098       0.14279341       0.00710174       0.05514890       3.02153131      -0.01653423      -1.68017178
I       19.66841624       4.71269942       8.46566975       0.18816123      -0.07143875       0.03242140      -1.25859037       2.35288246      -0.11456976
I        0.88478923      23.82421348       8.98450893      -0.29065475      -0.03173646       0.00112141      -0.00432704       1.30355701      -1.85566746
I        4.45292425       8.58415687       3.07574360       0.07149170      -0.07871722       0.15937983       0.87401739      -0.01795187      -0.01628621
I       23.40246813       2.10003239       3.17756190      -0.05987361       0.03622728       0.01169851       0.74789812      -1.91024766       0.08622901
I       16.26511438       1.98758282      14.83299098      -0.02953286       0.17293569       0.09332069       0.14425821       0.11431542      -3.23400595
I       22.16958421       8.31180918      14.95268724       0.01154921       0.12312048      -0.04553748      -0.78326210      -0.16248406       0.93896358
I       19.82525665       4.69945339      16.44555555       0.10983795      -0.01920664      -0.19183104      -3.02457964      -0.01984980       0.20344180
I        0.70103522      23.80033931      16.31475123      -0.08190393       0.05997115      -0.11932755       0.46501266      -2.27789469       0.40847848