320
Lattice="36.61494431704515 0.8521064442996575 0.6472952383376436 -0.4899562435077865 21.43320960287554 0.4582089290160639 -0.349194964961731 -0.4123068262220005 19.635594233834194" Properties=species:S:1:pos:R:3:forces:R:3:momenta:R:3 energy=-982.516748344315 stress="0.0 0.0 0.0 0.0 0.0 0.0 0.0 0.0 0.0" pbc="T T T"
Cs       8.13063483      19.15742861       0.52466056      -0.08355782       0.01529239       0.06071849       0.61651106      -5.14738454      -4.13537565
Cs      14.07947848       6.71943763      17.98919956       0.12609967      -0.18394232      -0.13703312      -1.23144429       2.55369935      -2.72219738
Cs       5.27896312       2.62821948       0.14443904       0.03390805       0.17867074      -0.14544229       0.84007731       0.48122618       0.64428707
Cs      17.48408794       1.16213294      17.78119805      -0.05271623      -0.10197518       0.10278746       1.00258040      -1.80960841      -3.08243062
Cs       7.89546494      19.03545669       5.32657849      -0.00874370      -0.00624631       0.17997557      -0.97879467       1.05153493       2.24953511
Cs      13.91877295       6.73988338       3.03639393       0.24409264      -0.08573607       0.05231088      -3.56317993      -0.93287924      -0.45994944
Cs       5.22446591       2.89619723       4.95249305       0.01862186       0.00689562       0.11188251       2.06207918       0.76109586      -2.59652151
Cs      17.20017022       1.40237539       2.99960845       0.08853592      -0.07771136       0.09164222       1.11069895       0.18228897      -0.39192908
Pb       2.99472102      19.36048453      17.88165282      -0.24616638      -0.13029318      -0.30952910       1.18116271       0.02776897       3.09557082
Pb      19.43274365       6.06609111       1.05115824      -0.10669082       0.20212090      -0.15069317       3.90594868      -1.62285446       1.05565613
Pb      10.12711223       3.51816568      17.76095643       0.27046237       0.04237359      -0.22313402       2.27445255       1.61876831       0.91264898
Pb      12.88380234       0.43418931       0.46340642      -0.13974037      -0.06048824      -0.13917922      -1.80897711      -3.40078777      -0.46290937
Pb       2.99429108      19.76948301       2.90798049      -0.18835729      -0.11050803       0.12406912      -2.47150702      -2.48067954       2.11032654
Pb      18.91878834       5.98604509       5.84360155       0.43140328       0.33638915      -0.13732069      -3.17956441      -0.53195318       2.44970001
Pb      10.07226602       3.33700744       2.97283691       0.20312050       0.14348917      -0.33414360       0.13978274       1.05625321      -3.25668609
Pb      12.62347904       0.49601924       5.47077890       0.14587385      -0.21226289      -0.03199865      -2.00289612      -0.09195876      -0.95963668
I        2.20300955       0.16902935       0.01442051       0.18229212      -0.05711120       0.10172304       1.69999997      -0.46636297      -2.95681053
I        1.52135228       3.53043879      17.21778890       0.31916349      -0.25294447       0.13755619      -1.72128789      -1.41705955      -3.08337006
I       11.45381747       5.43188824       0.76608336      -0.06720779       0.20603551       0.02206819      -1.25385477       1.47936158       0.57132831
I       10.74553116      19.65436279      18.08174241       0.23231264       0.25664139      -0.36211485      -1.76732393      -2.08505026      -3.03584107
I       17.72411599      18.27141711      18.42072101       0.19382933      -0.25718058      -0.20279354       3.67717369       0.34339181      -0.87488256
I        4.10971749       6.87886185       0.01750329      -0.05963653      -0.04850851       0.10359258       1.43122566       4.40911092       2.02864518
I       13.38003405       2.22941853      17.97397126      -0.02056582       0.00032383      -0.21975054      -0.08602492       0.34570955      -0.06576383
I        9.87287583       1.50902620       0.01508587      -0.56452396       0.03146222       0.21882212       3.08235013      -1.49529284       1.28096643
I        5.76392950      21.01641814      17.46535306      -0.27240741      -0.18314793       0.28959272       2.76643394      -0.54743745      -1.51384927
I       16.70097051       4.61422958       0.63359654       0.02982969       0.06834649       0.11299717      -2.63052224       1.18205726       1.09448673
I        7.48776942       4.98440578      17.53877417      -0.31505610      -0.10371089       0.05142184       1.18123935      -3.07714806       0.94737091
I       15.10057470      20.44530582       0.97303843       0.17702419      -0.11680545       0.01325128      -0.43232995      -1.83396618       0.17967609
I        2.28132210       0.05017845       4.98422125      -0.02768504       0.12765582       0.03974119       0.20707694      -0.58131023       0.55472665
I        2.08143379       3.46430791       2.77817415      -0.00080706       0.14680399      -0.14136209       0.82846888      -1.31660445       1.04095168
I       10.77960410       5.39478636       5.18895534       0.21318889       0.07095091       0.26131986      -2.96574150      -0.05797409       1.03684460
I       11.14204981      20.10893906       3.42295494      -0.05744224      -0.11134882       0.10017662       1.88467753      -1.12921529       1.86312621
I       18.13524613      18.39763631       3.22767894       0.13894107      -0.06095250       0.00924597      -0.37928944       0.58204180       0.15352047
I        4.07774699       6.75246624       5.19984648       0.13250868      -0.12058193       0.03936876      -0.01428585      -1.71329744       2.24739347
I       13.48136377       2.42666867       2.93546600       0.03948536       0.17838827       0.07478101      -0.97516274       1.50920394       1.82251256
I        9.19114025       1.43116187       5.41535571       0.02485099      -0.11962017      -0.07976001      -1.77489614       0.01180177       0.50796656
I        5.72804558      21.24935993       2.81225135       0.08086126       0.06095456       0.13471157      -0.07579515       0.04386243       1.51058243
I       16.41323625       4.32539130       5.64340224      -0.19494040      -0.12341146      -0.10676038       0.80949043      -0.65614092       0.44750096
I        7.49361049       4.96191751       2.36020544      -0.22154451       0.02855308       0.16424017      -0.37936458       0.48473526       0.63507967
I       14.78623203      20.10996105       6.24812828      -0.11491433       0.36582849      -0.07745232       3.01573502       2.44650298      -1.75553962
Cs       7.44972238      18.50525326      10.78233654       0.12929754       0.21379835      -0.18465816      -1.26884647      -1.21717139      -0.45899727
Cs      14.24612735       6.17258290       7.66346622      -0.09241840       0.33700954       0.25240584      -1.08187671      -1.75783770      -1.41080674
Cs       5.25140211       2.62230400      10.40916316       0.01325859       0.08769233      -0.15056966      -0.47280096      -1.84038663      -3.82897915
Cs      17.67349947       1.23894271       8.12942032      -0.22472833      -0.01757468      -0.05647050      -0.61324694       1.13903772       0.96592121
Cs       7.61774149      18.49221362      15.35450414       0.11844774       0.11517902       0.02168092       3.12884721       1.85913232      -1.17377512
Cs      14.04304807       6.40885774      12.70317688       0.08568122      -0.00888178       0.18473994       1.79174403       1.48011630       3.52412977
Cs       5.26565097       2.52591261      15.04230858      -0.05632418       0.10588201       0.04667283       2.12722437       0.42061126       1.50886353
Cs      17.21117014       1.70101420      12.97013130       0.01919762      -0.25354527       0.01783850       2.60526619      -0.21859883       2.26222861
Pb       3.02037185      19.74327846       7.76495917      -0.53447094      -0.17571690       0.33029804       0.50014846       2.58200068       3.25541911
Pb      19.35770086       5.78153249      10.42893925      -0.40054810       0.31922931       0.46582974      -0.46922245      -2.51382550      -1.06412896
Pb       9.98351258       3.46108903       7.81392150      -0.01054045       0.10377377       0.28721986       0.30934455      -0.71820670       0.08692419
Pb      12.42954748       0.11750285      10.29001046       0.08983194       0.13743364       0.11926558       1.76545799       0.53838439       0.77284936
Pb       2.63915727      19.45003285      12.94244867       0.02281124      -0.21984799       0.07860432      -0.88723180       1.86309119       1.88039556
Pb      19.09005014       5.56983077      15.73061793      -0.05314489       0.06758417      -0.15541963      -1.21248842       1.36350659       3.31682028
Pb      10.27781052       3.75800268      12.73048286      -0.00440380      -0.00049255       0.05931379       3.40338960      -0.89301441       2.39248908
Pb      12.51640344       0.44927521      15.30893176      -0.07427962      -0.31377732       0.03480466       1.21620820       2.94342723       0.05245830
I        2.28245621      -0.04287174      10.27941053      -0.08723956      -0.00485134      -0.41582815       0.22483293      -0.66403223      -0.23199205
I        1.94556756       3.47908584       7.56904043       0.29258701      -0.10222890       0.44475133      -2.76587526       0.62970484       0.63111741
I       11.11491365       5.57908701      10.06002657      -0.06011472      -0.02752531       0.14496410      -1.62226261      -4.35635027       1.94492519
I       10.75705181      20.20278655       8.13403561      -0.08940603      -0.53674650       0.03312897       0.10493466       1.26280900      -1.51079234
I       18.22293079      18.47609310       8.16492245      -0.10447447       0.25583223       0.28365475      -3.02737607       1.60897160      -2.04502382
I        4.07769536       6.79633493      10.29911515      -0.09084781      -0.11430356      -0.29220407      -0.58810074       0.21931036       1.05853370
I       13.15374776       2.49969443       8.12894584       0.21193276      -0.02015486      -0.22092559       0.19501645      -0.60546213       1.56051579
I        9.18193152       1.59400654      10.53505784       0.14340114      -0.04636287      -0.19338308       1.04577079       1.40067491      -1.51274468
I        5.49681929      21.30743784       7.96390844       0.33873668      -0.03980463       0.03857254      -2.85043853       1.31630350       1.78518143
I       16.42566313       4.56141357      10.48152383       0.15370770      -0.16574834      -0.14554210      -1.16582020       0.80001723       1.97038730
I        7.23752288       4.96196138       7.88390336      -0.13060082      -0.08150216      -0.07218230       2.95260331      -2.35032743      -3.28667958
I       14.88099634      20.38302482      10.82060555      -0.14531364      -0.02780763      -0.08624937       0.01998517      -1.20522061       0.99366346
I        2.07085076      -0.37626664      14.96734935      -0.04848066       0.22369216       0.04819598      -0.17630930       0.46330270      -0.02731456
I        1.90592581       3.43835547      12.61182954       0.12699478      -0.13897449      -0.05070859      -0.39441982       1.20123460      -0.40029543
I       11.41927122       5.47415095      15.27219255      -0.00748833       0.05559620       0.04293413       0.86389575      -0.85138770      -1.01712007
I       11.14813581      19.76687562      13.29078004      -0.26637207       0.05460352       0.13517846       0.38137237       1.49864149       1.82049244
I       17.98615211      18.85342735      13.47292995      -0.01640047      -0.35835610      -0.01806960       0.91555589       0.28935792      -1.62100161
I        3.97509213       6.73447338      15.04595055       0.13246715      -0.00332793       0.17423791       0.28052724      -1.23186086       1.95885006
I       13.46301697       2.24529209      12.48933609      -0.25464209       0.08530865       0.36957511      -1.08679601       0.40739869       1.61535585
I        9.35167500       1.72194833      15.13869675       0.03975447      -0.15985119      -0.13573054       0.35686266       1.39311846       0.16246486
I        5.37293233      20.95239382      13.05027197       0.07214687      -0.04955107       0.04170637       0.19060112      -0.03413872      -1.71347583
I       16.37622741       4.04037895      15.65966991      -0.19644010       0.18808649      -0.06991788       4.14727790      -1.44719293      -0.32536309
I        7.42914605       5.10099096      12.99906562       0.00488890      -0.18016755      -0.15503541      -0.35678621      -2.33596831       0.81265502
I       14.67117119      20.19839013      15.89627142       0.07450922       0.22009568      -0.06770466      -2.55887712       0.03261789      -2.02003000
Cs       8.07596606       8.43914531       0.22785247       0.01855309      -0.06900479       0.12460839      -0.68054448      -0.76893550      -2.28523214
Cs      14.05332769      17.11832805      18.07907306      -0.02462082      -0.09242719       0.11590847      -2.06964774      -0.33129680      -1.08587990
Cs       5.09487065      13.56862003       0.22404825       0.08667063      -0.11407738       0.27245118       0.33755680      -1.28940187       1.16013036
Cs      16.96003181      11.54484803      18.11190915      -0.00466966       0.01003332      -0.09015002       1.61077230      -0.32305594      -1.38638870
Cs       7.86234115       7.90411559       5.41197527       0.04405932       0.05128558      -0.13331661       2.51944804       0.87746680      -0.49204126
Cs      14.26393615      17.41547033       3.61401956       0.05771854      -0.08749029      -0.20318621      -1.67418622       0.29373634       1.73348374
Cs       5.32041659      13.35572486       5.16811907      -0.05237109       0.08049991       0.07085991       1.54402377       0.59703791      -0.07791163
Cs      17.14129614      12.22983807       3.46474377       0.01858818      -0.17912317      -0.04521389       2.91432846       3.94658752       0.71089783
Pb       2.80203700       8.70862073      17.42613979       0.31489935      -0.13503722       0.12658140       2.63103449      -2.44064902       1.33522780
Pb      19.17403037      16.27979854       0.72958043       0.02101757       0.08245592       0.23812776      -0.78427662       3.62121592      -3.75797699
Pb       9.69875760      14.48255569      17.91163571      -0.15647574      -0.17960492      -0.01167712      -2.48025103      -0.56115378      -1.41821188
Pb      12.30084143      11.17287125       0.50769817      -0.06151689       0.31629032       0.46652482      -2.75650504      -0.27564217      -3.27848236
Pb       3.20132014       8.70089856       2.67058286       0.37110199       0.18998469      -0.11389708      -2.79597924      -1.36908513       0.34645979
Pb      19.20048519      16.58065198       5.75725650       0.09809415      -0.08998781      -0.06018430       0.74575860       1.21931734      -1.97253800
Pb      10.04607621      14.74447472       3.10891788       0.16094642      -0.30458619       0.07718811      -0.13890734       2.86700413      -0.02137127
Pb      11.98643605      10.83981214       5.43041114       0.02720986       0.31382821       0.16363738       0.42016696      -2.72555546      -0.39275396
I        2.16808150      10.85406670       0.51757972      -0.06916147      -0.05654061      -0.05617608       1.91246828      -1.04358912      -0.22085760
I        1.55123656      13.94821107      17.94243392       0.02481737      -0.04819196      -0.08912782      -2.25407332      -1.17485298       0.91977057
I       10.93611566      16.76021824       0.82071416       0.32930342      -0.02155610       0.03538348       0.76159167       1.19684416      -0.15692309
I       10.96456371       8.92103340      17.95886054      -0.03155253      -0.08582515      -0.19408193      -2.23231880      -0.30387649      -1.17580473
I       18.24657821       7.74862168      17.98123210      -0.22469871      -0.13354291       0.15048512       1.27012370      -0.69821963      -1.17006981
I        3.84119972      17.75370596       0.70712857       0.19005737      -0.20249780      -0.03699015       1.41604083      -2.06941539       0.33727951
I       12.88711946      12.72907094      17.60170262      -0.22582100       0.18300593       0.31178382       2.68876050       1.46846528       0.98456366
I        9.14648607      12.76139764       0.60740057       0.15387330      -0.07744937       0.05948794       1.96532227      -0.13488984       2.37514494
I        5.73444579      10.14323630      17.31151039      -0.29267347      -0.00431707       0.15522895      -0.58755191       2.06422596       0.33034185
I       16.42405701      14.61835872       0.91998075       0.03295550       0.38955462      -0.09357235       0.80690165      -3.09462788       0.84572292
I        6.70756268      15.73753849      17.95191234       0.38743354      -0.12357032      -0.07877611      -0.18846733      -0.68247110       2.88569788
I       15.05627677       9.80967196       0.88272641       0.06012001       0.00125533      -0.04161269       1.40808846       0.40565843      -0.92363434
I        2.58486046      10.71848636       5.09109291      -0.46862089       0.10086190       0.22415136      -1.59953943       0.62293269       2.63794263
I        1.87827587      14.23208840       3.15596425       0.09314955       0.00315228      -0.09329052       2.93185243       1.28671003       0.37531976
I       11.11258551      16.37104256       5.79185763      -0.03966634       0.24541569      -0.20811294      -5.28000606       1.95716526      -0.90148987
I       10.94176646       9.13144035       2.92679519       0.05860107       0.13195874      -0.20707208       3.04438173      -0.34361813      -0.51675613
I       18.18473376       8.11724708       3.51301629       0.19407476      -0.01022848      -0.17283185      -0.18439806      -2.33604022       0.03667170
I        3.85288114      17.60583098       5.45964429       0.00448836       0.21359284      -0.00800578       2.64888481      -2.74717196       0.68315329
I       13.24509173      13.01416197       3.50093773      -0.36971922       0.14026191      -0.47190334       2.29206807      -2.57105773      -0.80798926
I        9.10516127      12.54145578       5.49860187      -0.21146149       0.07889243      -0.02278989       2.61209366       0.80750431       0.14267489
I        5.93296135      10.35522879       2.78894931      -0.09484905      -0.11469428      -0.07219089      -3.81765936       2.07821940      -0.34299610
I       16.63167803      15.01266515       5.73353769      -0.44370481      -0.12282757       0.17902187       1.08668950       1.26180647      -0.99620643
I        7.22786301      15.98581683       2.99856709      -0.03171399       0.00995048      -0.04097604      -3.07822695       0.08096128      -1.07402385
I       14.79412801       9.73133417       5.62055360       0.32067581      -0.28709428       0.01761137      -1.52043630       1.22184250       1.30592338
Cs       7.60536372       7.90617583      10.43240284       0.11164512       0.18938889      -0.16907072       3.29773423      -1.69481070      -0.78013725
Cs      14.09022281      16.80013328       8.43151472      -0.03005095       0.22235226      -0.03876573       1.98599907      -2.22321649       1.43099168
Cs       4.96500825      13.56394352      10.41158888       0.05007385      -0.11221337      -0.07399059      -2.04295791      -0.25061302       4.19504303
Cs      17.10359135      11.78045907       8.33564007      -0.12887307       0.12953636       0.03922364      -1.15250748      -1.91412821       0.27036537
Cs       8.05341864       8.09337162      15.07652841      -0.04173467       0.01123412       0.08205375      -0.15633985      -1.52538243      -1.30562162
Cs      13.87478760      17.49322802      13.30967152       0.11539709      -0.09490888      -0.01050869       0.85945468      -2.54865966      -5.59793216
Cs       4.41992474      13.41875764      15.56788440       0.27462337      -0.04069174      -0.24180578       4.27914258       0.86117215       1.81490680
Cs      17.16539871      12.09450626      13.29251814      -0.10128779      -0.25333865      -0.18076860      -1.00147706       0.80336887       0.08363244
Pb       3.26609325       8.80792906       7.47334328       0.21001711       0.18720120       0.42128556       2.32493530      -3.30671457       1.89182542
Pb      18.68712191      16.68227511      10.96582627       0.26611163       0.02002609      -0.25582266      -0.46791464      -3.84563705      -0.99803922
Pb       9.67439914      14.52157926       7.95973540       0.46772857      -0.00355373       0.09221222       4.48862816      -1.84273623       3.91148536
Pb      12.03703526      11.04707349      10.33797664       0.02622046      -0.29863746      -0.26539428       0.10469991      -0.68418309       1.51726332
Pb       3.08851465       8.79989895      12.59763152       0.22488041       0.02804631      -0.09452087      -0.66715399       0.16759327       1.78686966
Pb      18.76206178      16.34276547      15.57592030       0.15693990       0.26463116       0.49614461      -0.26756548      -0.36599175      -0.19440936
Pb       9.82197653      14.24961312      12.93441140      -0.50782844       0.41307333       0.10374289       0.02949162       0.59813588       0.53980845
Pb      12.02563540      10.77491754      15.22362947      -0.09496980      -0.00317527       0.06472809       0.73498848      -3.12267576      -0.22596645
I        2.19278313      10.57374050      10.25527848      -0.16086908       0.15829460      -0.36715552      -2.12686451       1.47286401      -2.17595995
I        1.60388240      14.25782752       7.82403883       0.37704703      -0.31610511       0.21215484      -1.26809435      -1.05402512      -0.08179414
I       10.82277534      16.40673711      10.68839998      -0.03224001      -0.13547024      -0.14085376       0.42188681      -1.80280444       1.11802694
I       11.01696242       9.06029070       7.95204404      -0.15865848      -0.15310028       0.07292787      -0.64790161       0.44310120      -1.14882318
I       18.19712992       8.10508372       8.25440747       0.02570378      -0.04942094       0.02531533       1.88486409       2.84344139      -2.56981044
I        3.52599247      17.62609500      10.28162857       0.07795863      -0.21218701      -0.01860574      -0.53160171       1.58572491      -0.72476782
I       12.96518176      13.02122670       7.87803664      -0.17230868      -0.03392973       0.12077550      -1.24428457      -2.84147041       0.79445638
I        8.95690206      12.62243244      10.34760146      -0.16583917      -0.36168951       0.11206161       2.27325632      -2.33358632      -0.53228989
I        6.01837593      10.56396436       7.42800373      -0.30257031      -0.29201403       0.32824227       1.79155674      -1.36168520      -0.54620611
I       16.11074714      15.01996864      11.01180442      -0.12222100      -0.09528086      -0.06759074       1.37784338       0.16530318      -1.57378879
I        6.97688201      15.94869280       7.85902251      -0.10734515       0.02032542      -0.02691243       2.49962113       1.06644050      -0.47816150
I       14.72657123       9.46969755      10.68157662       0.03399437       0.11860062      -0.09701830       0.00489214       2.35813413       1.30986813
I        1.69248228      10.39700885      14.96030868      -0.12645417       0.35749031       0.21439499      -0.53618196      -0.78111315       0.17433491
I        1.97815511      14.17553191      12.77185116      -0.19009821       0.00886229      -0.06399745      -0.09557868      -0.50711127      -0.31908378
I       10.88730611      16.13402245      15.49665660       0.04517177       0.14884239      -0.10190752      -0.01048922      -1.06222492      -1.51362794
I       10.57460269       9.19101129      12.76254337       0.14683912      -0.12109418      -0.11356326       3.30885255      -2.72365233       0.90462400
I       18.31839482       7.51387603      13.24208184      -0.09923519       0.24720088      -0.03618211      -1.13779360       1.63435114       0.40447679
I        3.61643219      17.15094949      15.37456247      -0.06632021       0.22900084       0.11843793       0.45191413      -0.18489869       1.20186255
I       12.74075591      12.83156812      12.88093136       0.18601463       0.27309901       0.24548262       0.49214691      -0.95670778      -0.27620065
I        8.89029513      12.43853912      15.59225977       0.07926308      -0.17987951      -0.13976321      -1.33525702      -1.36501820      -1.53607427
I        5.74048887      10.50419352      12.82523130       0.01629571      -0.00673314       0.01428744       1.12968628      -0.71514775      -1.15309321
I       16.13077893      14.67773601      15.67153181      -0.00982969       0.17702791      -0.03249191       1.20560392       3.47047603      -0.43587770
I        6.80867831      15.78397280      13.10790832       0.43660222      -0.38651189      -0.04475497      -0.58488115       0.13500979      -1.43847696
I       14.87943524       9.43982504      15.15829303      -0.17727153       0.07787122       0.11577501      -1.08416141      -2.22666842      -1.74818580
Cs      26.06982219      19.81783724       1.19028560      -0.04568934      -0.33576779       0.07661583      -3.13332297      -2.41466074      -0.33721200
Cs      32.74335971       6.78906642      18.44160043       0.03098662      -0.12315610      -0.25054367      -0.13525387      -1.01214485      -2.14409764
Cs      23.75395753       3.32682201       0.82937544      -0.06268616      -0.11790097       0.02953193      -0.28323743      -1.41484789      -2.42381575
Cs      35.46463662       1.41328485      18.02483898      -0.03196602       0.13508080      -0.09152360      -1.07251601      -2.86535701      -1.87886750
Cs      26.35446745      19.07688373       6.08961210      -0.13255810      -0.02750291      -0.03134380       1.20398422       2.08752163      -1.61926133
Cs      32.71471288       7.38492603       3.37109269       0.04924523      -0.16365747       0.10614983      -1.32694314       2.50494067      -0.42432008
Cs      23.74428683       3.18092284       5.62106230      -0.15996241       0.04191410      -0.02027152       1.33775429       3.81952242      -0.40828939
Cs      35.56195626       1.37854957       3.49222491       0.05584727       0.21570207      -0.06783320       0.84240259      -1.51028097      -1.14189991
Pb      20.86006994      19.82492765      18.32982350      -0.27176915       0.18875940       0.00537671       2.36093405      -0.54903098      -6.11730517
Pb       0.90766107       5.49805834       0.35615472       0.10663155      -0.22789360      -0.03282023      -1.44053749       3.18152318       0.58070648
Pb      28.44781179       3.74342543      17.98888563       0.30943025       0.00537285       0.09159641      -2.35683586      -2.60999359       2.68069205
Pb      30.84555331       0.80094076       0.63662548       0.19179886       0.15144436       0.05021644       0.40240967      -0.17356139      -2.16375401
Pb      21.16611968      19.88938812       3.82214430       0.11059843       0.27520533      -0.52392446       2.59453296       1.04892949      -5.98273613
Pb       0.91025253       5.37773551       5.32288812       0.05195939      -0.26418380      -0.09790076      -1.74084030       1.45532723      -1.54966763
Pb      28.73857207       4.07398071       3.34867685      -0.40556819       0.21476342      -0.01917605      -0.34080264       2.20961961      -3.23108193
Pb      30.38196177       0.77009283       5.50535472       0.35354418      -0.18460139       0.65473453       1.05430297      -1.86141917      -1.88430763
I       20.53345359       0.44947817       1.00013461       0.04376955       0.16634686      -0.16260564      -1.78307985       0.14098829       0.82883415
I       20.25317186       3.83881070      18.29593941       0.12111753      -0.06178224      -0.00306728       2.52832880      -0.96504614       2.40690003
I       30.03683104       5.87334699       1.00435798      -0.21444506       0.00552668      -0.11782402       0.33013928      -1.18988859       0.62899300
I       28.81389872      20.10841324      18.38469197       0.06198786      -0.30399832       0.09294103       0.12659084      -1.51089551       0.99114459
I       -0.13244209      17.79362148      17.87194152       0.03126647       0.03150795      -0.08446848       2.76403594       2.15029517      -0.52155830
I       22.63268441       7.62255743       0.87553160      -0.32044150       0.15966832       0.23471466       0.41263282      -1.04509724      -0.81730178
I       31.47277871       2.34084320      17.87456899       0.17000591       0.09571303       0.12866287       1.51062480      -1.76354706      -1.34212717
I       27.64295308       2.14871878       0.75721378       0.26774614       0.02585511       0.01936161       1.00132337      -1.06291415       2.49493400
I       23.50426346      21.28574258      18.36849201       0.28109616       0.22234803      -0.03597435      -0.83670264       0.99852880      -2.08822761
I       34.78991858       4.74019556       1.27834515       0.14411542       0.02242164      -0.14001844      -2.18802365      -0.84080233      -1.36302907
I       25.90327810       5.33469862      18.07184782      -0.39863772       0.16767573       0.04132224      -1.83593103      -0.05660022       2.69866771
I       33.32251045      20.97673437       1.12509187      -0.31830515       0.00041917       0.05105025      -0.66453605      -1.27964457       1.87494554
I       20.48458969       0.43961947       5.29664012       0.03004585      -0.03720579       0.62200237       2.25806546       3.06108051      -2.35869028
I       20.37614020       4.34672908       3.48904278       0.04966542      -0.19943093      -0.18232217      -3.21238428       1.46419007      -0.65214497