320
Lattice="31.705123562890115 0.00098397742904671 0.8597404125717283 0.019921660697184568 29.971723771014627 -2.6265873698904523 -0.4087198441794399 1.5773423540450537 17.106165182112967" Properties=species:S:1:pos:R:3:forces:R:3:momenta:R:3 pbc="T T T"
Cs       1.79402566       1.29743180       3.23330769      -0.14866752      -0.01674790       0.10128383      -1.50684796       1.18759827      -1.43348282
Cs       5.00702117       3.56541228       7.39636442       0.08822606      -0.05644653       0.05562943      -0.41507560       0.87810196      -1.45669121
Cs       1.45377756       9.15080934      15.74334341      -0.06451392       0.00968549      -0.13096780       0.07758995      -1.74009113       1.34834914
Cs       4.81557974      11.74103162       2.68642437      -0.05927047      -0.13953768      -0.05023311      -0.93492337      -0.61333167      -0.01276359
Cs       9.41838796       1.29978201       3.68588529       0.01636855      -0.07935424      -0.06550018      -0.29452427       1.94187402       1.05148010
Cs      13.04004264       3.29634049       7.64309596      -0.03967507       0.15624117       0.00127471       2.20953999      -1.33983876       1.88936227
Cs       8.81157341       9.84170397      15.47075828      -0.01480061      -0.21964736       0.00142778       1.98331834      -0.66015326       0.77241197
Cs      12.96827383      11.02162462       3.10135814       0.07016849      -0.03064197      -0.00792487      -1.01126904      -0.79380904      -1.12687678
Pb       2.50925145      13.74491261       6.75717028      -0.01630168       0.16514540       0.26738043      -0.31804475       0.33139285       0.07709709
Pb       6.59717109      13.83729096       6.70292884      -0.03517094       0.03023598       0.06184067      -0.74168877       0.35706796      -1.15740828
Pb       4.04755656       5.90041647       2.79459991       0.05242401       0.09601795      -0.06307410       1.97087226       0.88503036      -1.18732392
Pb       0.05414235       5.83557545       2.85171101      -0.09654916       0.06349558      -0.05411289       2.21404597      -1.43913913       0.13338022
Pb      10.56576766      13.46144412       6.99769106      -0.11245409       0.12685317      -0.16799176      -1.37569165       3.02537036       1.12423420
Pb      14.50798571      13.74384318       7.18133030       0.16758411      -0.15560768       0.12182167       1.39807077      -0.86799137      -2.19203459
Pb      11.88952685       5.86422222       2.87165169       0.15352122       0.08162214      -0.04889406      -1.75447391      -1.59283229      -1.35870878
Pb       7.97877955       5.88953512       2.80946726      -0.09596374       0.06550617      -0.09240676       1.14594505       1.07943668      -2.82108843
I        4.92060976      29.72398228      -1.12563301      -0.13205539      -0.18811569      -0.11415531      -0.65524042      -0.58974818      -0.77834874
I        2.14038225       4.20278643       0.86304456      -0.02475195      -0.08238606      -0.09197082       1.52017630       2.41552375      -1.86669256
I        4.43026272      30.01231362       3.13233448       0.01122346      -0.01490324      -0.00773215       3.61975340      -0.67551916      -4.01431622
I        2.16244576       4.83320322       5.18094268      -0.02841889      -0.03857364       0.14650305      -0.78403880      -0.13307013      -0.06276906
I        6.11532379       3.37261469       3.85976533      -0.07425885       0.14646304      -0.18197551      -3.76307492      -0.22525667       1.01579861
I        0.46381045       1.39999815       7.69554862       0.04188254      -0.13465606      -0.07087522       1.20957957       0.78222030      -0.59794956
I        5.95380158       7.98371126       4.35189315       0.11063979       0.04824572       0.11050984      -0.54802004      -0.28713504       1.64923667
I        0.61434406      12.06040687       4.85603405       0.14832397      -0.07141781       0.04590061      -1.15006163       0.29431462       1.42481865
I        5.94922730       6.28587648       0.15965809       0.13118158      -0.06237919       0.10072371       0.81606178      -0.86804662       0.23101263
I        0.75007431      12.21504447       0.81333678       0.06730796       0.16230163      -0.26514934       4.12324254      -1.61709501      -0.69910534
I        4.41833970      11.29089594       7.13275583       0.14076134       0.02485747       0.01422602       0.51700401       1.01530454      -0.13711238
I        2.05234781       8.42966349       2.23298135       0.07005151      -0.20978656       0.15551143       1.23769100       1.31930674      -0.55429525
I       12.50544498      29.53114765      -1.02927821      -0.08253035       0.10082856       0.32487680      -0.00447062      -0.08721661      -1.55479768
I        9.95026462       4.14065352       0.84136361       0.01175791       0.04518584       0.21282563      -1.25705092       0.02340954      -2.88416774
I       12.66700985      29.64878827       3.45448756      -0.10183219      -0.01526163      -0.19182113       2.37472462       2.25966352      -0.27810756
I       10.07492882       5.09223748       5.26591068      -0.31472732       0.00958691       0.06238409      -2.24873089       0.34966459      -2.93925161
I       13.73017531       3.41472593       3.71609440       0.24166911      -0.28556545      -0.02389494      -0.18931612      -0.25834446      -0.48094888
I        8.66982278       1.23870924       7.53708411       0.01598630      -0.15889684       0.03187639       0.17993150       0.17341436       1.68334106
I       13.88099153       7.50947807       4.98794383      -0.08103558       0.08974999       0.03751981       0.80188140      -1.15087485      -0.69757045
I        8.45446548      11.76789202       4.97862506       0.07316005       0.13347509      -0.10801590      -0.54050631       1.96462697      -1.26900511
I       14.25502973       6.46946372       0.74348200       0.02328809       0.03060951      -0.31488573      -0.32815488      -0.73359689      -2.15760427
I        8.49736073      12.19856232       0.65820617      -0.00059102       0.01637525       0.18878919       1.71207900       0.19756704       0.33278675
I       12.55917076      11.00465135       7.67686904      -0.06013542       0.26598042      -0.11669042       0.23225564       1.26745183      -0.10184794
I       10.01174843       8.35649706       2.01375167      -0.05182191       0.09146308       0.12596691       1.15836062       1.59002728       0.09755086
Cs       1.58966574       2.08610298      11.78639028      -0.14866752      -0.01674790       0.10128383      -1.50684796       1.18759827      -1.43348282
Cs       4.80266125       4.35408346      15.94944701       0.08822606      -0.05644653       0.05562943      -0.41507560       0.87810196      -1.45669121
Cs       1.65813748       8.36213817       7.19026082      -0.06451392       0.00968549      -0.13096780       0.07758995      -1.74009113       1.34834914
Cs       4.61121982      12.52970280      11.23950696      -0.05927047      -0.13953768      -0.05023311      -0.93492337      -0.61333167      -0.01276359
Cs       9.21402804       2.08845319      12.23896788       0.01636855      -0.07935424      -0.06550018      -0.29452427       1.94187402       1.05148010
Cs      12.83568272       4.08501167      16.19617855      -0.03967507       0.15624117       0.00127471       2.20953999      -1.33983876       1.88936227
Cs       9.01593333       9.05303280       6.91767569      -0.01480061      -0.21964736       0.00142778       1.98331834      -0.66015326       0.77241197
Cs      12.76391391      11.81029580      11.65444073       0.07016849      -0.03064197      -0.00792487      -1.01126904      -0.79380904      -1.12687678
Pb       2.30489153      14.53358379      15.31025287      -0.01630168       0.16514540       0.26738043      -0.31804475       0.33139285       0.07709709
Pb       6.39281117      14.62596214      15.25601143      -0.03517094       0.03023598       0.06184067      -0.74168877       0.35706796      -1.15740828
Pb       3.84319664       6.68908765      11.34768250       0.05242401       0.09601795      -0.06307410       1.97087226       0.88503036      -1.18732392
Pb      -0.15021757       6.62424663      11.40479360      -0.09654916       0.06349558      -0.05411289       2.21404597      -1.43913913       0.13338022
Pb      10.36140774      14.25011530      15.55077365      -0.11245409       0.12685317      -0.16799176      -1.37569165       3.02537036       1.12423420
Pb      14.30362579      14.53251436      15.73441289       0.16758411      -0.15560768       0.12182167       1.39807077      -0.86799137      -2.19203459
Pb      11.68516693       6.65289340      11.42473428       0.15352122       0.08162214      -0.04889406      -1.75447391      -1.59283229      -1.35870878
Pb       7.77441963       6.67820630      11.36254985      -0.09596374       0.06550617      -0.09240676       1.14594505       1.07943668      -2.82108843
I        4.71624984      30.51265346       7.42744958      -0.13205539      -0.18811569      -0.11415531      -0.65524042      -0.58974818      -0.77834874
I        1.93602233       4.99145761       9.41612715      -0.02475195      -0.08238606      -0.09197082       1.52017630       2.41552375      -1.86669256
I        4.22590280      30.80098480      11.68541707       0.01122346      -0.01490324      -0.00773215       3.61975340      -0.67551916      -4.01431622
I        1.95808584       5.62187440      13.73402527      -0.02841889      -0.03857364       0.14650305      -0.78403880      -0.13307013      -0.06276906
I        5.91096387       4.16128587      12.41284792      -0.07425885       0.14646304      -0.18197551      -3.76307492      -0.22525667       1.01579861
I        0.25945053       2.18866933      16.24863121       0.04188254      -0.13465606      -0.07087522       1.20957957       0.78222030      -0.59794956
I        5.74944166       8.77238244      12.90497574       0.11063979       0.04824572       0.11050984      -0.54802004      -0.28713504       1.64923667
I        0.40998414      12.84907805      13.40911664       0.14832397      -0.07141781       0.04590061      -1.15006163       0.29431462       1.42481865
I        5.74486738       7.07454766       8.71274068       0.13118158      -0.06237919       0.10072371       0.81606178      -0.86804662       0.23101263
I        0.54571439      13.00371565       9.36641937       0.06730796       0.16230163      -0.26514934       4.12324254      -1.61709501      -0.69910534
I        4.21397978      12.07956712      15.68583842       0.14076134       0.02485747       0.01422602       0.51700401       1.01530454      -0.13711238
I        1.84798789       9.21833467      10.78606394       0.07005151      -0.20978656       0.15551143       1.23769100       1.31930674      -0.55429525
I       12.30108506      30.31981883       7.52380438      -0.08253035       0.10082856       0.32487680      -0.00447062      -0.08721661      -1.55479768
I        9.74590470       4.92932470       9.39444620       0.01175791       0.04518584       0.21282563      -1.25705092       0.02340954      -2.88416774
I       12.46264993      30.43745945      12.00757015      -0.10183219      -0.01526163      -0.19182113       2.37472462       2.25966352      -0.27810756
I        9.87056890       5.88090866      13.81899327      -0.31472732       0.00958691       0.06238409      -2.24873089       0.34966459      -2.93925161
I       13.52581539       4.20339711      12.26917699       0.24166911      -0.28556545      -0.02389494      -0.18931612      -0.25834446      -0.48094888
I        8.46546286       2.02738042      16.09016670       0.01598630      -0.15889684       0.03187639       0.17993150       0.17341436       1.68334106
I       13.67663161       8.29814925      13.54102642      -0.08103558       0.08974999       0.03751981       0.80188140      -1.15087485      -0.69757045
I        8.25010556      12.55656320      13.53170765       0.07316005       0.13347509      -0.10801590      -0.54050631       1.96462697      -1.26900511
I       14.05066981       7.25813490       9.29656459       0.02328809       0.03060951      -0.31488573      -0.32815488      -0.73359689      -2.15760427
I        8.29300081      12.98723350       9.21128876      -0.00059102       0.01637525       0.18878919       1.71207900       0.19756704       0.33278675
I       12.35481084      11.79332253      16.22995163      -0.06013542       0.26598042      -0.11669042       0.23225564       1.26745183      -0.10184794
I        9.80738851       9.14516824      10.56683426      -0.05182191       0.09146308       0.12596691       1.15836062       1.59002728       0.09755086
Cs       1.80398649      16.28329369       1.92001401      -0.14866752      -0.01674790       0.10128383      -1.50684796       1.18759827      -1.43348282
Cs       5.01698200      18.55127417       6.08307074       0.08822606      -0.05644653       0.05562943      -0.41507560       0.87810196      -1.45669121
Cs       1.46373839      24.13667123      14.43004973      -0.06451392       0.00968549      -0.13096780       0.07758995      -1.74009113       1.34834914
Cs       4.82554057      26.72689351       1.37313069      -0.05927047      -0.13953768      -0.05023311      -0.93492337      -0.61333167      -0.01276359
Cs       9.42834879      16.28564390       2.37259161       0.01636855      -0.07935424      -0.06550018      -0.29452427       1.94187402       1.05148010
Cs      13.05000347      18.28220238       6.32980228      -0.03967507       0.15624117       0.00127471       2.20953999      -1.33983876       1.88936227
Cs       8.82153424      24.82756586      14.15746460      -0.01480061      -0.21964736       0.00142778       1.98331834      -0.66015326       0.77241197
Cs      12.97823466      26.00748651       1.78806446       0.07016849      -0.03064197      -0.00792487      -1.01126904      -0.79380904      -1.12687678
Pb       2.51921228      28.73077450       5.44387660      -0.01630168       0.16514540       0.26738043      -0.31804475       0.33139285       0.07709709
Pb       6.60713192      28.82315285       5.38963516      -0.03517094       0.03023598       0.06184067      -0.74168877       0.35706796      -1.15740828
Pb       4.05751739      20.88627836       1.48130623       0.05242401       0.09601795      -0.06307410       1.97087226       0.88503036      -1.18732392
Pb       0.06410318      20.82143734       1.53841733      -0.09654916       0.06349558      -0.05411289       2.21404597      -1.43913913       0.13338022
Pb      10.57572849      28.44730601       5.68439738      -0.11245409       0.12685317      -0.16799176      -1.37569165       3.02537036       1.12423420
Pb      14.51794654      28.72970507       5.86803662       0.16758411      -0.15560768       0.12182167       1.39807077      -0.86799137      -2.19203459
Pb      11.89948768      20.85008411       1.55835801       0.15352122       0.08162214      -0.04889406      -1.75447391      -1.59283229      -1.35870878
Pb       7.98874038      20.87539701       1.49617358      -0.09596374       0.06550617      -0.09240676       1.14594505       1.07943668      -2.82108843
I        4.91064893      14.73812040       0.18766068      -0.13205539      -0.18811569      -0.11415531      -0.65524042      -0.58974818      -0.77834874
I        2.15034308      19.18864832      -0.45024912      -0.02475195      -0.08238606      -0.09197082       1.52017630       2.41552375      -1.86669256
I        4.42030189      15.02645174       4.44562817       0.01122346      -0.01490324      -0.00773215       3.61975340      -0.67551916      -4.01431622
I        2.17240659      19.81906511       3.86764900      -0.02841889      -0.03857364       0.14650305      -0.78403880      -0.13307013      -0.06276906
I        6.12528462      18.35847658       2.54647165      -0.07425885       0.14646304      -0.18197551      -3.76307492      -0.22525667       1.01579861
I        0.47377128      16.38586004       6.38225494       0.04188254      -0.13465606      -0.07087522       1.20957957       0.78222030      -0.59794956
I        5.96376241      22.96957315       3.03859947       0.11063979       0.04824572       0.11050984      -0.54802004      -0.28713504       1.64923667
I        0.62430489      27.04626876       3.54274037       0.14832397      -0.07141781       0.04590061      -1.15006163       0.29431462       1.42481865
I        5.95918813      21.27173837      -1.15363559       0.13118158      -0.06237919       0.10072371       0.81606178      -0.86804662       0.23101263
I        0.76003514      27.20090636      -0.49995690       0.06730796       0.16230163      -0.26514934       4.12324254      -1.61709501      -0.69910534
I        4.42830053      26.27675783       5.81946215       0.14076134       0.02485747       0.01422602       0.51700401       1.01530454      -0.13711238
I        2.06230864      23.41552538       0.91968767       0.07005151      -0.20978656       0.15551143       1.23769100       1.31930674      -0.55429525
I       12.49548415      14.54528577       0.28401548      -0.08253035       0.10082856       0.32487680      -0.00447062      -0.08721661      -1.55479768
I        9.96022545      19.12651541      -0.47193007       0.01175791       0.04518584       0.21282563      -1.25705092       0.02340954      -2.88416774
I       12.65704902      14.66292639       4.76778125      -0.10183219      -0.01526163      -0.19182113       2.37472462       2.25966352      -0.27810756
I       10.08488965      20.07809937       3.95261700      -0.31472732       0.00958691       0.06238409      -2.24873089       0.34966459      -2.93925161
I       13.74013614      18.40058782       2.40280072       0.24166911      -0.28556545      -0.02389494      -0.18931612      -0.25834446      -0.48094888
I        8.67978361      16.22457113       6.22379043       0.01598630      -0.15889684       0.03187639       0.17993150       0.17341436       1.68334106
I       13.89095236      22.49533996       3.67465015      -0.08103558       0.08974999       0.03751981       0.80188140      -1.15087485      -0.69757045
I        8.46442631      26.75375391       3.66533138       0.07316005       0.13347509      -0.10801590      -0.54050631       1.96462697      -1.26900511
I       14.26499056      21.45532561      -0.56981168       0.02328809       0.03060951      -0.31488573      -0.32815488      -0.73359689      -2.15760427
I        8.50732156      27.18442421      -0.65508751      -0.00059102       0.01637525       0.18878919       1.71207900       0.19756704       0.33278675
I       12.56913159      25.99051324       6.36357536      -0.06013542       0.26598042      -0.11669042       0.23225564       1.26745183      -0.10184794
I       10.02170926      23.34235895       0.70045799      -0.05182191       0.09146308       0.12596691       1.15836062       1.59002728       0.09755086
Cs       1.59962657      17.07196486      10.47309660      -0.14866752      -0.01674790       0.10128383      -1.50684796       1.18759827      -1.43348282
Cs       4.81262208      19.33994534      14.63615333       0.08822606      -0.05644653       0.05562943      -0.41507560       0.87810196      -1.45669121
Cs       1.66809831      23.34800005       5.87696714      -0.06451392       0.00968549      -0.13096780       0.07758995      -1.74009113       1.34834914
Cs       4.62118065      27.51556468       9.92621328      -0.05927047      -0.13953768      -0.05023311      -0.93492337      -0.61333167      -0.01276359
Cs       9.22398887      17.07431507      10.92567420       0.01636855      -0.07935424      -0.06550018      -0.29452427       1.94187402       1.05148010
Cs      12.84564355      19.07087355      14.88288487      -0.03967507       0.15624117       0.00127471       2.20953999      -1.33983876       1.88936227
Cs       9.02589416      24.03889468       5.60438201      -0.01480061      -0.21964736       0.00142778       1.98331834      -0.66015326       0.77241197
Cs      12.77387474      26.79615768      10.34114705       0.07016849      -0.03064197      -0.00792487      -1.01126904      -0.79380904      -1.12687678
Pb       2.31485236      29.51944567      13.99695919      -0.01630168       0.16514540       0.26738043      -0.31804475       0.33139285       0.07709709
Pb       6.40277200      29.61182402      13.94271775      -0.03517094       0.03023598       0.06184067      -0.74168877       0.35706796      -1.15740828
Pb       3.85315747      21.67494953      10.03438882       0.05242401       0.09601795      -0.06307410       1.97087226       0.88503036      -1.18732392
Pb      -0.14025674      21.61010851      10.09149992      -0.09654916       0.06349558      -0.05411289       2.21404597      -1.43913913       0.13338022
Pb      10.37136857      29.23597718      14.23747997      -0.11245409       0.12685317      -0.16799176      -1.37569165       3.02537036       1.12423420
Pb      14.31358662      29.51837624      14.42111921       0.16758411      -0.15560768       0.12182167       1.39807077      -0.86799137      -2.19203459
Pb      11.69512776      21.63875528      10.11144060       0.15352122       0.08162214      -0.04889406      -1.75447391      -1.59283229      -1.35870878
Pb       7.78438046      21.66406818      10.04925617      -0.09596374       0.06550617      -0.09240676       1.14594505       1.07943668      -2.82108843
I        4.70628901      15.52679157       8.74074327      -0.13205539      -0.18811569      -0.11415531      -0.65524042      -0.58974818      -0.77834874
I        1.94598316      19.97731949       8.10283347      -0.02475195      -0.08238606      -0.09197082       1.52017630       2.41552375      -1.86669256
I        4.21594197      15.81512291      12.99871076       0.01122346      -0.01490324      -0.00773215       3.61975340      -0.67551916      -4.01431622
I        1.96804667      20.60773628      12.42073159      -0.02841889      -0.03857364       0.14650305      -0.78403880      -0.13307013      -0.06276906
I        5.92092470      19.14714775      11.09955424      -0.07425885       0.14646304      -0.18197551      -3.76307492      -0.22525667       1.01579861
I        0.26941136      17.17453121      14.93533753       0.04188254      -0.13465606      -0.07087522       1.20957957       0.78222030      -0.59794956
I        5.75940249      23.75824432      11.59168206       0.11063979       0.04824572       0.11050984      -0.54802004      -0.28713504       1.64923667
I        0.41994497      27.83493993      12.09582296       0.14832397      -0.07141781       0.04590061      -1.15006163       0.29431462       1.42481865
I        5.75482821      22.06040954       7.39944700       0.13118158      -0.06237919       0.10072371       0.81606178      -0.86804662       0.23101263
I        0.55567522      27.98957753       8.05312569       0.06730796       0.16230163      -0.26514934       4.12324254      -1.61709501      -0.69910534
I        4.22394061      27.06542900      14.37254474       0.14076134       0.02485747       0.01422602       0.51700401       1.01530454      -0.13711238
I        1.85794872      24.20419655       9.47277026       0.07005151      -0.20978656       0.15551143       1.23769100       1.31930674      -0.55429525
I       12.29112423      15.33395694       8.83709807      -0.08253035       0.10082856       0.32487680      -0.00447062      -0.08721661      -1.55479768
I        9.75586553      19.91518658       8.08115252       0.01175791       0.04518584       0.21282563      -1.25705092       0.02340954      -2.88416774
I       12.45268910      15.45159756      13.32086384      -0.10183219      -0.01526163      -0.19182113       2.37472462       2.25966352      -0.27810756
I        9.88052973      20.86677054      12.50569959      -0.31472732       0.00958691       0.06238409      -2.24873089       0.34966459      -2.93925161
I       13.53577622      19.18925899      10.95588331       0.24166911      -0.28556545      -0.02389494      -0.18931612      -0.25834446      -0.48094888
I        8.47542369      17.01324230      14.77687302       0.01598630      -0.15889684       0.03187639       0.17993150       0.17341436       1.68334106
I       13.68659244      23.28401113      12.22773274      -0.08103558       0.08974999       0.03751981       0.80188140      -1.15087485      -0.69757045
I        8.26006639      27.54242508      12.21841397       0.07316005       0.13347509      -0.10801590      -0.54050631       1.96462697      -1.26900511
I       14.06063064      22.24399678       7.98327091       0.02328809       0.03060951      -0.31488573      -0.32815488      -0.73359689      -2.15760427
I        8.30296164      27.97309538       7.89799508      -0.00059102       0.01637525       0.18878919       1.71207900       0.19756704       0.33278675
I       12.36477167      26.77918441      14.91665795      -0.06013542       0.26598042      -0.11669042       0.23225564       1.26745183      -0.10184794
I        9.81734934      24.13103012       9.25354058      -0.05182191       0.09146308       0.12596691       1.15836062       1.59002728       0.09755086
Cs      17.64658744       1.29792379       3.66317790      -0.14866752      -0.01674790       0.10128383      -1.50684796       1.18759827      -1.43348282
Cs      20.85958295       3.56590427       7.82623463       0.08822606      -0.05644653       0.05562943      -0.41507560       0.87810196      -1.45669121
Cs      17.30633934       9.15130133      16.17321362      -0.06451392       0.00968549      -0.13096780       0.07758995      -1.74009113       1.34834914
Cs      20.66814152      11.74152361       3.11629458      -0.05927047      -0.13953768      -0.05023311      -0.93492337      -0.61333167      -0.01276359
Cs      25.27094974       1.30027400       4.11575550       0.01636855      -0.07935424      -0.06550018      -0.29452427       1.94187402       1.05148010
Cs      28.89260442       3.29683248       8.07296617      -0.03967507       0.15624117       0.00127471       2.20953999      -1.33983876       1.88936227
Cs      24.66413519       9.84219596      15.90062849      -0.01480061      -0.21964736       0.00142778       1.98331834      -0.66015326       0.77241197
Cs      28.82083561      11.02211661       3.53122835       0.07016849      -0.03064197      -0.00792487      -1.01126904      -0.79380904      -1.12687678
Pb      18.36181323      13.74540460       7.18704049      -0.01630168       0.16514540       0.26738043      -0.31804475       0.33139285       0.07709709
Pb      22.44973287      13.83778295       7.13279905      -0.03517094       0.03023598       0.06184067      -0.74168877       0.35706796      -1.15740828
Pb      19.90011834       5.90090846       3.22447012       0.05242401       0.09601795      -0.06307410       1.97087226       0.88503036      -1.18732392
Pb      15.90670413       5.83606744       3.28158122      -0.09654916       0.06349558      -0.05411289       2.21404597      -1.43913913       0.13338022
Pb      26.41832944      13.46193611       7.42756127      -0.11245409       0.12685317      -0.16799176      -1.37569165       3.02537036       1.12423420
Pb      30.36054749      13.74433517       7.61120051       0.16758411      -0.15560768       0.12182167       1.39807077      -0.86799137      -2.19203459
Pb      27.74208863       5.86471421       3.30152190       0.15352122       0.08162214      -0.04889406      -1.75447391      -1.59283229      -1.35870878
Pb      23.83134133       5.89002711       3.23933747      -0.09596374       0.06550617      -0.09240676       1.14594505       1.07943668      -2.82108843
I       20.77317154      29.72447427      -0.69576280      -0.13205539      -0.18811569      -0.11415531      -0.65524042      -0.58974818      -0.77834874
I       17.99294403       4.20327842       1.29291477      -0.02475195      -0.08238606      -0.09197082       1.52017630       2.41552375      -1.86669256
I       20.28282450      30.01280561       3.56220469       0.01122346      -0.01490324      -0.00773215       3.61975340      -0.67551916      -4.01431622
I       18.01500754       4.83369521       5.61081289      -0.02841889      -0.03857364       0.14650305      -0.78403880      -0.13307013      -0.06276906
I       21.96788557       3.37310668       4.28963554      -0.07425885       0.14646304      -0.18197551      -3.76307492      -0.22525667       1.01579861
I       16.31637223       1.40049014       8.12541883       0.04188254      -0.13465606      -0.07087522       1.20957957       0.78222030      -0.59794956
I       21.80636336       7.98420325       4.78176336       0.11063979       0.04824572       0.11050984      -0.54802004      -0.28713504       1.64923667
I       16.46690584      12.06089886       5.28590426       0.14832397      -0.07141781       0.04590061      -1.15006163       0.29431462       1.42481865
I       21.80178908       6.28636847       0.58952830       0.13118158      -0.06237919       0.10072371       0.81606178      -0.86804662       0.23101263
I       16.60263609      12.21553646       1.24320699       0.06730796       0.16230163      -0.26514934       4.12324254      -1.61709501      -0.69910534
I       20.27090148      11.29138793       7.56262604       0.14076134       0.02485747       0.01422602       0.51700401       1.01530454      -0.13711238
I       17.90490959       8.43015548       2.66285156       0.07005151      -0.20978656       0.15551143       1.23769100       1.31930674      -0.55429525
I       28.35800676      29.53163964      -0.59940800      -0.08253035       0.10082856       0.32487680      -0.00447062      -0.08721661      -1.55479768
I       25.80282640       4.14114551       1.27123382       0.01175791       0.04518584       0.21282563      -1.25705092       0.02340954      -2.88416774