320
Lattice="36.61494431704515 0.8521064442996575 0.6472952383376436 -0.4899562435077865 21.43320960287554 0.4582089290160639 -0.349194964961731 -0.4123068262220005 19.635594233834194" Properties=species:S:1:pos:R:3:forces:R:3:momenta:R:3 pbc="T T T"
Cs       7.48018209      16.79521452      19.34786564      -0.02835011       0.00949954       0.07557052      -1.53653345      -0.61892824       0.28037395
Cs      14.19688275       4.48645504      17.08408574      -0.01529197      -0.01493579      -0.24209055      -0.45034090      -1.72582251       0.03297982
Cs       5.07744600       0.64605486      19.08174498      -0.01751392      -0.09851991      -0.03735993      -0.43700030      -1.56684964      -1.00248441
Cs      16.75059940      20.49551202      17.58848103      -0.07683983      -0.01092547      -0.19320357       0.89740502      -1.01108363      -1.59090333
Cs       7.80352343      16.76883939       4.61629720       0.00894571       0.12957148       0.02800029       0.05332901      -0.07393004      -0.27690481
Cs      14.19079011       4.37951700       2.05308178       0.13480818       0.17744957       0.28330891       0.69047242      -1.11918958      -0.48133390
Cs       5.31803285       0.88849907       4.25049346      -0.01698685       0.03460171       0.05717650      -4.02561467       0.28869476      -0.03231833
Cs      16.75359630      20.78277475       2.64023495       0.06980476       0.05150671       0.06104874      -0.26093785      -1.59810472      -1.75316373
Pb       2.59130610      17.49207881      16.94780825      -0.11507880      -0.14915389       0.08875477      -2.17641419      -1.25133907      -0.71720107
Pb      18.92840497       3.63329077      19.54883635      -0.03793232       0.34532103      -0.04155103      -1.47666293       1.31726617       1.34727504
Pb       9.86579410       1.70050951      16.95851788       0.15592268      -0.49260024      -0.49068450      -0.94247610      -3.89189585       0.25542009
Pb      11.93517218      19.44828765      19.56720505      -0.38008167      -0.16465660       0.03303000       0.06739311       1.23411137       0.44270747
Pb       2.88882300      17.98158035       2.25439841      -0.39247734      -0.28826569      -0.05242366      -0.88653476      -1.71585221      -5.03031063
Pb      19.12307829       3.95016541       4.76949449       0.03734208       0.38824552      -0.06039761      -0.07716613       2.89541669      -0.99341659
Pb      10.37032770       1.70551992       1.98582125      -0.12640097      -0.04664485       0.32128325      -0.26047056      -1.64914906      -3.47963832
Pb      11.91049049      19.71973612       4.89335622       0.11908407      -0.19298222       0.10759868       1.31041251       1.00585768       0.70385849
I        1.45747413      19.55992907      19.44707310       0.14217295      -0.24066873      -0.11621301       0.69725678      -0.81289228       1.24361045
I        1.98722208       1.65065211      16.70077652      -0.01606255      -0.12660015      -0.16175711      -1.19228206       0.58672831       0.22645433
I       11.06751534       3.35627214      19.20623725      -0.07256111      -0.00062486       0.09192709      -1.65220004      -2.65361401       1.22057788
I       10.76136242      17.49697826      17.25126153      -0.00215611       0.18785463      -0.16667906       0.55141476      -3.00901201       0.06426387
I       17.82576893      16.54134755      17.32544373       0.02827509      -0.18041214       0.03770439       0.21830618       0.25470356       0.18554242
I        3.68872931       4.71098461      19.28393395      -0.00182852       0.09544223       0.07327389       0.64599039       0.04001317       0.27387768
I       13.17786954       0.07958701      16.72486882      -0.30418290       0.05463971       0.09635873       1.15009493      -0.55143511      -1.13804699
I        8.60131970      20.74076130      19.68142983       0.08116929       0.15078209      -0.09323091       0.12300292      -0.33515964      -0.46664614
I        5.32538764      18.82587797      16.76032424       0.21162310       0.24963365       0.18364061       2.14428623       1.63627769       1.30835277
I       16.17595079       2.15892020      19.20000067       0.05159780      -0.13945699       0.16340609       0.17267020      -0.21932076       0.73105296
I        7.04298168       3.00721794      16.65110416       0.13623713      -0.07530645       0.09752424       0.70462589      -2.05058431      -1.44352897
I       14.54286685      17.86454212      19.83467016       0.07642121       0.13889944      -0.03342519       1.15867200       0.73787770       0.55934846
I        1.70940480      19.61129116       4.89286627      -0.08764456       0.13082041      -0.12682447       0.71264726      -0.89954288       0.71870863
I        1.95845498       1.75780393       2.03530248       0.09544989      -0.09991913      -0.05574230       0.37802839       1.03880987      -1.07544648
I       11.22801919       3.65910536       4.61206379      -0.01250742      -0.17405942       0.01216893      -1.89427520       0.84955143       0.30696776
I       10.79292321      17.87842800       2.41231397       0.21803068       0.17744300      -0.16027422       0.35783378      -1.83942013      -0.54307497
I       17.96156288      16.86370834       2.42931282       0.22607273      -0.21565936       0.17620047      -0.59150957      -1.85544326       0.10229447
I        3.99305452       5.07118212       4.28034522      -0.11222187       0.03130897       0.14514949       0.40827760      -0.56453983       2.43744179
I       13.49508976       0.32802205       2.06035289      -0.04507270       0.09224787       0.08281982       0.57641335       1.31205013      -0.30512241
I        8.84450680      21.04791569       4.84329487       0.12704776       0.37392327       0.10610847      -1.22237024       0.35568127      -1.83670613
I        5.53745208      19.35741301       2.40560907       0.26955303       0.07711942      -0.11892130      -0.04265607       0.93725181       0.18410915
I       16.46421962       2.43414555       4.80420977      -0.01654555      -0.09218677      -0.06371103       0.82949787       2.65971730      -0.97597962
I        7.68596123       3.27313098       1.87677881      -0.13441076      -0.08998185      -0.03105440       0.60081695      -0.74208932      -0.60031425
I       14.81313424      18.41004135       5.04795426      -0.17741031      -0.00274975      -0.07651001       1.50422797       0.72546629       0.19236740
Cs       7.65477957      17.00136793       9.53006853      -0.02835011       0.00949954       0.07557052      -1.53653345      -0.61892824       0.28037395
Cs      14.37148023       4.69260846       7.26628863      -0.01529197      -0.01493579      -0.24209055      -0.45034090      -1.72582251       0.03297982
Cs       5.25204348       0.85220828       9.26394787      -0.01751392      -0.09851991      -0.03735993      -0.43700030      -1.56684964      -1.00248441
Cs      16.92519688      20.70166543       7.77068392      -0.07683983      -0.01092547      -0.19320357       0.89740502      -1.01108363      -1.59090333
Cs       7.62892594      16.56268598      14.43409432       0.00894571       0.12957148       0.02800029       0.05332901      -0.07393004      -0.27690481
Cs      14.01619263       4.17336359      11.87087890       0.13480818       0.17744957       0.28330891       0.69047242      -1.11918958      -0.48133390
Cs       5.14343537       0.68234566      14.06829058      -0.01698685       0.03460171       0.05717650      -4.02561467       0.28869476      -0.03231833
Cs      16.57899881      20.57662134      12.45803207       0.06980476       0.05150671       0.06104874      -0.26093785      -1.59810472      -1.75316373
Pb       2.76590358      17.69823222       7.13001114      -0.11507880      -0.14915389       0.08875477      -2.17641419      -1.25133907      -0.71720107
Pb      19.10300245       3.83944419       9.73103924      -0.03793232       0.34532103      -0.04155103      -1.47666293       1.31726617       1.34727504
Pb      10.04039158       1.90666293       7.14072077       0.15592268      -0.49260024      -0.49068450      -0.94247610      -3.89189585       0.25542009
Pb      12.10976966      19.65444106       9.74940794      -0.38008167      -0.16465660       0.03303000       0.06739311       1.23411137       0.44270747
Pb       2.71422551      17.77542694      12.07219553      -0.39247734      -0.28826569      -0.05242366      -0.88653476      -1.71585221      -5.03031063
Pb      18.94848081       3.74401200      14.58729161       0.03734208       0.38824552      -0.06039761      -0.07716613       2.89541669      -0.99341659
Pb      10.19573022       1.49936651      11.80361837      -0.12640097      -0.04664485       0.32128325      -0.26047056      -1.64914906      -3.47963832
Pb      11.73589300      19.51358271      14.71115334       0.11908407      -0.19298222       0.10759868       1.31041251       1.00585768       0.70385849
I        1.63207161      19.76608248       9.62927599       0.14217295      -0.24066873      -0.11621301       0.69725678      -0.81289228       1.24361045
I        2.16181956       1.85680553       6.88297941      -0.01606255      -0.12660015      -0.16175711      -1.19228206       0.58672831       0.22645433
I       11.24211282       3.56242556       9.38844014      -0.07256111      -0.00062486       0.09192709      -1.65220004      -2.65361401       1.22057788
I       10.93595990      17.70313167       7.43346442      -0.00215611       0.18785463      -0.16667906       0.55141476      -3.00901201       0.06426387
I       18.00036641      16.74750096       7.50764662       0.02827509      -0.18041214       0.03770439       0.21830618       0.25470356       0.18554242
I        3.86332679       4.91713803       9.46613684      -0.00182852       0.09544223       0.07327389       0.64599039       0.04001317       0.27387768
I       13.35246702       0.28574043       6.90707171      -0.30418290       0.05463971       0.09635873       1.15009493      -0.55143511      -1.13804699
I        8.77591718      20.94691471       9.86363272       0.08116929       0.15078209      -0.09323091       0.12300292      -0.33515964      -0.46664614
I        5.49998512      19.03203138       6.94252713       0.21162310       0.24963365       0.18364061       2.14428623       1.63627769       1.30835277
I       16.35054827       2.36507362       9.38220356       0.05159780      -0.13945699       0.16340609       0.17267020      -0.21932076       0.73105296
I        7.21757916       3.21337136       6.83330705       0.13623713      -0.07530645       0.09752424       0.70462589      -2.05058431      -1.44352897
I       14.71746433      18.07069553      10.01687305       0.07642121       0.13889944      -0.03342519       1.15867200       0.73787770       0.55934846
I        1.53480731      19.40513775      14.71066339      -0.08764456       0.13082041      -0.12682447       0.71264726      -0.89954288       0.71870863
I        1.78385750       1.55165052      11.85309960       0.09544989      -0.09991913      -0.05574230       0.37802839       1.03880987      -1.07544648
I       11.05342171       3.45295195      14.42986091      -0.01250742      -0.17405942       0.01216893      -1.89427520       0.84955143       0.30696776
I       10.61832572      17.67227459      12.23011109       0.21803068       0.17744300      -0.16027422       0.35783378      -1.83942013      -0.54307497
I       17.78696539      16.65755493      12.24710994       0.22607273      -0.21565936       0.17620047      -0.59150957      -1.85544326       0.10229447
I        3.81845704       4.86502871      14.09814234      -0.11222187       0.03130897       0.14514949       0.40827760      -0.56453983       2.43744179
I       13.32049228       0.12186864      11.87815001      -0.04507270       0.09224787       0.08281982       0.57641335       1.31205013      -0.30512241
I        8.66990931      20.84176228      14.66109199       0.12704776       0.37392327       0.10610847      -1.22237024       0.35568127      -1.83670613
I        5.36285459      19.15125960      12.22340619       0.26955303       0.07711942      -0.11892130      -0.04265607       0.93725181       0.18410915
I       16.28962214       2.22799214      14.62200689      -0.01654555      -0.09218677      -0.06371103       0.82949787       2.65971730      -0.97597962
I        7.51136375       3.06697757      11.69457593      -0.13441076      -0.08998185      -0.03105440       0.60081695      -0.74208932      -0.60031425
I       14.63853675      18.20388794      14.86575138      -0.17741031      -0.00274975      -0.07651001       1.50422797       0.72546629       0.19236740
Cs       7.72516021       6.07860972      19.11876118      -0.02835011       0.00949954       0.07557052      -1.53653345      -0.61892824       0.28037395
Cs      13.95190462      15.20305985      17.31319021      -0.01529197      -0.01493579      -0.24209055      -0.45034090      -1.72582251       0.03297982
Cs       4.83246787      11.36265967      19.31084945      -0.01751392      -0.09851991      -0.03735993      -0.43700030      -1.56684964      -1.00248441
Cs      16.99557752       9.77890722      17.35937657      -0.07683983      -0.01092547      -0.19320357       0.89740502      -1.01108363      -1.59090333
Cs       8.04850155       6.05223459       4.38719273       0.00894571       0.12957148       0.02800029       0.05332901      -0.07393004      -0.27690481
Cs      13.94581199      15.09612180       2.28218624       0.13480818       0.17744957       0.28330891       0.69047242      -1.11918958      -0.48133390
Cs       5.07305473      11.60510387       4.47959792      -0.01698685       0.03460171       0.05717650      -4.02561467       0.28869476      -0.03231833
Cs      16.99857442      10.06616995       2.41113048       0.06980476       0.05150671       0.06104874      -0.26093785      -1.59810472      -1.75316373
Pb       2.83628422       6.77547401      16.71870379      -0.11507880      -0.14915389       0.08875477      -2.17641419      -1.25133907      -0.71720107
Pb      18.68342684      14.34989558      19.77794082      -0.03793232       0.34532103      -0.04155103      -1.47666293       1.31726617       1.34727504
Pb       9.62081597      12.41711432      17.18762235       0.15592268      -0.49260024      -0.49068450      -0.94247610      -3.89189585       0.25542009
Pb      12.18015030       8.73168285      19.33810059      -0.38008167      -0.16465660       0.03303000       0.06739311       1.23411137       0.44270747
Pb       3.13380112       7.26497555       2.02529394      -0.39247734      -0.28826569      -0.05242366      -0.88653476      -1.71585221      -5.03031063
Pb      18.87810017      14.66677021       4.99859895       0.03734208       0.38824552      -0.06039761      -0.07716613       2.89541669      -0.99341659
Pb      10.12534958      12.42212472       2.21492571      -0.12640097      -0.04664485       0.32128325      -0.26047056      -1.64914906      -3.47963832
Pb      12.15546861       9.00313132       4.66425175       0.11908407      -0.19298222       0.10759868       1.31041251       1.00585768       0.70385849
I        1.70245225       8.84332427      19.21796864       0.14217295      -0.24066873      -0.11621301       0.69725678      -0.81289228       1.24361045
I        1.74224395      12.36725692      16.92988099      -0.01606255      -0.12660015      -0.16175711      -1.19228206       0.58672831       0.22645433
I       10.82253721      14.07287695      19.43534172      -0.07256111      -0.00062486       0.09192709      -1.65220004      -2.65361401       1.22057788
I       11.00634054       6.78037346      17.02215707      -0.00215611       0.18785463      -0.16667906       0.55141476      -3.00901201       0.06426387
I       18.07074705       5.82474275      17.09633927       0.02827509      -0.18041214       0.03770439       0.21830618       0.25470356       0.18554242
I        3.44375118      15.42758942      19.51303842      -0.00182852       0.09544223       0.07327389       0.64599039       0.04001317       0.27387768
I       12.93289141      10.79619182      16.95397329      -0.30418290       0.05463971       0.09635873       1.15009493      -0.55143511      -1.13804699
I        8.84629782      10.02415650      19.45232537       0.08116929       0.15078209      -0.09323091       0.12300292      -0.33515964      -0.46664614
I        5.57036576       8.10927317      16.53121978       0.21162310       0.24963365       0.18364061       2.14428623       1.63627769       1.30835277
I       15.93097266      12.87552501      19.42910514       0.05159780      -0.13945699       0.16340609       0.17267020      -0.21932076       0.73105296
I        6.79800355      13.72382275      16.88020863       0.13623713      -0.07530645       0.09752424       0.70462589      -2.05058431      -1.44352897
I       14.78784497       7.14793732      19.60556570       0.07642121       0.13889944      -0.03342519       1.15867200       0.73787770       0.55934846
I        1.95438292       8.89468636       4.66376180      -0.08764456       0.13082041      -0.12682447       0.71264726      -0.89954288       0.71870863
I        1.71347686      12.47440873       2.26440694       0.09544989      -0.09991913      -0.05574230       0.37802839       1.03880987      -1.07544648
I       10.98304107      14.37571016       4.84116825      -0.01250742      -0.17405942       0.01216893      -1.89427520       0.84955143       0.30696776
I       11.03790133       7.16182320       2.18320950       0.21803068       0.17744300      -0.16027422       0.35783378      -1.83942013      -0.54307497
I       18.20654100       6.14710354       2.20020835       0.22607273      -0.21565936       0.17620047      -0.59150957      -1.85544326       0.10229447
I        3.74807640      15.78778692       4.50944968      -0.11222187       0.03130897       0.14514949       0.40827760      -0.56453983       2.43744179
I       13.25011164      11.04462685       2.28945735      -0.04507270       0.09224787       0.08281982       0.57641335       1.31205013      -0.30512241
I        9.08948492      10.33131089       4.61419040       0.12704776       0.37392327       0.10610847      -1.22237024       0.35568127      -1.83670613
I        5.78243020       8.64080821       2.17650460       0.26955303       0.07711942      -0.11892130      -0.04265607       0.93725181       0.18410915
I       16.21924150      13.15075035       5.03331423      -0.01654555      -0.09218677      -0.06371103       0.82949787       2.65971730      -0.97597962
I        7.44098311      13.98973578       2.10588327      -0.13441076      -0.08998185      -0.03105440       0.60081695      -0.74208932      -0.60031425
I       15.05811236       7.69343655       4.81884979      -0.17741031      -0.00274975      -0.07651001       1.50422797       0.72546629       0.19236740
Cs       7.89975770       6.28476313       9.30096406      -0.02835011       0.00949954       0.07557052      -1.53653345      -0.61892824       0.28037395
Cs      14.12650211      15.40921326       7.49539309      -0.01529197      -0.01493579      -0.24209055      -0.45034090      -1.72582251       0.03297982
Cs       5.00706536      11.56881308       9.49305233      -0.01751392      -0.09851991      -0.03735993      -0.43700030      -1.56684964      -1.00248441
Cs      17.17017501       9.98506063       7.54157945      -0.07683983      -0.01092547      -0.19320357       0.89740502      -1.01108363      -1.59090333
Cs       7.87390407       5.84608118      14.20498985       0.00894571       0.12957148       0.02800029       0.05332901      -0.07393004      -0.27690481
Cs      13.77121451      14.88996839      12.09998336       0.13480818       0.17744957       0.28330891       0.69047242      -1.11918958      -0.48133390
Cs       4.89845725      11.39895046      14.29739504      -0.01698685       0.03460171       0.05717650      -4.02561467       0.28869476      -0.03231833
Cs      16.82397694       9.86001654      12.22892760       0.06980476       0.05150671       0.06104874      -0.26093785      -1.59810472      -1.75316373
Pb       3.01088171       6.98162742       6.90090667      -0.11507880      -0.14915389       0.08875477      -2.17641419      -1.25133907      -0.71720107
Pb      18.85802433      14.55604899       9.96014370      -0.03793232       0.34532103      -0.04155103      -1.47666293       1.31726617       1.34727504
Pb       9.79541346      12.62326773       7.36982523       0.15592268      -0.49260024      -0.49068450      -0.94247610      -3.89189585       0.25542009
Pb      12.35474779       8.93783626       9.52030347      -0.38008167      -0.16465660       0.03303000       0.06739311       1.23411137       0.44270747
Pb       2.95920364       7.05882214      11.84309106      -0.39247734      -0.28826569      -0.05242366      -0.88653476      -1.71585221      -5.03031063
Pb      18.70350269      14.46061680      14.81639607       0.03734208       0.38824552      -0.06039761      -0.07716613       2.89541669      -0.99341659
Pb       9.95075210      12.21597131      12.03272283      -0.12640097      -0.04664485       0.32128325      -0.26047056      -1.64914906      -3.47963832
Pb      11.98087113       8.79697791      14.48204887       0.11908407      -0.19298222       0.10759868       1.31041251       1.00585768       0.70385849
I        1.87704974       9.04947768       9.40017152       0.14217295      -0.24066873      -0.11621301       0.69725678      -0.81289228       1.24361045
I        1.91684144      12.57341033       7.11208387      -0.01606255      -0.12660015      -0.16175711      -1.19228206       0.58672831       0.22645433
I       10.99713470      14.27903036       9.61754460      -0.07256111      -0.00062486       0.09192709      -1.65220004      -2.65361401       1.22057788
I       11.18093803       6.98652687       7.20435995      -0.00215611       0.18785463      -0.16667906       0.55141476      -3.00901201       0.06426387
I       18.24534454       6.03089616       7.27854215       0.02827509      -0.18041214       0.03770439       0.21830618       0.25470356       0.18554242
I        3.61834867      15.63374283       9.69524130      -0.00182852       0.09544223       0.07327389       0.64599039       0.04001317       0.27387768
I       13.10748890      11.00234523       7.13617617      -0.30418290       0.05463971       0.09635873       1.15009493      -0.55143511      -1.13804699
I        9.02089531      10.23030991       9.63452825       0.08116929       0.15078209      -0.09323091       0.12300292      -0.33515964      -0.46664614
I        5.74496325       8.31542658       6.71342266       0.21162310       0.24963365       0.18364061       2.14428623       1.63627769       1.30835277
I       16.10557015      13.08167842       9.61130802       0.05159780      -0.13945699       0.16340609       0.17267020      -0.21932076       0.73105296
I        6.97260104      13.92997616       7.06241151       0.13623713      -0.07530645       0.09752424       0.70462589      -2.05058431      -1.44352897
I       14.96244246       7.35409073       9.78776858       0.07642121       0.13889944      -0.03342519       1.15867200       0.73787770       0.55934846
I        1.77978544       8.68853295      14.48155892      -0.08764456       0.13082041      -0.12682447       0.71264726      -0.89954288       0.71870863
I        1.53887938      12.26825532      12.08220406       0.09544989      -0.09991913      -0.05574230       0.37802839       1.03880987      -1.07544648
I       10.80844359      14.16955675      14.65896537      -0.01250742      -0.17405942       0.01216893      -1.89427520       0.84955143       0.30696776
I       10.86330385       6.95566979      12.00100662       0.21803068       0.17744300      -0.16027422       0.35783378      -1.83942013      -0.54307497
I       18.03194352       5.94095013      12.01800547       0.22607273      -0.21565936       0.17620047      -0.59150957      -1.85544326       0.10229447
I        3.57347892      15.58163351      14.32724680      -0.11222187       0.03130897       0.14514949       0.40827760      -0.56453983       2.43744179
I       13.07551416      10.83847344      12.10725447      -0.04507270       0.09224787       0.08281982       0.57641335       1.31205013      -0.30512241
I        8.91488744      10.12515748      14.43198752       0.12704776       0.37392327       0.10610847      -1.22237024       0.35568127      -1.83670613
I        5.60783272       8.43465480      11.99430172       0.26955303       0.07711942      -0.11892130      -0.04265607       0.93725181       0.18410915
I       16.04464402      12.94459694      14.85111135      -0.01654555      -0.09218677      -0.06371103       0.82949787       2.65971730      -0.97597962
I        7.26638563      13.78358237      11.92368039      -0.13441076      -0.08998185      -0.03105440       0.60081695      -0.74208932      -0.60031425
I       14.88351488       7.48728314      14.63664691      -0.17741031      -0.00274975      -0.07651001       1.50422797       0.72546629       0.19236740
Cs      25.78765425      17.22126774      19.67151326      -0.02835011       0.00949954       0.07557052      -1.53653345      -0.61892824       0.28037395
Cs      32.50435490       4.91250827      17.40773336      -0.01529197      -0.01493579      -0.24209055      -0.45034090      -1.72582251       0.03297982
Cs      23.38491815       1.07210809      19.40539260      -0.01751392      -0.09851991      -0.03735993      -0.43700030      -1.56684964      -1.00248441
Cs      35.05807156      20.92156524      17.91212865      -0.07683983      -0.01092547      -0.19320357       0.89740502      -1.01108363      -1.59090333
Cs      26.11099559      17.19489262       4.93994482       0.00894571       0.12957148       0.02800029       0.05332901      -0.07393004      -0.27690481
Cs      32.49826227       4.80557022       2.37672940       0.13480818       0.17744957       0.28330891       0.69047242      -1.11918958      -0.48133390
Cs      23.62550501       1.31455229       4.57414108      -0.01698685       0.03460171       0.05717650      -4.02561467       0.28869476      -0.03231833
Cs      35.06106846      21.20882798       2.96388257       0.06980476       0.05150671       0.06104874      -0.26093785      -1.59810472      -1.75316373
Pb      20.89877826      17.91813203      17.27145587      -0.11507880      -0.14915389       0.08875477      -2.17641419      -1.25133907      -0.71720107
Pb       0.62093281       3.20723755      19.22518873      -0.03793232       0.34532103      -0.04155103      -1.47666293       1.31726617       1.34727504
Pb      28.17326625       2.12656274      17.28216550       0.15592268      -0.49260024      -0.49068450      -0.94247610      -3.89189585       0.25542009
Pb      30.24264434      19.87434087      19.89085267      -0.38008167      -0.16465660       0.03303000       0.06739311       1.23411137       0.44270747
Pb      21.19629516      18.40763358       2.57804603      -0.39247734      -0.28826569      -0.05242366      -0.88653476      -1.71585221      -5.03031063
Pb       0.81560613       3.52411219       4.44584687       0.03734208       0.38824552      -0.06039761      -0.07716613       2.89541669      -0.99341659
Pb      28.67779986       2.13157314       2.30946887      -0.12640097      -0.04664485       0.32128325      -0.26047056      -1.64914906      -3.47963832
Pb      30.21796265      20.14578935       5.21700384       0.11908407      -0.19298222       0.10759868       1.31041251       1.00585768       0.70385849
I       19.76494629      19.98598229      19.77072072       0.14217295      -0.24066873      -0.11621301       0.69725678      -0.81289228       1.24361045
I       20.29469423       2.07670534      17.02442414      -0.01606255      -0.12660015      -0.16175711      -1.19228206       0.58672831       0.22645433
I       29.37498749       3.78232537      19.52988487      -0.07256111      -0.00062486       0.09192709      -1.65220004      -2.65361401       1.22057788
I       29.06883458      17.92303148      17.57490915      -0.00215611       0.18785463      -0.16667906       0.55141476      -3.00901201       0.06426387
I       -0.48170323      16.11529432      17.00179611       0.02827509      -0.18041214       0.03770439       0.21830618       0.25470356       0.18554242
I       21.99620146       5.13703784      19.60758157      -0.00182852       0.09544223       0.07327389       0.64599039       0.04001317       0.27387768
I       31.48534169       0.50564024      17.04851644      -0.30418290       0.05463971       0.09635873       1.15009493      -0.55143511      -1.13804699
I       26.90879186      21.16681452      20.00507745       0.08116929       0.15078209      -0.09323091       0.12300292      -0.33515964      -0.46664614
I       23.63285980      19.25193119      17.08397186       0.21162310       0.24963365       0.18364061       2.14428623       1.63627769       1.30835277
I       34.48342294       2.58497343      19.52364829       0.05159780      -0.13945699       0.16340609       0.17267020      -0.21932076       0.73105296
I       25.35045383       3.43327117      16.97475178       0.13623713      -0.07530645       0.09752424       0.70462589      -2.05058431      -1.44352897
I       32.85033901      18.29059534      20.15831778       0.07642121       0.13889944      -0.03342519       1.15867200       0.73787770       0.55934846
I       20.01687696      20.03734439       5.21651389      -0.08764456       0.13082041      -0.12682447       0.71264726      -0.89954288       0.71870863
I       20.26592714       2.18385715       2.35895010       0.09544989      -0.09991913      -0.05574230       0.37802839       1.03880987      -1.07544648