320
Lattice="31.705123562890115 0.00098397742904671 0.8597404125717283 0.019921660697184568 29.971723771014627 -2.6265873698904523 -0.4087198441794399 1.5773423540450537 17.106165182112967" Properties=species:S:1:pos:R:3:forces:R:3:momenta:R:3 energy=-973.7209531985725 stress="0.0 0.0 0.0 0.0 0.0 0.0 0.0 0.0 0.0" pbc="T T T"
Cs       0.55083415       2.10581705       3.89316333       0.04802519       0.02050867       0.10109320      -0.27471057      -0.34458249      -0.85022608
Cs       5.52182663       5.69903954       8.73874111       0.02105711       0.10087741      -0.01137207       0.19042125       0.40085845       2.85891208
Cs       1.17536291      10.44824541      -0.54706038      -0.06099587      -0.07264821       0.15098429       1.69942324      -0.69524469       0.33332851
Cs       4.94953283      11.60438078       3.20200905       0.16050269       0.24014025       0.13978586      -1.13848998       0.13470372       0.62413936
Cs       9.06483741       2.86646777       4.82316995      -0.02209736       0.15764535       0.07057325       1.31379907       1.84337072       0.56160646
Cs      12.77013676       5.71313782       8.80095306       0.11752119       0.00037517      -0.07230480       1.50540869       3.12588411      -2.03620169
Cs       8.95709259       9.89194402       0.12204755       0.04245138       0.14757859       0.11065352      -3.74320267      -1.96168205       2.63229573
Cs      13.40668300      12.32400262       4.02469474      -0.05261610      -0.08710758       0.05890616      -0.30045544       0.24467403       2.01351190
Pb       2.44471001      15.95794714       7.13772652      -0.06603892      -0.33181403      -0.14078917       0.66661468      -0.05370651      -2.55134320
Pb       6.24994415      15.74803293       7.60365386       0.64527684      -0.10955084      -0.31455063      -0.98838613       1.11524332      -0.20754916
Pb       3.50208837       7.57550971       4.43006707      -0.29980183      -0.03142902       0.01741863       3.38712479      -0.74711443       3.00537443
Pb      31.16010640       7.37521104       5.45499222       0.05484176      -0.05665842      -0.14126625      -0.61575235       2.62658897      -0.29526550
Pb      10.37047316      15.45208449       8.21603627      -1.06803652      -0.22090508      -0.42181646      -2.80889917      -1.33233465      -3.60717962
Pb      14.26312827      15.64138098       8.30559480       0.39739367      -0.16248987      -0.18481529      -0.98742575       1.13657002       1.19825302
Pb      11.31573507       7.57097437       4.21597128       0.13979436       0.24241879       0.52529690      -1.23361604      -0.80583247       3.33515930
Pb       7.35807885       7.90982351       4.75964727       0.37086398      -0.17952269      -0.18213265      -3.59977528       1.80349339      -0.59139540
I        4.40165425       1.77291561       2.26692938      -0.11153627       0.04471522       0.02687417       0.60633970       0.28335995      -1.73136028
I        1.61163619       5.98840310       2.34140674      -0.14952314       0.12090553       0.21615757       1.52066992      -0.58521797      -0.40445931
I        5.01186375       1.39300882       6.40047524      -0.18387912      -0.02752986       0.06404014       3.56961155       4.05065338       2.87338548
I        1.74398665       6.71499649       6.86378096      -0.21997534      -0.00613103       0.06659806       1.58365966       0.49488447       0.74334400
I        5.65270245       5.09951275       4.79196015      -0.04057695       0.29885570      -0.15017727       1.49928420       0.40113337      -0.16364836
I        0.47156576       3.24333344       7.85105047      -0.31010990      -0.31985652       0.11154208      -1.17960012      -1.36667892       1.18159960
I        5.17872830       9.12585359       6.74176630       0.06163130       0.14185329       0.12066480      -2.12992994      -0.34912886      -1.33292257
I        0.23326495      14.10286155       5.23063738       0.13865712       0.09792178       0.15118838      -0.93655676       0.57825851      -1.23082851
I        5.60014870       9.31252739       2.42371569      -0.21282995       0.12578158      -0.43800808      -1.94920136       0.89519164       3.51509920
I        0.96830680      13.59147009       1.04651613      -0.20922660       0.06656486      -0.10661552      -0.95859640       2.91091343      -1.40534069
I        4.11883324      13.56089916       8.28889818      -0.11445380      -0.55965749       0.08374817       1.73995923      -4.09900164       1.18586768
I        1.24618695      10.12338592       4.37988834       0.03021115      -0.20186498      -0.14600842       1.08360373       2.06679238      -0.36055578
I       12.40351567       1.34862991       3.19456816       0.19545135      -0.12512030      -0.19679330      -0.36225395       0.34971976      -2.31518569
I        9.18637832       6.44825158       2.13164065      -0.13057485      -0.08562337       0.08864102      -2.64586106      -0.97720332      -2.98534840
I       12.27647234       1.61926217       7.04907149       0.09811755       0.09974583       0.18874091       1.15582011      -1.22822489       2.60248878
I        9.22596424       6.58117836       6.81260843       0.28785940       0.04942699      -0.13794093       1.85737598      -0.93992076       0.11821853
I       13.14521434       4.93202029       4.62114290       0.24883284      -0.02717888      -0.06399079       1.02253259      -0.85339624      -3.60656959
I        8.65858880       3.20807242       8.97839239      -0.09927160      -0.06975043      -0.02034050       2.52207245      -3.58756170       3.07866257
I       13.26423339       8.75569947       6.82941906       0.15879954      -0.07917565      -0.35682380      -4.94077673      -0.41566480       0.67654704
I        8.23785161      13.81447386       5.88302260       0.10990508       0.26495286       0.27499428      -0.14794879      -1.10199479      -1.63081880
I       13.45823044       8.83691275       2.15760102      -0.10646578      -0.06044112      -0.04010461       0.60559165       0.84333965       2.18594602
I        8.22680206      13.54201320       1.43033018      -0.12211885       0.24072364      -0.29361054      -0.75210583      -0.59552095      -3.76073523
I       12.09713408      13.01007190       9.05737375       0.31438249       0.06972206      -0.12318287      -0.42209332       0.99737623       0.48584318
I        9.64158498      10.39560023       4.34430445      -0.16587607      -0.06926598      -0.02445297       1.06492038      -0.53911795      -1.73845197
Cs       1.31253978       3.96487476      12.76391175       0.00179484      -0.28517642       0.10980905      -1.36541684      -0.62676559       0.35467363
Cs       5.38802714       5.32634854       0.04893033       0.03007595       0.01169977       0.20008769      -0.78032823      -0.58587742       2.17147498
Cs       0.66146991      10.70470723       8.35783661       0.10618718       0.16666032      -0.12972449      -2.74338466       0.23016981      -0.99325504
Cs       4.37615902      13.79756848      12.58098018       0.06883409       0.00478214      -0.09983351      -2.78016833       0.91506299      -0.28770991
Cs       8.84323937       3.90270228      13.30712874       0.00236358      -0.10242317      -0.04479276      -0.47235202      -2.62231626       0.50540878
Cs      13.16243503       4.67567346       0.77554781      -0.02183080       0.05806579       0.01292324       2.00459286       0.82595012      -0.83482764
Cs       8.82622098      10.56599430       8.72938304       0.08737824       0.07158842      -0.18804291       1.67786316       0.66583072      -2.75353710
Cs      13.02621089      13.60566655      12.77489327       0.03990851       0.05154645       0.05068558       0.51059869      -1.91236529      -1.94832840
Pb       2.35386603      15.15256301      -1.58940279       0.32073304       0.01136026       0.26075099       1.86966964      -0.02622422      -2.38320879
Pb       6.32912495      15.21622099      -0.97856896       0.00177151      -0.20435539       0.29817580      -1.65458391      -0.53441169       3.04262589
Pb       3.66724289       8.72961893      12.94714722       0.20181456       0.13477722       0.23017991      -0.05420295       1.36866311       0.12067007
Pb      31.45385211       8.38601528      13.73975291      -0.23722763       0.18317817      -0.15693639       1.32662397       0.49955105      -0.47431076
Pb      10.37888998      14.61575560      -0.75315006       0.25251586       0.12855441       0.08631345       1.41427308       4.98006018      -3.64430430
Pb      14.53820896      15.01543560      -0.01100762       0.03211327      -0.20891827      -0.35975372      -2.36711716       1.77673318      -1.64849731
Pb      11.77243348       8.70389733      13.20614636      -0.05284810       0.21235729      -0.45219453       1.32490831      -0.11324265       0.72893681
Pb       7.82849799       8.89949572      12.98474473      -0.31451272      -0.07236197       0.09678521       0.86972436       1.89929166       4.48070138
I        4.26827972       2.73849287      10.55229930       0.00681958      -0.10887955       0.09735348       2.76784491      -1.15969533       0.43380880
I        2.14320220       6.88149283      11.03790581      -0.29003671      -0.04536672      -0.23730518      -1.02032202       0.03153715       2.97834048
I        4.40348937       2.21675567      15.21171037      -0.15086963       0.03436605      -0.13057507       0.81587140      -1.66542832       0.39297769
I        1.68644111       7.66380024      15.40537284      -0.03876169       0.17466999      -0.25525710      -1.20383689       1.33327017       1.52059950
I        5.62416906       6.30164693      13.44215434       0.27287200       0.04964329      -0.06392152       1.35680795      -0.23892420       0.42596568
I        0.08574910       4.14759158      17.22939729       0.14634714      -0.17911238      -0.06400566       1.17132315       0.94972885      -2.56150759
I        5.60442896      10.37808824      15.03648602       0.21320948      -0.06191815      -0.08405525      -1.84581136      -1.53309023       1.25879457
I       -0.03735245      15.00179105      13.64128054       0.13880964      -0.01571053      -0.00194147      -0.41808238       0.40643035      -3.16355942
I        5.86204880       9.75452434      10.71890408      -0.18786653       0.01064428      -0.01176379      -0.75769181       0.77520331       1.93421406
I        0.24086532      14.60376298       9.35404738       0.12853146       0.09836656       0.06322734      -1.72167349      -2.01308420      -0.30766925
I        4.26692171      12.67038122      -0.98479859       0.07756700      -0.43415857      -0.01405847      -1.63975480      -1.74362508       1.67229905
I        1.55367847      11.27633002      12.59331192      -0.15547286      -0.26943597      -0.05291956      -0.28743751       0.09345534      -1.21473921
I       12.27184609       2.51135297      11.51351074       0.07226325      -0.12983989      -0.07626631      -0.98768729       0.55222193      -0.35890665
I        9.82603783       7.46215568      10.70569597      -0.13562848       0.01089190       0.49422995      -1.19918961       0.62938404      -0.25352930
I       12.34605328       2.83317629      15.78033080      -0.24764620      -0.04624499      -0.05673545      -0.06495678       1.43218333      -0.26727005
I        9.82593500       8.09632773      15.50807149      -0.13331012      -0.23693294       0.01689184       1.09338659       0.15684176      -1.55426291
I       13.45864578       6.09935326      13.44620930       0.19168932      -0.02563743       0.10634285       1.99459085      -1.38477911      -0.93881325
I        7.99479999       4.13093273      17.38310398       0.42381573       0.08827858      -0.04192179      -0.11089261      -0.67513265       3.05717894
I       13.96982908      10.21862143      15.14420438      -0.00498261      -0.05122651      -0.17787743       0.31127905      -3.83013192      -0.89960530
I        7.95099141      14.93603752      14.37104669       0.03217789      -0.12191434      -0.25179295       0.32850567      -0.14872410       0.99514229
I       13.90652776       9.40262629      10.67948864      -0.14552355       0.12726583      -0.05077219      -2.43553382      -1.94831024       1.16503919
I        7.82355510      14.35544177      10.16532975       0.04375440       0.18838478       0.10430973       0.32339007      -0.37230331      -2.60509671
I       12.51939405      12.18966171      -0.43508214      -0.03780744       0.21146870       0.09120947      -1.51625572      -1.15842579      -0.14884167
I        9.88665654      11.28129625      12.48586969      -0.09197700       0.04435350       0.14489331      -1.69158526       0.39424659      -1.51808192
Cs       0.95284763      17.12205255       3.14223172      -0.02027615       0.10122201      -0.11475392      -3.22744644       0.78598938      -3.18380952
Cs       5.11120074      21.24032577       7.33553673       0.15978011      -0.03183875       0.01667611       0.18103259      -0.07803305      -1.50651489
Cs       0.79560737      25.41377188      -1.75787335       0.11700517       0.06496045       0.02025898      -0.86979917      -0.85817020      -1.34627647
Cs       5.14496813      27.66947340       2.30850346       0.05080671      -0.04827581       0.12903253      -0.97570898       3.04784135      -1.81551016
Cs       9.00668678      17.53260383       3.67939217      -0.09829705      -0.03167628      -0.03322542      -0.95223977       1.44268409       0.00564622
Cs      12.65270876      20.58741578       7.79204584       0.02116290      -0.15258294      -0.14789071       1.81460048       0.15001750       1.59407387
Cs       8.91449840      24.94501945      -1.39105887       0.10746121       0.12080307       0.01513140       0.59586417      -2.30095799      -0.45588397
Cs      12.48645185      28.39536714       2.43150213       0.05678913       0.00970758       0.09887339       0.20525512      -2.33332703      -0.41233512
Pb       2.57357470      30.75911973       5.86996103       0.27908064       0.29560566       0.30470549       4.27753620      -1.13677623       1.64845934
Pb       6.61422549      30.54515739       6.58094038      -0.06889754       0.34434466       0.09045746       3.19887117      -4.33834000       1.08762542
Pb       3.76201602      22.90966514       2.90927292       0.10578457      -0.34878886      -0.17696899       0.80186860       0.96347474       0.98019971
Pb      31.45561935      22.55264638       3.57469797       0.06614518       0.12800859      -0.18133667       1.26583376       2.69090974       2.53528634
Pb      10.49627455      30.58407755       6.88071597      -0.12711713       0.02388887       0.05124886      -1.30366845      -0.57615879       0.20692290
Pb      14.42145689      30.85806331       6.94699603       0.07216984      -0.10054396      -0.26410963       0.18842972       0.73146654      -1.12486738
Pb      11.73864712      22.73833608       2.87275015      -0.14575770      -0.06609423      -0.21444323      -3.31553653       0.15007273      -1.07174245
Pb       7.65168775      22.83791260       2.85108483       0.09620146      -0.09976661      -0.23151044       1.84150910       1.22902915      -0.54579222
I        4.11132138      16.75937796       0.71353301      -0.00158580       0.03029501      -0.14175141       0.52719741       3.03457336      -0.21966014
I        1.97436790      20.89330540       1.07854421       0.09260697       0.02019956      -0.00024869       2.35158388       3.35043308       1.65277958
I        4.80308944      15.91037676       4.61702579      -0.36704168       0.01610828       0.19613955      -1.96312452      -2.78035791       0.72419758
I        1.65644522      21.72852249       5.15488603       0.12273552       0.14682643       0.05205519      -1.33197166      -2.42083989       1.57013838
I        5.90022192      20.21184032       3.58645724      -0.07467337       0.44983205      -0.33121142       1.46038347       0.44355865       1.75136671
I        0.24862836      18.29013754       6.64867144      -0.18820956       0.21715995       0.03760036      -1.59129518      -1.44518146      -2.68486289
I        5.88255629      24.07669590       5.23549716      -0.23261156       0.28653579      -0.03672661       0.59803433      -1.51574630       1.41157677
I        0.85865728      29.07466368       3.90200602      -0.11951437      -0.34389669      -0.19922358       0.21754683       1.67736391       1.93423281
I        5.80273243      24.30369664       0.37263424      -0.22189383      -0.39953882       0.73273766      -1.72526981       4.17659628      -2.55005481
I        0.51859007      28.22079508      -0.13409057      -0.08888722       0.20934315      -0.29582097      -3.27018026      -0.37081175      -0.10464095
I        4.46223804      28.29084465       6.76750061      -0.10825339      -0.26530746       0.06874065       4.13598267       0.35601637      -0.47224529
I        1.79196509      25.30224983       2.48164692       0.06552619      -0.08065259       0.03442778       2.29404931       1.16941309       1.12269734
I       12.07848055      16.34428343       1.52757608       0.12684906       0.07553577       0.16206558       0.22455041       2.15030220       2.06431296
I        9.64965740      21.05372361       1.00660291       0.02669650       0.01718591      -0.03897856       0.36704782       1.87280859      -0.13615668
I       12.27500028      16.28026996       5.95478868       0.23054275       0.02918860      -0.34603074      -0.12722388      -0.15877460      -0.04830105
I        9.54535424      21.65474760       5.07352239       0.25155949       0.07860729       0.19449105       1.14214124      -0.85505765      -1.07204385
I       13.75165060      20.32452006       3.65706459       0.06339674       0.08357706       0.01184471       0.77431067       0.99796675       1.37846834
I        8.40588279      18.31517152       7.34045065       0.05264292      -0.40024715       0.22579256      -1.44807666      -0.43195926      -1.10844337
I       13.73305004      24.86586944       4.35933676       0.04759553       0.01115901       0.02744155       0.69282150      -0.31453623      -0.18443438
I        8.58583017      28.74569695       4.96813839       0.09373642      -0.03282801      -0.08495586      -2.09445163       0.41940081       1.98737416
I       13.57382400      22.89675756      -0.12547648      -0.07991360       0.05606643       0.33491850       3.96161068       1.08420189       0.20582091
I        8.37794397      29.51277977       0.81757233       0.31412626      -0.13901912      -0.27755266      -1.34090705       1.49843509       1.03156480
I       12.57605015      28.09147374       6.99503993      -0.00024380      -0.04455099       0.19722072       1.10782204       1.36053929       2.09457636
I        9.95543752      25.49598177       2.63076543      -0.21677495      -0.32563318      -0.02931597      -1.68040988      -0.93838165       0.51876763
Cs       0.51939185      18.21646755      11.46132950      -0.01316828      -0.05006543      -0.02826458      -0.61290017       2.27009716      -2.11013699
Cs       5.08331757      20.28270239      -1.22406101       0.07694192       0.01000727       0.07299521      -0.33820984       2.62940625       2.45287084
Cs       1.24659680      25.44671668       6.56649450       0.00480397       0.11879246       0.07262334      -0.37520301       1.46608921       1.67895952
Cs       4.72227691      28.39739774      11.05503414       0.07924447       0.10077784      -0.02492814       1.98698574       1.89722354       0.35956365
Cs       8.37467603      18.04900942      12.03337556      -0.02435235       0.03180202      -0.06335861       1.04434484      -0.09118377       0.66092943
Cs      12.44810705      19.43143810      -1.55296172       0.11635515      -0.10813259       0.21046114       1.85336837       0.78954803       3.26372668
Cs       9.37120764      25.22481049       6.82449815       0.03323721       0.05694966       0.06100733       5.07674018      -0.42575249      -0.16123007
Cs      12.77521005      28.72865311      11.11847943      -0.05978467       0.11887767       0.01997985       0.08584742      -0.87244672      -1.32481423
Pb       2.59954264      29.84656739      -2.24258711       0.31979998      -0.00933474       0.00375016       0.50923428      -3.82748743       1.30360428
Pb       6.66314399      29.99559504      -1.91842610      -0.09582403      -0.07257483      -0.13156010       1.08991623      -1.64737175      -4.13924066
Pb       3.31638855      23.75805306      11.55969666       0.26526315       0.21895544       0.22262182       2.20465609       0.10900420       1.73675013
Pb      31.09222395      23.68013830      12.22326461       0.14578827      -0.20614061       0.13225707      -2.98286207      -1.47820839       1.30163838
Pb      10.69535999      30.00659867      -1.74305439      -0.38851148      -0.13759471      -0.11319103      -6.55002980       1.60328977       2.81291461
Pb      14.59191760      29.78433833      -1.70284014       0.00303370       0.13779395       0.19968423      -1.81071296       0.21960770      -1.05793399
Pb      11.28427126      23.59374478      11.49435969       0.25442303       0.05465309      -0.24623727      -0.46203209       3.17792578       3.93057012
Pb       7.45913773      23.86699005      11.54881788      -0.53596398       0.02080159      -0.12003555      -1.47581477       1.39551496       3.32547196
I        4.16326676      17.74886233       9.08306978      -0.21148200       0.23338976       0.16973566       1.06818859      -0.46827673      -1.23021405
I        1.56946877      21.74094988       9.74199464       0.09125175       0.18939880      -0.02913694      -2.29131264      -0.46121986      -0.51435081
I        4.23978432      17.85034138      13.38358535       0.12157005      -0.13412048       0.14375877       0.44541918      -1.59849467      -2.35074580
I        1.40342933      23.20522261      14.06818931      -0.09695814       0.02212279      -0.08609410      -0.11714030       0.96114398       0.18940263
I        5.53022944      21.36219691      12.11659539      -0.08165331       0.02222725      -0.06712249      -0.46367356      -1.77205667      -0.81951192
I       -0.03620917      19.07321426      15.40983493      -0.09777408       0.33718237      -0.04828312      -1.38564808       1.96953661      -2.07686121
I        5.57500815      25.68553790      13.59667465      -0.12335071      -0.48786853      -0.57151658       2.61315690      -2.64232707      -0.86544902
I        0.46665050      29.92645448      12.54045741       0.02300282       0.03283488      -0.00929916       0.51838336      -0.57504949       0.16201345
I        5.36960241      24.84345302       9.24269160      -0.01676981       0.04486682      -0.07894712      -1.23259581      -1.66181358       0.00130058
I        0.54501325      29.75093613       8.39393784      -0.02121187       0.19107232      -0.37661044       1.25790387      -1.50798339      -1.11399043
I        4.71923536      27.45415953      -1.44880973      -0.31484808       0.03266201      -0.10029310       0.47260985       1.33174455       0.32292418
I        1.33908298      26.36500749      11.00138375       0.00796650      -0.33507580      -0.09356281       0.31610949      -0.15017559       1.50485033
I       12.07666557      17.01814361      10.10042718       0.10332541       0.43091073       0.42687374       1.47460461      -0.74995111       0.27952318
I        9.35561751      21.87968296       9.60626872      -0.14282658      -0.02257347       0.03839348      -0.29740895       0.23420695       1.18540379
I       12.50673453      17.48843472      14.29354203      -0.23573938      -0.06646950       0.32820479      -0.70425618      -1.36531092       1.36760227
I        9.29687934      23.11801667      13.85437110       0.04065980      -0.27754515       0.54244053      -0.43394486       0.51679008       1.40374520
I       13.34453386      21.00140334      12.06707665       0.12086969      -0.08593984      -0.07286589       0.07887109       0.91046052      -1.95584863
I        8.04609719      19.01181409      16.23916775       0.28929357       0.28112450      -0.19682784       0.28686716       1.56732232       0.80968505
I       13.50985529      25.46417153      13.06119253      -0.05985748       0.02705226      -0.02096223       1.55670503       0.03568691      -2.30787500
I        8.31698266      29.95063284      13.20450178       0.06811838       0.01602579       0.28093841      -0.79184883      -0.32094390       2.80240388
I       13.17924041      23.97623934       8.77169201       0.11506746       0.12600916      -0.08628622      -0.63973555      -1.11474245      -0.07900814
I        8.32618859      29.87647254       9.30722597       0.00127062       0.07368427      -0.17853383      -0.95215135       0.57622057       1.02506931
I       12.62141578      27.27158584      -1.64732158      -0.31704755       0.05772957       0.01719243       0.45987126       1.58614477      -0.20415927
I        9.64712222      26.08991790      10.82626625      -0.01658122       0.36528933      -0.06432844      -0.51906685       1.24355075      -1.93469621
Cs      16.85666732       2.37818533       5.00153279      -0.09605590       0.02047226      -0.01936906      -0.11727714      -0.21565517      -0.35998767
Cs      20.56480455       5.06874662       8.75845737      -0.03695836      -0.04085848       0.15348811       3.13364155      -0.56201474       2.62484314
Cs      17.43268600       9.50203224       0.10925608       0.00251424      -0.03739662      -0.00202513       0.80425831       2.27752155      -0.29214924
Cs      20.67289573      12.96821191       3.83489315      -0.10488597       0.04141354       0.12367978       0.19658864      -2.15674111       0.50567653
Cs      24.53921286       3.18143321       5.20340186       0.23122715      -0.19030481      -0.21894549      -0.25026268      -1.67493656       1.23833031
Cs      28.45991994       5.87937828       9.36839153       0.09578370      -0.11947906      -0.15053278       0.79231230       1.17048364       2.87971276
Cs      24.26784226      10.42295963       0.22673369       0.08790251      -0.11768246      -0.04487672      -4.21392869      -0.80440016      -2.53475501
Cs      29.20302376      12.21972405       4.18921445      -0.00323380      -0.03481917       0.03493559       0.47494293       1.54368457       0.43772455
Pb      18.29974920      15.72398001       8.17157877       0.12435207       0.38780369      -0.33723742      -3.27141838      -0.53871097      -2.32498129
Pb      22.32102202      15.72306197       7.99148325      -0.60139654       0.33706295      -0.23327226       1.05802478      -3.71766824      -1.92811287
Pb      19.37160423       7.63579815       4.30411591      -0.40357157       0.24791537      -0.07253714      -1.97569779       0.19333767       0.53120470
Pb      15.45380566       7.40859722       4.45638540      -0.78221325       0.26345602       0.15077184       3.39277927      -2.18328547       5.37813877
Pb      26.24946426      15.72129449       7.95523213      -0.12136499      -0.10858941      -0.07655583      -0.60353532       3.45496100      -5.14290408
Pb      30.00184531      15.85100204       7.94539255       0.17391516      -0.48239905      -0.02533436      -3.44701877       1.48440779      -2.93906834
Pb      27.12132481       7.71927393       4.55348305       0.01537182      -0.00004392       0.07333728       1.64974385      -2.19621642       0.18676519
Pb      23.20409590       7.84825696       4.15128199       0.13630833       0.15817758      -0.05806413      -3.36111014       0.87435377      -0.52565846
I       20.58165564       1.38559280       3.36417506      -0.22494316      -0.07226382      -0.13518467      -0.99174044       0.19929503       1.52052181
I       17.17251815       5.94354045       2.35089048       0.31468568       0.05015862       0.00746609      -0.95225917       0.81537244       0.13257185
I       20.65208559       2.13223632       7.38850496      -0.27427307      -0.03749446       0.16022244      -2.01825198       1.38692833      -0.21867984
I       17.30213341       6.52236027       6.61988568       0.30056728      -0.07274843       0.30144700       0.62608380      -0.74645767       0.91009157
I       21.47593435       5.24966923       4.63273508      -0.21004342      -0.06231396       0.03550492       1.08874718      -1.08723209       2.18801335
I       16.55921365       3.16923542       8.95341444      -0.10551994       0.17638597       0.07521074      -1.79498813       0.14840289       2.26853302
I       21.26866537       9.59259826       6.08601523      -0.12096724      -0.14285861      -0.06338812      -1.67943130      -2.50038024       0.49667673
I       16.25510396      14.02547016       6.14207159      -0.02760994       0.10146816       0.35801055      -0.38684860       1.20919670       0.41373992
I       20.95378706       8.69285103       1.78388912       0.11016485      -0.17468641      -0.05306185      -1.16340790      -0.75065616      -1.40148144
I       16.88299678      13.61773371       2.04211830      -0.03156136       0.28486915      -0.24882140      -1.07488153       2.35642360      -0.74889818
I       20.28218312      13.15572445       8.07036812      -0.07287917      -0.09455696       0.29095913       2.64804114      -1.42095636       1.34936898
I       17.03688698      10.17637017       4.09450669       0.36308018      -0.20455278       0.08423737      -1.00783310       0.88673898      -3.25806902
I       28.21663769       1.49335217       2.57823400      -0.05516078      -0.03022578       0.02460612       1.59851406      -3.26057604      -1.78993137
I       25.33600202       6.18869492       2.31124216       0.06627306       0.16726359       0.22134411       1.03825559      -2.16375722       0.04799460