320
Lattice="25.356093371687486 -0.1065490082268892 -0.19187677835240669 0.07755788227136919 25.376386568457004 0.27590338859444424 0.1691801122122475 -0.29781874292918886 25.404906270035514" Properties=species:S:1:pos:R:3:forces:R:3:momenta:R:3 pbc="T T T"
Cs      13.94583647       6.76391138       4.24244917      -0.12278793      -0.03734674      -0.01236743      -2.12031237      -1.50922930      -0.45756903
Cs       7.47943687       0.18199648       4.49968415      -0.03239797       0.02065726      -0.03524857      -0.59242899      -1.51423421       1.36193873
Cs       6.61005352       0.75036839      10.53866304       0.06901029      -0.12381695      -0.01552537       0.25127157      -1.41721215      -1.24333495
Cs      13.12624819       7.24884196      11.18499572      -0.14319285       0.01172141      -0.06332466       0.45042515      -0.51029301      -0.65325062
Cs      13.02163424       0.61983341      10.55615338      -0.05493267       0.06630501       0.01815332      -0.60930369      -0.46520411      -0.40242564
Cs       6.60797492       7.21178236      10.59390982       0.06789597       0.22539410       0.13655840       0.77739608      -0.76760895      -1.52467351
Cs       7.19883042       6.48969733       4.40016437       0.10928482      -0.10578183      -0.06825677      -3.05988695      -0.48455808      -0.69622324
Cs      13.48429489       0.41879676       4.35194938       0.03648283      -0.04915625      -0.07774433      -0.50890586      -1.64969632      -2.32731270
Pb       3.84226163      22.85405209       7.77606235      -0.13588096       0.12790739      -0.01126745      -0.12071356       1.49925884      -1.12049741
Pb      10.12138084       3.69231434       7.72011663       0.02503059       0.15256328      -0.15611201      -0.44514275       0.75712734       0.54500537
Pb       3.71106515       3.96815082       7.72875392       0.09458653      -0.19805374      -0.25267242      -2.16621204      -2.30463068       0.84339389
Pb      10.29652287      22.72773038       7.72992122      -0.01160069      -0.21173797       0.07292939       1.15421746      -0.32761554       0.76324972
Pb       3.92453234      22.96893055       1.42321256      -0.23552358      -0.09424547      -0.02628559       1.08960786      -0.48941704      -4.53284414
Pb      10.19904651       3.55505514       1.34146880      -0.10132478       0.26588953      -0.01710711       0.20803213       0.92312764      -0.86050680
Pb       3.86829750       3.75856063       1.14768188      -0.01867006       0.04076435       0.27388637      -0.93726779      -1.29563490      -2.78242132
Pb      10.10825917      22.66875374       1.40178442       0.04321212      -0.19313625       0.03182004      -0.20413725       0.68995230      -0.01822626
I        3.11608789       0.86239063       7.92579945       0.11448006      -0.35033121      -0.08212949      -0.20141488      -1.08178005       1.29291802
I        9.68019556       6.90971129       8.19974866       0.00519554      -0.31197127      -0.06655356      -1.35459078      -0.55998773       1.55151367
I       17.13166198       7.00133414       7.02119318      -0.01389932       0.14874586       0.07986222      -0.48269668      -0.67151521       0.50883696
I       10.76664076       0.41397925       7.18374530      -0.00474388       0.30007545       0.01717972       0.75894245      -2.12153650       1.68074664
I       13.41928534       4.56579339       8.30107182       0.06186002      -0.10632846      -0.03573132       1.63606229       1.18784252      -0.40282011
I        6.91242358      10.27580559       8.04224357      -0.00048306       0.21011369       0.05985818      -0.06680829       0.76679476       0.27402389
I        7.12711685       3.16164617       6.89685180      -0.20242094       0.10991615       0.14274906       1.34041715       0.33197667      -0.31233655
I       13.28897439      21.99294324       7.29357949       0.09030541       0.10887824      -0.03075658      -0.11695495      -0.80577605      -0.86795048
I       17.05316230       6.96832979       1.20343985      -0.00716523      -0.02492810       0.06837948      -0.05019577      -0.49902301       0.38479644
I       10.42204466       0.42015625       1.54805301       0.16177280       0.02296017       0.11028314       0.32906279       0.11165524       0.59965695
I        3.10194739       0.52246997      13.34011394       0.11647973       0.10447741       0.07131386       0.67551376      -1.68569190      -1.11330496
I        9.65820254       6.63874192      13.53843668      -0.06861722       0.11188342      -0.04313598       0.07548780       0.81738937      -0.27556558
I        7.15866670       3.11968686      14.79748712      -0.28326671      -0.04701113      -0.11816000      -0.62184247      -1.07755726       0.46172506
I       13.32946826      22.15101278      14.55958990       0.01831297       0.04387127      -0.03846443      -0.39962041       1.51429524      -0.71341729
I       13.30794822       4.18004141       0.66543941       0.27042130      -0.03811746      -0.02277995      -0.70981451       0.55048947       0.93771232
I        6.80838723      10.78850479       0.80960762       0.14881600      -0.02541916      -0.05568102       1.16611858      -2.29337287      -0.14901206
I        3.11992266      10.07160514      10.73276297       0.21251006      -0.14133329       0.04159301      -0.87596419      -0.84352594      -1.10509982
I        9.85254498       3.10171298      10.80857911      -0.09913776      -0.07619398      -0.24295356       1.17015590      -0.62848825       1.78530128
I       16.85142306      23.25391894       4.43086428      -0.02560615       0.06829906       0.08005819       0.68072133       0.73314632      -0.48952520
I       10.78130194       3.93684128       4.33049879       0.00898974       0.13410230       0.39117446      -0.84468965      -1.47600959      -1.42033556
I        3.24112417       3.68710258       4.44844081       0.06535079      -0.06935574      -0.06649238      -1.57758399      -0.03385624       0.68934282
I        9.55229587       9.65452572       4.47950561       0.02443769      -0.03996885       0.02019465       0.58756201       2.78409849      -2.19642762
I       17.64388722       3.96970540      10.66651026      -0.17982617       0.01640555       0.03093469       0.37470098      -0.49391217      -0.12988262
I       10.58359075      23.09279799      11.00437060      -0.00295734      -0.04669707      -0.10817820       2.16842307       0.46048997       1.18984549
Cs      14.03042653       6.61500201      16.94490231      -0.12278793      -0.03734674      -0.01236743      -2.12031237      -1.50922930      -0.45756903
Cs       7.56402693       0.03308711      17.20213729      -0.03239797       0.02065726      -0.03524857      -0.59242899      -1.51423421       1.36193873
Cs       6.69464358       0.60145902      23.24111618       0.06901029      -0.12381695      -0.01552537       0.25127157      -1.41721215      -1.24333495
Cs      13.21083825       7.09993259      23.88744886      -0.14319285       0.01172141      -0.06332466       0.45042515      -0.51029301      -0.65325062
Cs      13.10622430       0.47092404      23.25860652      -0.05493267       0.06630501       0.01815332      -0.60930369      -0.46520411      -0.40242564
Cs       6.69256498       7.06287299      23.29636296       0.06789597       0.22539410       0.13655840       0.77739608      -0.76760895      -1.52467351
Cs       7.28342048       6.34078796      17.10261751       0.10928482      -0.10578183      -0.06825677      -3.05988695      -0.48455808      -0.69622324
Cs      13.56888495       0.26988739      17.05440252       0.03648283      -0.04915625      -0.07774433      -0.50890586      -1.64969632      -2.32731270
Pb       3.92685169      22.70514272      20.47851548      -0.13588096       0.12790739      -0.01126745      -0.12071356       1.49925884      -1.12049741
Pb      10.20597090       3.54340497      20.42256977       0.02503059       0.15256328      -0.15611201      -0.44514275       0.75712734       0.54500537
Pb       3.79565521       3.81924145      20.43120706       0.09458653      -0.19805374      -0.25267242      -2.16621204      -2.30463068       0.84339389
Pb      10.38111293      22.57882101      20.43237435      -0.01160069      -0.21173797       0.07292939       1.15421746      -0.32761554       0.76324972
Pb       4.00912240      22.82002118      14.12566569      -0.23552358      -0.09424547      -0.02628559       1.08960786      -0.48941704      -4.53284414
Pb      10.28363657       3.40614577      14.04392194      -0.10132478       0.26588953      -0.01710711       0.20803213       0.92312764      -0.86050680
Pb       3.95288756       3.60965126      13.85013502      -0.01867006       0.04076435       0.27388637      -0.93726779      -1.29563490      -2.78242132
Pb      10.19284923      22.51984437      14.10423755       0.04321212      -0.19313625       0.03182004      -0.20413725       0.68995230      -0.01822626
I        3.20067795       0.71348126      20.62825259       0.11448006      -0.35033121      -0.08212949      -0.20141488      -1.08178005       1.29291802
I        9.76478562       6.76080192      20.90220180       0.00519554      -0.31197127      -0.06655356      -1.35459078      -0.55998773       1.55151367
I       17.21625204       6.85242477      19.72364632      -0.01389932       0.14874586       0.07986222      -0.48269668      -0.67151521       0.50883696
I       10.85123082       0.26506988      19.88619844      -0.00474388       0.30007545       0.01717972       0.75894245      -2.12153650       1.68074664
I       13.50387540       4.41688402      21.00352496       0.06186002      -0.10632846      -0.03573132       1.63606229       1.18784252      -0.40282011
I        6.99701364      10.12689622      20.74469671      -0.00048306       0.21011369       0.05985818      -0.06680829       0.76679476       0.27402389
I        7.21170691       3.01273680      19.59930494      -0.20242094       0.10991615       0.14274906       1.34041715       0.33197667      -0.31233655
I       13.37356445      21.84403387      19.99603262       0.09030541       0.10887824      -0.03075658      -0.11695495      -0.80577605      -0.86795048
I       17.13775236       6.81942042      13.90589299      -0.00716523      -0.02492810       0.06837948      -0.05019577      -0.49902301       0.38479644
I       10.50663472       0.27124688      14.25050615       0.16177280       0.02296017       0.11028314       0.32906279       0.11165524       0.59965695
I        3.01735733       0.67137934       0.63766080       0.11647973       0.10447741       0.07131386       0.67551376      -1.68569190      -1.11330496
I        9.57361248       6.78765129       0.83598354      -0.06861722       0.11188342      -0.04313598       0.07548780       0.81738937      -0.27556558
I        7.07407664       3.26859623       2.09503398      -0.28326671      -0.04701113      -0.11816000      -0.62184247      -1.07755726       0.46172506
I       13.24487821      22.29992215       1.85713676       0.01831297       0.04387127      -0.03846443      -0.39962041       1.51429524      -0.71341729
I       13.39253828       4.03113204      13.36789255       0.27042130      -0.03811746      -0.02277995      -0.70981451       0.55048947       0.93771232
I        6.89297729      10.63959542      13.51206076       0.14881600      -0.02541916      -0.05568102       1.16611858      -2.29337287      -0.14901206
I        3.20451272       9.92269577      23.43521611       0.21251006      -0.14133329       0.04159301      -0.87596419      -0.84352594      -1.10509982
I        9.93713504       2.95280361      23.51103225      -0.09913776      -0.07619398      -0.24295356       1.17015590      -0.62848825       1.78530128
I       16.93601312      23.10500957      17.13331741      -0.02560615       0.06829906       0.08005819       0.68072133       0.73314632      -0.48952520
I       10.86589200       3.78793191      17.03295193       0.00898974       0.13410230       0.39117446      -0.84468965      -1.47600959      -1.42033556
I        3.32571423       3.53819321      17.15089395       0.06535079      -0.06935574      -0.06649238      -1.57758399      -0.03385624       0.68934282
I        9.63688593       9.50561635      17.18195875       0.02443769      -0.03996885       0.02019465       0.58756201       2.78409849      -2.19642762
I       17.72847728       3.82079603      23.36896340      -0.17982617       0.01640555       0.03093469       0.37470098      -0.49391217      -0.12988262
I       10.66818081      22.94388862      23.70682373      -0.00295734      -0.04669707      -0.10817820       2.16842307       0.46048997       1.18984549
Cs      13.98461541      19.45210466       4.38040086      -0.12278793      -0.03734674      -0.01236743      -2.12031237      -1.50922930      -0.45756903
Cs       7.51821581      12.87018976       4.63763584      -0.03239797       0.02065726      -0.03524857      -0.59242899      -1.51423421       1.36193873
Cs       6.64883246      13.43856167      10.67661473       0.06901029      -0.12381695      -0.01552537       0.25127157      -1.41721215      -1.24333495
Cs      13.16502713      19.93703524      11.32294741      -0.14319285       0.01172141      -0.06332466       0.45042515      -0.51029301      -0.65325062
Cs      13.06041318      13.30802669      10.69410507      -0.05493267       0.06630501       0.01815332      -0.60930369      -0.46520411      -0.40242564
Cs       6.64675386      19.89997564      10.73186151       0.06789597       0.22539410       0.13655840       0.77739608      -0.76760895      -1.52467351
Cs       7.23760936      19.17789061       4.53811606       0.10928482      -0.10578183      -0.06825677      -3.05988695      -0.48455808      -0.69622324
Cs      13.52307383      13.10699004       4.48990107       0.03648283      -0.04915625      -0.07774433      -0.50890586      -1.64969632      -2.32731270
Pb       3.80348269      10.16585880       7.63811065      -0.13588096       0.12790739      -0.01126745      -0.12071356       1.49925884      -1.12049741
Pb      10.16015978      16.38050762       7.85806832       0.02503059       0.15256328      -0.15611201      -0.44514275       0.75712734       0.54500537
Pb       3.74984409      16.65634410       7.86670561       0.09458653      -0.19805374      -0.25267242      -2.16621204      -2.30463068       0.84339389
Pb      10.25774393      10.03953709       7.59196952      -0.01160069      -0.21173797       0.07292939       1.15421746      -0.32761554       0.76324972
Pb       3.88575340      10.28073726       1.28526086      -0.23552358      -0.09424547      -0.02628559       1.08960786      -0.48941704      -4.53284414
Pb      10.23782545      16.24324842       1.47942049      -0.10132478       0.26588953      -0.01710711       0.20803213       0.92312764      -0.86050680
Pb       3.90707644      16.44675391       1.28563357      -0.01867006       0.04076435       0.27388637      -0.93726779      -1.29563490      -2.78242132
Pb      10.06948023       9.98056045       1.26383272       0.04321212      -0.19313625       0.03182004      -0.20413725       0.68995230      -0.01822626
I        3.15486683      13.55058391       8.06375114       0.11448006      -0.35033121      -0.08212949      -0.20141488      -1.08178005       1.29291802
I        9.71897450      19.59790457       8.33770035       0.00519554      -0.31197127      -0.06655356      -1.35459078      -0.55998773       1.55151367
I       17.17044092      19.68952742       7.15914487      -0.01389932       0.14874586       0.07986222      -0.48269668      -0.67151521       0.50883696
I       10.80541970      13.10217253       7.32169699      -0.00474388       0.30007545       0.01717972       0.75894245      -2.12153650       1.68074664
I       13.45806428      17.25398667       8.43902351       0.06186002      -0.10632846      -0.03573132       1.63606229       1.18784252      -0.40282011
I        6.95120252      22.96399887       8.18019526      -0.00048306       0.21011369       0.05985818      -0.06680829       0.76679476       0.27402389
I        7.16589579      15.84983945       7.03480349      -0.20242094       0.10991615       0.14274906       1.34041715       0.33197667      -0.31233655
I       13.25019545       9.30474995       7.15562779       0.09030541       0.10887824      -0.03075658      -0.11695495      -0.80577605      -0.86795048
I       17.09194124      19.65652307       1.34139154      -0.00716523      -0.02492810       0.06837948      -0.05019577      -0.49902301       0.38479644
I       10.46082360      13.10834953       1.68600470       0.16177280       0.02296017       0.11028314       0.32906279       0.11165524       0.59965695
I        3.14072633      13.21066325      13.47806563       0.11647973       0.10447741       0.07131386       0.67551376      -1.68569190      -1.11330496
I        9.69698148      19.32693520      13.67638837      -0.06861722       0.11188342      -0.04313598       0.07548780       0.81738937      -0.27556558
I        7.19744564      15.80788014      14.93543881      -0.28326671      -0.04701113      -0.11816000      -0.62184247      -1.07755726       0.46172506
I       13.29068932       9.46281949      14.42163820       0.01831297       0.04387127      -0.03846443      -0.39962041       1.51429524      -0.71341729
I       13.34672716      16.86823469       0.80339110       0.27042130      -0.03811746      -0.02277995      -0.70981451       0.55048947       0.93771232
I        6.84716617      23.47669807       0.94755931       0.14881600      -0.02541916      -0.05568102       1.16611858      -2.29337287      -0.14901206
I        3.15870160      22.75979842      10.87071466       0.21251006      -0.14133329       0.04159301      -0.87596419      -0.84352594      -1.10509982
I        9.89132392      15.78990626      10.94653080      -0.09913776      -0.07619398      -0.24295356       1.17015590      -0.62848825       1.78530128
I       16.81264412      10.56572565       4.29291258      -0.02560615       0.06829906       0.08005819       0.68072133       0.73314632      -0.48952520
I       10.82008088      16.62503456       4.46845048       0.00898974       0.13410230       0.39117446      -0.84468965      -1.47600959      -1.42033556
I        3.27990311      16.37529586       4.58639250       0.06535079      -0.06935574      -0.06649238      -1.57758399      -0.03385624       0.68934282
I        9.59107481      22.34271900       4.61745730       0.02443769      -0.03996885       0.02019465       0.58756201       2.78409849      -2.19642762
I       17.68266616      16.65789868      10.80446195      -0.17982617       0.01640555       0.03093469       0.37470098      -0.49391217      -0.12988262
I       10.54481181      10.40460470      10.86641890      -0.00295734      -0.04669707      -0.10817820       2.16842307       0.46048997       1.18984549
Cs      14.06920547      19.30319529      17.08285400      -0.12278793      -0.03734674      -0.01236743      -2.12031237      -1.50922930      -0.45756903
Cs       7.60280587      12.72128039      17.34008898      -0.03239797       0.02065726      -0.03524857      -0.59242899      -1.51423421       1.36193873
Cs       6.73342252      13.28965230      23.37906787       0.06901029      -0.12381695      -0.01552537       0.25127157      -1.41721215      -1.24333495
Cs      13.24961719      19.78812587      24.02540055      -0.14319285       0.01172141      -0.06332466       0.45042515      -0.51029301      -0.65325062
Cs      13.14500324      13.15911732      23.39655821      -0.05493267       0.06630501       0.01815332      -0.60930369      -0.46520411      -0.40242564
Cs       6.73134392      19.75106627      23.43431465       0.06789597       0.22539410       0.13655840       0.77739608      -0.76760895      -1.52467351
Cs       7.32219942      19.02898124      17.24056920       0.10928482      -0.10578183      -0.06825677      -3.05988695      -0.48455808      -0.69622324
Cs      13.60766389      12.95808067      17.19235421       0.03648283      -0.04915625      -0.07774433      -0.50890586      -1.64969632      -2.32731270
Pb       3.88807275      10.01694943      20.34056379      -0.13588096       0.12790739      -0.01126745      -0.12071356       1.49925884      -1.12049741
Pb      10.24474984      16.23159825      20.56052146       0.02503059       0.15256328      -0.15611201      -0.44514275       0.75712734       0.54500537
Pb       3.83443415      16.50743473      20.56915875       0.09458653      -0.19805374      -0.25267242      -2.16621204      -2.30463068       0.84339389
Pb      10.34233399       9.89062772      20.29442266      -0.01160069      -0.21173797       0.07292939       1.15421746      -0.32761554       0.76324972
Pb       3.97034346      10.13182789      13.98771400      -0.23552358      -0.09424547      -0.02628559       1.08960786      -0.48941704      -4.53284414
Pb      10.32241551      16.09433905      14.18187363      -0.10132478       0.26588953      -0.01710711       0.20803213       0.92312764      -0.86050680
Pb       3.99166650      16.29784454      13.98808671      -0.01867006       0.04076435       0.27388637      -0.93726779      -1.29563490      -2.78242132
Pb      10.15407029       9.83165108      13.96628586       0.04321212      -0.19313625       0.03182004      -0.20413725       0.68995230      -0.01822626
I        3.23945689      13.40167454      20.76620428       0.11448006      -0.35033121      -0.08212949      -0.20141488      -1.08178005       1.29291802
I        9.80356456      19.44899520      21.04015349       0.00519554      -0.31197127      -0.06655356      -1.35459078      -0.55998773       1.55151367
I       17.25503098      19.54061805      19.86159801      -0.01389932       0.14874586       0.07986222      -0.48269668      -0.67151521       0.50883696
I       10.89000976      12.95326316      20.02415013      -0.00474388       0.30007545       0.01717972       0.75894245      -2.12153650       1.68074664
I       13.54265434      17.10507730      21.14147665       0.06186002      -0.10632846      -0.03573132       1.63606229       1.18784252      -0.40282011
I        7.03579258      22.81508950      20.88264840      -0.00048306       0.21011369       0.05985818      -0.06680829       0.76679476       0.27402389
I        7.25048585      15.70093008      19.73725663      -0.20242094       0.10991615       0.14274906       1.34041715       0.33197667      -0.31233655
I       13.33478551       9.15584058      19.85808093       0.09030541       0.10887824      -0.03075658      -0.11695495      -0.80577605      -0.86795048
I       17.17653130      19.50761370      14.04384468      -0.00716523      -0.02492810       0.06837948      -0.05019577      -0.49902301       0.38479644
I       10.54541366      12.95944016      14.38845784       0.16177280       0.02296017       0.11028314       0.32906279       0.11165524       0.59965695
I        3.05613628      13.35957263       0.77561250       0.11647973       0.10447741       0.07131386       0.67551376      -1.68569190      -1.11330496
I        9.61239143      19.47584458       0.97393524      -0.06861722       0.11188342      -0.04313598       0.07548780       0.81738937      -0.27556558
I        7.11285559      15.95678952       2.23298568      -0.28326671      -0.04701113      -0.11816000      -0.62184247      -1.07755726       0.46172506
I       13.20609927       9.61172887       1.71918507       0.01831297       0.04387127      -0.03846443      -0.39962041       1.51429524      -0.71341729
I       13.43131722      16.71932532      13.50584424       0.27042130      -0.03811746      -0.02277995      -0.70981451       0.55048947       0.93771232
I        6.93175623      23.32778870      13.65001245       0.14881600      -0.02541916      -0.05568102       1.16611858      -2.29337287      -0.14901206
I        3.24329166      22.61088905      23.57316780       0.21251006      -0.14133329       0.04159301      -0.87596419      -0.84352594      -1.10509982
I        9.97591398      15.64099689      23.64898394      -0.09913776      -0.07619398      -0.24295356       1.17015590      -0.62848825       1.78530128
I       16.89723418      10.41681628      16.99536572      -0.02560615       0.06829906       0.08005819       0.68072133       0.73314632      -0.48952520
I       10.90467094      16.47612519      17.17090362       0.00898974       0.13410230       0.39117446      -0.84468965      -1.47600959      -1.42033556
I        3.36449317      16.22638649      17.28884564       0.06535079      -0.06935574      -0.06649238      -1.57758399      -0.03385624       0.68934282
I        9.67566487      22.19380963      17.31991044       0.02443769      -0.03996885       0.02019465       0.58756201       2.78409849      -2.19642762
I       17.76725622      16.50898931      23.50691509      -0.17982617       0.01640555       0.03093469       0.37470098      -0.49391217      -0.12988262
I       10.62940187      10.25569533      23.56887204      -0.00295734      -0.04669707      -0.10817820       2.16842307       0.46048997       1.18984549
Cs       1.26778978       6.81718588       4.33838756      -0.12278793      -0.03734674      -0.01236743      -2.12031237      -1.50922930      -0.45756903
Cs      20.15748356       0.12872198       4.40374576      -0.03239797       0.02065726      -0.03524857      -0.59242899      -1.51423421       1.36193873
Cs      19.28810021       0.69709389      10.44272465       0.06901029      -0.12381695      -0.01552537       0.25127157      -1.41721215      -1.24333495
Cs       0.44820150       7.30211646      11.28093411      -0.14319285       0.01172141      -0.06332466       0.45042515      -0.51029301      -0.65325062
Cs       0.34358755       0.67310791      10.65209177      -0.05493267       0.06630501       0.01815332      -0.60930369      -0.46520411      -0.40242564
Cs      19.28602161       7.15850786      10.49797143       0.06789597       0.22539410       0.13655840       0.77739608      -0.76760895      -1.52467351
Cs      19.87687711       6.43642283       4.30422598       0.10928482      -0.10578183      -0.06825677      -3.05988695      -0.48455808      -0.69622324
Cs       0.80624820       0.47207126       4.44788777       0.03648283      -0.04915625      -0.07774433      -0.50890586      -1.64969632      -2.32731270
Pb      16.52030832      22.80077758       7.68012396      -0.13588096       0.12790739      -0.01126745      -0.12071356       1.49925884      -1.12049741
Pb      22.79942753       3.63903984       7.62417824       0.02503059       0.15256328      -0.15611201      -0.44514275       0.75712734       0.54500537
Pb      16.38911184       3.91487632       7.63281553       0.09458653      -0.19805374      -0.25267242      -2.16621204      -2.30463068       0.84339389
Pb      22.97456956      22.67445587       7.63398283      -0.01160069      -0.21173797       0.07292939       1.15421746      -0.32761554       0.76324972
Pb      16.60257903      22.91565604       1.32727417      -0.23552358      -0.09424547      -0.02628559       1.08960786      -0.48941704      -4.53284414
Pb      22.87709320       3.50178064       1.24553041      -0.10132478       0.26588953      -0.01710711       0.20803213       0.92312764      -0.86050680
Pb      16.54634419       3.70528613       1.05174349      -0.01867006       0.04076435       0.27388637      -0.93726779      -1.29563490      -2.78242132
Pb      22.78630586      22.61547923       1.30584603       0.04321212      -0.19313625       0.03182004      -0.20413725       0.68995230      -0.01822626
I       15.79413458       0.80911613       7.82986106       0.11448006      -0.35033121      -0.08212949      -0.20141488      -1.08178005       1.29291802
I       22.35824225       6.85643679       8.10381027       0.00519554      -0.31197127      -0.06655356      -1.35459078      -0.55998773       1.55151367
I        4.45361529       7.05460864       7.11713157      -0.01389932       0.14874586       0.07986222      -0.48269668      -0.67151521       0.50883696
I       23.44468745       0.36070475       7.08780691      -0.00474388       0.30007545       0.01717972       0.75894245      -2.12153650       1.68074664
I        0.74123865       4.61906789       8.39701021       0.06186002      -0.10632846      -0.03573132       1.63606229       1.18784252      -0.40282011
I       19.59047027      10.22253109       7.94630518      -0.00048306       0.21011369       0.05985818      -0.06680829       0.76679476       0.27402389
I       19.80516354       3.10837167       6.80091341      -0.20242094       0.10991615       0.14274906       1.34041715       0.33197667      -0.31233655
I        0.61092771      22.04621774       7.38951788       0.09030541       0.10887824      -0.03075658      -0.11695495      -0.80577605      -0.86795048
I        4.37511561       7.02160429       1.29937824      -0.00716523      -0.02492810       0.06837948      -0.05019577      -0.49902301       0.38479644
I       23.10009135       0.36688175       1.45211462       0.16177280       0.02296017       0.11028314       0.32906279       0.11165524       0.59965695
I       15.77999408       0.46919547      13.24417555       0.11647973       0.10447741       0.07131386       0.67551376      -1.68569190      -1.11330496
I       22.33624923       6.58546742      13.44249829      -0.06861722       0.11188342      -0.04313598       0.07548780       0.81738937      -0.27556558
I       19.83671339       3.06641236      14.70154873      -0.28326671      -0.04701113      -0.11816000      -0.62184247      -1.07755726       0.46172506
I        0.65142158      22.20428728      14.65552829       0.01831297       0.04387127      -0.03846443      -0.39962041       1.51429524      -0.71341729