320
Lattice="31.705123562890115 0.00098397742904671 0.8597404125717283 0.019921660697184568 29.971723771014627 -2.6265873698904523 -0.4087198441794399 1.5773423540450537 17.106165182112967" Properties=species:S:1:pos:R:3:forces:R:3:momenta:R:3 energy=-977.8442060072138 stress="0.0 0.0 0.0 0.0 0.0 0.0 0.0 0.0 0.0" pbc="T T T"
Cs       0.61896249       2.51224894       4.13183830       0.10330622      -0.01962699       0.05666825       0.34552874       1.26148659      -0.23537255
Cs       5.82612157       6.24153363       8.71924155      -0.09698977       0.11558490      -0.03677689      -1.58852361      -1.16510207      -1.87654722
Cs       0.71346134      10.58617966      -0.69664890       0.07166533       0.00528817      -0.02653629       0.53471956       0.26035275       1.42194541
Cs       4.90603079      12.64743667       3.58423232       0.08503218       0.07971109       0.01215286       0.21870988       0.42343674       0.62781382
Cs       8.64791622       2.60319865       4.63615683      -0.00289674       0.13649699      -0.02406007       1.49119162       0.14764036       1.10640887
Cs      12.61144000       5.66813746       8.67809367      -0.04743392       0.07543230      -0.02376418      -1.34280026      -0.70113514       1.20025807
Cs       9.48076162       9.92983686      -0.32602080      -0.01910992      -0.01503454      -0.01493210       0.61234127      -1.43889442      -1.52651007
Cs      13.14804253      12.94846275       4.24621739      -0.07753199       0.03314051      -0.13390131      -1.88805080       3.64846642      -2.79300694
Pb       2.69098238      15.87250246       7.75250050      -0.09677029       0.00202923      -0.08913338       2.56481134       0.36018907      -4.28101006
Pb       6.72349316      15.91826743       7.58029318      -0.31499684      -0.09255926       0.33371764      -1.50904108       2.66193611       1.08654219
Pb       3.53444745       7.90069212       3.86307164       0.27740243       0.19235685       0.09329222      -0.61018479      -0.23675393       3.46166966
Pb      31.49103642       7.78867557       4.89630210       0.02226588      -0.21803589      -0.17291938      -3.80057618      -1.04966625       1.42163965
Pb      10.51307128      15.75665105       7.96551148      -0.03413727      -0.15191328       0.10784763      -0.78847112      -0.05714947       0.15184157
Pb      14.49984292      15.72125826       8.16175537      -0.18195202       0.06965242      -0.06164142       1.22993964      -0.58591255      -0.78583284
Pb      11.66119883       7.99370195       4.12897346      -0.33196441      -0.29746461      -0.02129761      -0.96790999       1.95367861      -2.56743425
Pb       7.58503826       8.21290466       3.87743283       0.16027506      -0.30579445       0.09062908      -0.38383810      -1.74991841      -1.42118705
I        4.32370579       1.95012477       2.24559754       0.12812624       0.08958804       0.08277414       1.19281131      -1.11635105       0.80992717
I        1.97453254       5.85104679       2.20972724      -0.26083011       0.04896843       0.00321979       0.50787222       0.61700314       1.36391579
I        4.46855781       1.75082211       6.45877527      -0.12531939       0.04218736      -0.04711721      -0.17451437      -1.72690409       0.53227364
I        1.94838191       7.32906911       6.52846067      -0.17877034      -0.03912418       0.06596471      -4.33258577       0.88148918       0.75213539
I        5.71817460       5.66870644       4.39998647       0.04062170      -0.10649065      -0.00573691       2.92463925       0.56361182      -0.16010990
I        0.31741358       3.33511778       8.22136926      -0.17479171      -0.05050846       0.04452901      -1.59856171      -1.25733947       1.51563911
I        5.73741285       9.55249351       5.88846783      -0.13025101       0.28455215       0.17515828      -1.68540591       1.24162636       0.39520680
I        0.64991511      14.44116243       5.48084219       0.10056445      -0.31632044      -0.37931614       0.27252954      -0.50271342      -1.12937256
I        5.60464995       9.01023140       1.46950113       0.14297863       0.08506348       0.14884197      -0.77433422       0.08000952      -0.20479012
I        0.56715779      14.16356082       1.16067358      -0.13013167      -0.05294746      -0.06265223       1.67468351       0.74795646       0.66537002
I        4.50013273      13.46686408       8.37257932       0.13505894      -0.15031193      -0.05981802       0.26736248      -1.14309217       1.17221550
I        1.47090497      10.52006070       3.21030051       0.06612309      -0.16096519       0.09579276       0.66330266      -1.23857296      -0.41831439
I       12.19161562       1.61403561       2.74232457       0.07687175       0.04144629      -0.06114310       0.47012614       0.79595417       1.32750615
I        9.74645187       6.27109961       2.23384921       0.00186723      -0.04566428      -0.16681993      -0.70525409      -0.86921901      -1.42310568
I       12.17354858       1.70552704       6.84865332       0.05991095       0.03660602      -0.21366709       2.24969723       0.94033164      -0.40648849
I        9.45700933       7.04744672       6.45598974       0.13036919       0.10669429      -0.33852441      -0.37170917       1.39143034       0.27274155
I       13.64194819       5.26491911       4.57561818      -0.20117259      -0.06347199       0.00271389       0.39091738       0.89179483      -2.77876173
I        8.56542928       3.53898661       8.75786320       0.07081030      -0.15713083      -0.13839985       1.59879570       1.27887543      -0.74394365
I       13.75492900       9.35358668       6.11540966      -0.02372653       0.23663294       0.16142839       0.20481409       1.13634902       0.33793651
I        8.46363125      13.91835645       5.99996017       0.13569345       0.05048059       0.05845138       0.28986671       0.44169115       1.43357699
I       13.67905330       8.62643728       1.57723250      -0.04611716       0.01654013       0.09790939       1.30240874       1.57399913       0.26832689
I        8.64287047      14.39212097       1.92829008      -0.29717483       0.06469155      -0.21511951      -1.87347484      -1.38477671      -1.10158512
I       12.39776896      13.14633788       8.56053389       0.09240532       0.26613714      -0.07679508      -0.49560281       0.26610104       0.23089391
I        9.85523938      10.65574698       3.70029709       0.08647300      -0.10153532      -0.02112559       2.40279202      -0.01774296       1.15130709
Cs       0.99745117       3.89735656      12.99530327       0.01255865      -0.05687078      -0.00310319       0.30539766      -0.30793066       1.64604890
Cs       5.33468473       5.52594853      -0.10934810       0.03368494      -0.14670258      -0.01991703       0.34950251       1.76810160       0.93602961
Cs       0.60819296      10.87966678       7.91994199       0.19019189       0.16992332       0.05302289      -1.09090330       1.07038091      -1.34622523
Cs       4.83856470      13.89587554      12.28397495       0.04529074      -0.01645929      -0.00477323       0.89762862      -0.69062471       0.17952122
Cs       8.97686211       4.15740344      12.92275797      -0.04429779       0.03272819       0.01536562      -0.91014034       0.48614784      -0.45680789
Cs      12.84946854       4.89528741      -0.09047975       0.01271643      -0.07889985       0.08147161      -0.00115914       0.04615654      -0.47931049
Cs       9.27222474      10.38206943       8.16887210      -0.03212739       0.06578551       0.12970576       0.75855040       1.63527202       1.20777407
Cs      12.67216093      14.16240104      12.80842865      -0.00185630      -0.03442425      -0.13862741       2.51921436      -2.71820173       1.55752858
Pb       2.48319515      15.27945290      -1.14659834       0.33644051       0.03834209      -0.00653603       1.50492079      -0.15652009      -2.71881740
Pb       6.52367862      14.94647912      -0.62234972       0.24028736       0.22747429       0.03329575       0.09583601       0.56592185      -0.35358162
Pb       3.33320234       8.97874178      12.59423366       0.33834751      -0.08724419      -0.02630560      -1.23646690      -1.84785689       1.75204327
Pb      31.06767250       8.76984555      13.46389374       0.42970770      -0.12936425      -0.22278224      -0.97049476       0.05270928      -0.13192486
Pb      10.46926581      15.22531015      -0.66952044       0.12272591       0.18490064      -0.07168166      -3.20878664       0.86854350      -0.37263455
Pb      14.55421554      14.96441241      -0.60253117      -0.21164288       0.42270147      -0.42838725      -0.70577101       3.13481817       0.91400193
Pb      11.61409724       9.05116536      12.60899155      -0.49788258      -0.31757974      -0.27722991       0.19617436       0.00469402      -0.32269972
Pb       7.26693090       9.09622965      12.74768844       0.24331798      -0.18726541      -0.36164477       1.80546844       0.38402915       0.99198124
I        4.47437797       3.08216283      10.66273348      -0.22549320      -0.28829929      -0.08471025      -0.26166389      -1.49603301      -1.64895969
I        1.67862722       7.05763219      10.76525604      -0.10986641       0.02256541      -0.01295171       1.73436133      -2.19542526       0.45673761
I        4.19231628       2.51782975      15.11384416      -0.03746869      -0.10064651       0.01784326      -0.17315720       0.69398167       0.21248286
I        1.48635213       8.29451620      15.11592770       0.01972562      -0.05086678      -0.01513763      -0.93070531       0.63294279      -1.06927275
I        5.41265507       6.24180649      12.72481529       0.17660243       0.47469383       0.11156918       0.76345867      -0.51180055       2.64312259
I       -0.01607586       4.11943136      16.88894356       0.01506886      -0.11428188       0.07267246      -1.41968655      -1.16596747       0.57954523
I        5.45685721      10.58861438      14.84721393      -0.09057867      -0.11828781      -0.28088585       1.66305697       0.02915986      -1.19742380
I        0.10044797      15.63838236      13.59816196       0.01393782       0.00822458       0.16190757      -0.97756040       0.27246865       0.23882706
I        5.48587381      10.14599553      10.15324470       0.00961764      -0.10847943       0.46971507       0.98268224       1.52508146       1.68392040
I        0.19881168      14.69929381       9.63498660       0.02194156      -0.03886293       0.18784046      -0.20779560      -1.56642087       2.75049796
I        4.22468031      12.49351335      -0.71334506      -0.02660320       0.27617770       0.00778613       0.79992714      -2.20831774       1.37803647
I        1.37993993      11.32506680      12.02364613      -0.03919353       0.18757704       0.00887204      -1.41196348       1.17343817       0.00799190
I       12.12096918       2.68850144      11.00263724       0.03444328      -0.01765676       0.16239526       1.78306190       0.98530937       1.34679501
I        9.32327968       7.64905628      10.39095893      -0.00907379       0.14776108       0.30233934       1.46713481      -1.37989076       0.33615234
I       12.05458641       2.67550314      15.47456025      -0.09943479       0.03598387      -0.17804419      -1.62097328       3.25526657      -2.31858144
I        9.54560971       7.99457846      14.90222142      -0.13358306      -0.11900910       0.11354076       2.24998841      -0.83057388      -0.29149103
I       13.24237845       6.19750240      13.13323140       0.13796623      -0.06862285      -0.03744481      -0.16476993      -1.97060591       0.25932459
I        8.04808764       4.14292257      17.16548129       0.22752732       0.08664654       0.00213255      -1.47508743       0.89359424       0.04782751
I       13.54919572      10.44113609      14.46201007       0.03770600       0.23808088       0.32887887      -0.36307942       0.22554147      -0.53936433
I        8.35915008      14.99457389      14.72523073      -0.34710703      -0.26955329      -0.35595405       0.79965962      -0.54763903       0.25633835
I       13.65933172       9.48484969      10.15866793       0.01845514      -0.01192625      -0.01770990      -0.84815399      -0.62626901      -1.10914506
I        8.30480369      15.15184561      10.39753865       0.01271733       0.11796858      -0.21872501       0.55465440      -2.79252969       0.69389056
I       12.44898095      12.71946880      -0.39858364       0.13548422      -0.31498367       0.26897522      -1.48953354      -1.66272969       0.80453895
I        9.62100797      11.57397331      12.56812168      -0.18671930      -0.09304447      -0.10555127      -0.44402015      -0.40181498       0.43668988
Cs       1.29636786      17.53164491       3.34178859      -0.09532637       0.12542572       0.02999335      -0.72513910       1.53361699       0.12762943
Cs       5.72995045      21.20168689       7.22084534      -0.04831691       0.02800878       0.13631178       2.03617390       0.64082593      -1.13189866
Cs       1.04341376      25.19303564      -1.98360335       0.05336278       0.00717390       0.12416561       0.89271799      -1.06361512       0.21996049
Cs       4.86162989      27.92552074       2.72137458       0.08509183       0.04838393      -0.03922457      -2.50394436       0.07021208       0.49556601
Cs       9.86278142      18.38887393       3.26364544      -0.08822759      -0.01182870      -0.00249599      -0.37458018       0.76946648      -0.13787180
Cs      12.86669961      20.25538984       7.19363275      -0.05099359       0.06562061       0.03006575       0.42649902       0.33292636       2.29344235
Cs       9.50776981      24.43877684      -1.78870508       0.03419362       0.18406021       0.05721393       0.15225087      -1.45120792      -1.39476290
Cs      13.12499245      28.11960976       2.43383704      -0.04913381       0.00173234      -0.00539653      -2.23825697       0.09422671       0.96264621
Pb       2.47984263      30.95752004       6.25766587       0.42380271       0.08205311       0.03736017       0.13523681       1.86300986      -0.19799357
Pb       6.49621156      31.08104277       6.39109283      -0.25505093      -0.17206247      -0.01912008      -0.95635060       0.46293299       2.12061895
Pb       3.87464569      22.86751291       2.91710656      -0.21251979      -0.08591436      -0.09691787       0.70035197       1.62548113      -0.50619279
Pb      31.64989481      22.70088434       3.69058132      -0.11493141      -0.10949124      -0.17173507      -0.70194057       0.89300763       0.58147699
Pb      10.39432359      30.65541541       6.53145809      -0.27458257      -0.09928769       0.14691564       2.63221705       1.47972017      -0.54030936
Pb      14.28743372      31.03339649       6.60489846      -0.09272805      -0.39233222       0.01924034       1.05416433       0.83516822      -0.80157208
Pb      11.67271607      23.13770482       2.58421634       0.18683387      -0.14410711       0.17525544       1.60153628      -0.70720444       0.80446855
Pb       7.69564811      22.89644398       2.78454048       0.29666910       0.03986570      -0.01646658       2.05033442      -1.14941273       0.84749294
I        4.43652193      16.72352295       1.07222867      -0.14006191      -0.08405720       0.01079937       0.52696016      -1.24998681       0.82985815
I        1.98733252      21.02668824       0.97710353      -0.00487845       0.05299002       0.09357335       0.66905410      -0.52749584      -0.12814285
I        4.56180546      16.43090796       5.16573909       0.06922496       0.06395018       0.00537036       1.91596473       1.90033271       0.35226722
I        1.96468863      22.04750847       5.37447946      -0.15967894      -0.12495543      -0.06651268       1.07231662       0.04281575       1.35471949
I        5.98022834      20.37688491       3.35080126      -0.06140592      -0.23081387       0.01812190      -2.07095996      -0.82095001      -0.66268533
I        0.62881802      18.34048780       7.51279892      -0.32299075       0.18807529      -0.17233853      -3.42131795      -0.62416958       0.96014353
I        5.86789366      24.31139199       5.02550788      -0.03357779       0.19230870       0.04486500       1.04494625       3.04853203       0.97307598
I        0.65936213      29.13709758       4.39771696      -0.18655109       0.00269829      -0.05089064      -0.69566592       1.91421500      -2.65309467
I        5.72678303      23.49494687       0.44280849       0.04990885       0.18671335      -0.28270616      -0.55925595      -1.91554425      -1.17842591
I        0.42531902      28.81219013       0.01683224       0.15587140       0.01085285       0.16788582      -0.44348512      -0.79599986      -0.67804485
I        4.42744785      28.39360520       6.75096454      -0.03943421       0.23630911       0.05279368      -1.57709228      -0.81042446       3.36755140
I        1.93587286      25.47153999       2.56333434      -0.17061740      -0.29792690      -0.04368567      -0.01518386       3.05431087       1.39674375
I       12.51205957      16.93587980       1.03995220       0.28148810       0.14276497       0.27814133      -1.40203453      -1.90597605      -0.40290350
I        9.76622728      21.48579560       0.71327816       0.07014078      -0.07270875      -0.21983991       1.75746741       1.50381247       1.26714880
I       12.46548036      16.85402302       5.63296157       0.11569070      -0.12812952       0.05803436      -0.02033582      -0.41677704       0.24861725
I        9.96285122      21.77208909       4.95442633      -0.06460899       0.05013229       0.13366055      -1.06089542       0.32133230      -0.11888603
I       13.46051957      20.21657048       3.12756135       0.20066520       0.42490576      -0.08283709       0.41285284       0.65639889       0.12657069
I        8.77637547      18.45929173       7.26822063      -0.11464546      -0.12761852      -0.00624701       1.46340751      -1.74705585       0.71306322
I       13.88208124      24.88769697       4.43727418       0.05896026      -0.18323711       0.01613322       0.27837313      -1.12848510       2.00919002
I        8.31193591      28.94023682       4.58774451       0.11103454       0.17824215       0.18775010       0.23358943       0.49787107       1.72516199
I       13.77544694      23.89017431       0.23624274       0.13319903      -0.03909242      -0.07005211      -0.94018881      -2.79786268      -1.85825806
I        8.46476517      29.11250951       0.46620513      -0.14559891       0.10698917      -0.28402177       1.02874456       2.12063810       1.44002887
I       12.36538146      28.22834190       7.35095019      -0.03804974       0.24118187      -0.11781503      -0.52635464      -1.16706456      -0.28668487
I        9.78000095      25.55426576       2.26522625      -0.08193017       0.01311545       0.02735674      -0.43914104       1.87160555       1.66391669
Cs       0.97886145      18.67526855      11.34716554       0.08764216      -0.08339013       0.06468020      -0.86010761       0.09772330      -0.53916369
Cs       4.86004966      19.62408816      -1.23268949       0.06472341       0.04251571      -0.08065108      -0.69293840       2.72486196       3.80535101
Cs       1.34333419      25.50296367       6.57452667       0.05243726       0.13526423       0.10729598       1.97644158       1.42378069       1.64650391
Cs       4.81997963      28.55425535      11.08244467       0.04727781       0.11163917      -0.09979440      -0.38006593      -2.05367012      -0.55829094
Cs       8.79348392      18.86177900      11.91725814       0.02449613       0.07048474      -0.03794889      -0.23835533       0.15086287      -0.75531430
Cs      13.87234167      20.22615508      -1.21484136      -0.11579087      -0.01493495       0.02289792       1.37552249      -0.69766779      -0.17575107
Cs       9.55815153      25.48501664       6.96319152      -0.02778944      -0.00799703      -0.01678919       0.89589420      -2.42201280       0.60648780
Cs      13.09712182      29.14400795      11.05634310      -0.13304028      -0.13717393       0.03492854       0.26624944      -0.79143893      -0.49203049
Pb       2.65142897      30.01075856      -2.20728754      -0.02231324       0.09015458      -0.07208575      -0.46473612      -1.04862473       0.64220373
Pb       6.58100408      30.17680658      -2.14885097      -0.09770279      -0.28827370       0.25659613       1.25849960       1.98799698       1.64596319
Pb       3.78721399      23.99230461      11.25194315      -0.27499826      -0.19317050       0.17364371      -0.80361263      -0.30179573       1.28370887
Pb      31.48291507      23.69174377      12.16647211       0.05142167      -0.10217860       0.06800882      -1.54794406      -0.95115110       0.73260886
Pb      10.49506497      29.85797341      -1.92999131      -0.16251176       0.05211643       0.02241369       2.35427311       1.07398557       0.27583894
Pb      14.35082125      30.03561279      -1.95535916       0.26610970       0.07780624       0.20733343       2.04754848      -2.66484659      -1.18116420
Pb      11.69371957      23.65651673      11.22737686      -0.21618609       0.27837321      -0.11561649      -0.50600652       0.89687938       1.44390968
Pb       7.76905967      24.07890435      11.48227025       0.07237977      -0.34363682      -0.33697375       0.73046542      -1.08640719      -0.30087703
I        4.47597368      17.75626855       9.46689842       0.14832018       0.03170483       0.03909748      -0.25879191       0.03642393       0.90593043
I        1.88967917      22.18277368       9.44278118       0.08901570      -0.07762333      -0.21739619       0.60971453       1.55946044       0.40516465
I        4.46036808      17.84529295      13.84953521      -0.05300218      -0.08438874       0.13005947       0.45646881      -1.10197204      -0.37452087
I        1.88598136      23.00549692      13.67543516      -0.08874414      -0.00920924       0.23829895       1.38739902      -0.97309802       0.92756411
I        5.68655585      21.45095856      11.53509668       0.11001852       0.03062576       0.07131278       0.14184900      -0.52438773       0.10602631
I        0.09502390      19.61954895      15.94164592       0.03639990      -0.23980631      -0.14028038      -1.59235372      -0.20105669       1.00009767
I        5.81208686      25.54392888      13.28629229      -0.02361663       0.20639915       0.30353049       2.79491868      -0.78212513       0.25239421
I        0.38953823      29.84991225      12.91076521      -0.02426451      -0.11481324      -0.23537422      -0.24832842       2.21187967       2.38378526
I        5.65603827      25.07560185       9.13908464       0.29768770       0.10536434      -0.26388821       0.57190887       0.95565667      -1.61089924
I        0.33010535      30.00324635       8.54430147       0.00967211       0.03023397       0.24191948      -0.11215468       0.53486923       1.31202272
I        4.53786819      27.53267188      -1.49076609      -0.05770230       0.06037872      -0.04331351       0.36886985      -1.37900720       0.19737179
I        1.45560799      26.40134629      11.02889343       0.11998984       0.10757062      -0.12707887       2.63536263      -2.64563674       2.15949997
I       12.34839088      17.34174624      10.05398890       0.02177049      -0.05683046      -0.21285591       0.36725894       0.95092701       0.22168890
I        9.67501613      22.42612467       9.05606140      -0.22634168      -0.06341007       0.13424878       0.18166770      -0.36629467      -1.41791498
I       11.99619614      17.49753178      13.88668401       0.16846017      -0.04635934       0.51597217      -1.63261478      -0.65296351       0.17526159
I        9.86601323      22.62530448      13.66199226      -0.16003814      -0.00132380      -0.02219861      -0.61042885      -0.87486140      -0.90299781
I       13.43259045      21.03534099      11.86041552       0.06694877       0.02950458      -0.14365095       0.28519465      -0.10949953       1.08715689
I        7.96971378      19.24846347      16.01435577      -0.16474212      -0.15284482      -0.00843016       1.03353065      -0.54477628       1.24996504
I       13.70976091      25.35482981      13.07804440       0.13942701      -0.00789008       0.01413386      -0.12860031       0.91350523       0.62299129
I        8.01571947      29.92554396      13.14697116       0.06736890      -0.12782228       0.02391721       0.65362364       0.58863378       0.76945648
I       13.47897692      24.35331984       8.68169469       0.10620305      -0.06286667      -0.19207494       1.59379401      -1.45752531       0.54559107
I        8.04797369      30.31648201       8.95161990       0.16290069      -0.07534638       0.16792274      -0.84032951      -0.75904720       0.86451752
I       12.67631099      27.41531662      -1.57116922      -0.35444200      -0.06730684      -0.02179824      -1.34396256       0.03379143       1.63122525
I        9.74369021      26.50390447      10.85609814       0.17889698      -0.26928196       0.16256799      -1.25116462      -1.27231382       0.02016891
Cs      17.26156859       3.16572091       4.42003932      -0.02423921       0.00589779       0.05021375      -1.05765548      -0.58067527       3.36888925
Cs      21.26158870       6.17087570       8.94614204      -0.00649026      -0.01902733      -0.07092863      -1.55797523       1.14177922      -0.49060493
Cs      17.39276063       9.77760074      -0.13251035      -0.00901315      -0.04437465      -0.02049921       1.01930365      -0.29438801       0.14029262
Cs      20.24856457      12.83313814       3.97855703       0.10643983      -0.05220787       0.03095077       1.29913178       1.17641565       0.72185730
Cs      24.40870741       2.63589181       4.93763512       0.05531349      -0.18517608      -0.02292434      -0.35879079      -0.44868358      -1.16500347
Cs      29.16925707       5.86538089       9.59091132      -0.16494359       0.04196492      -0.11241295       1.34969636       2.22883343       1.49568573
Cs      25.15224286      10.32581055       0.14362437      -0.12837212       0.00846784      -0.08016588      -1.45672242      -0.20793469       0.39752970
Cs      29.13143098      12.60963495       4.06968588       0.01702658       0.04638894       0.04110112      -0.81229590      -0.88787822      -3.16263325
Pb      18.36195455      15.72212169       7.98481599      -0.02085656      -0.21814817       0.32637102       0.75340848       0.75945412       1.54470744
Pb      22.28522326      15.48212090       7.99054212      -0.00218967       0.11536853       0.22597690      -0.38479812       2.97669714      -0.94321377
Pb      19.54558621       7.88466804       4.36060693       0.14513371      -0.09002306       0.04806432      -0.97946719       4.69525295      -0.48291577
Pb      15.49534955       7.64346528       4.07875283       0.18479864      -0.04880790      -0.00024256      -2.10703066       0.37573672       0.46565017
Pb      26.22537040      15.49087424       7.97485791       0.05526793       0.16572116       0.07434290       3.44553155      -1.32034451      -4.22858404
Pb      30.16741533      15.73952915       8.08365575       0.18351394       0.20225202       0.14052015      -1.75727964       0.82921902      -0.18350182
Pb      27.29157817       7.75053042       4.67980555       0.28737366      -0.10674114       0.19402494      -0.40607170       0.42939551       2.28676379
Pb      23.52214431       7.82004148       4.47283763      -0.38122895       0.15940983       0.34263598       2.40729561       0.79266853       2.05741010
I       20.64685183       1.86179749       2.43556036      -0.16196288      -0.03171967       0.10746281      -0.73787506      -1.89362130       1.94099272
I       17.80204500       6.15385630       2.25869487       0.10683852       0.07122194      -0.16189516      -1.27849530       0.70151952       0.46288557
I       20.11811920       1.73884992       6.86723382       0.09552844      -0.06612028      -0.09415478       0.39721318      -0.16800771       0.78656114
I       17.51000067       6.51743048       6.43410069       0.02221411       0.05251817       0.15847952       1.29277528      -3.19514908       0.33291043
I       21.38582495       5.28607277       4.66941180       0.25695667       0.05034141       0.04262690      -0.30639935       1.44018300       0.79240741
I       16.02534644       3.41214141       8.33262068       0.28236351       0.02883477       0.14246091      -1.95061470       1.82184270       0.76029365
I       21.59518818       9.41176070       6.61078834      -0.18719634      -0.09337577      -0.22181913       1.01119885       0.98992334      -2.35601145
I       16.23961595      13.82837581       6.14084226       0.18819537       0.13983036       0.27453443      -0.56680358       0.94159664       0.32912374
I       21.66089928       9.26754059       2.12769719       0.05122135      -0.15524045       0.11601828       0.17842595       0.01573546      -0.47239016
I       16.39671989      14.48468797       2.04845884      -0.08573980      -0.03222759      -0.11899804       0.56809792      -0.71874161      -0.62893905
I       20.28036437      12.93186629       8.59290597      -0.27829413       0.42975685      -0.12222342      -2.99023089      -1.26503722      -0.19087374
I       17.53570707      10.25087028       4.07445777      -0.11473043       0.42631897      -0.14116011       2.43547261       1.63011311       1.56343479
I       28.12233604       1.51074506       2.76169395      -0.03311855       0.12673954       0.21769302      -2.20999025       0.92992330       0.42361908
I       25.30752538       5.72047027       2.93498568       0.24398552       0.05421661      -0.06447991      -2.78302098      -1.07320656       0.75100570