320
Lattice="36.61494431704515 0.8521064442996575 0.6472952383376436 -0.4899562435077865 21.43320960287554 0.4582089290160639 -0.349194964961731 -0.4123068262220005 19.635594233834194" Properties=species:S:1:pos:R:3:forces:R:3:momenta:R:3 pbc="T T T"
Cs       7.41638405      20.98473752       1.12908630      -0.10558091       0.01150261       0.08085688      -0.36131770       0.24747113       1.61992931
Cs      13.90506517       8.18841218      18.44855015      -0.08691635       0.00847997      -0.13639394      -1.27996767      -0.37373167       0.16026037
Cs       4.91878874       4.87329345       0.98886160       0.01764225       0.06277023      -0.09734279       0.30359794       1.33826878       2.85119292
Cs      16.75534726       2.89561534      18.24145623      -0.06568710       0.02410163      -0.06419492       0.04999837       0.48113074       0.15703741
Cs       7.13532293      21.00790914       6.05218702       0.09920125      -0.03876674       0.13225514      -0.10616782      -1.57046259       0.07011331
Cs      13.83521983       8.51423795       3.58748855      -0.06556433      -0.03707273      -0.04558785       0.66063950       1.97882158       1.28719000
Cs       4.81952719       4.85657113       5.87497997       0.02887288      -0.03861094       0.03829016      -1.14478021      -1.58153284      -0.23948531
Cs      16.80934575       3.19353567       3.50031775       0.08434041       0.03266420       0.04530753      -0.74169563       0.20319256       1.42152993
Pb       2.71814444      -0.09765246      17.95921952       0.27898930       0.32577245       0.17585584      -0.54023631       1.99090248      -2.70753057
Pb      18.92746552       7.88255854       1.29016358       0.20644719       0.19491040      -0.07583477      -0.29783936      -0.57705451      -0.55604621
Pb       9.56079747       5.14619924      18.10403529      -0.31818801       0.26968797      -0.19650971       2.65869682       1.48458040       0.69319472
Pb      12.02591321       2.34596557       1.08491707      -0.11670932       0.08815695       0.09631083       1.20109163      -1.63331240       0.31476670
Pb       2.86186792       0.29082786       3.29013343       0.17637393       0.08239186      -0.18361484       1.17691358       0.32186341      -1.18755400
Pb      18.72438859       8.05408258       6.08345716       0.18803257      -0.16179902       0.10375865       0.86326909       1.09876577       0.09762902
Pb       9.72040757       5.86217807       3.23072950       0.25512704      -0.37884060       0.39943274      -1.25243407       2.46410928      -2.35702383
Pb      11.93934797       2.04339573       6.09022446       0.11637320       0.11427657      -0.38227925      -0.68182684      -0.51044547       0.91379844
I        1.88210521       2.28087685       0.89561076      -0.01297063      -0.14693998      -0.15288041       0.44482885       0.47533287       1.00098585
I        1.37054713       5.44301807      18.09391614       0.01782186      -0.03231355      -0.16105310       0.45338058       1.40433892       1.29859119
I       10.78351745       7.53446559       0.81501036       0.20995500       0.23943487       0.22403998       1.72149678       0.10021787      -0.61382384
I       10.73959320      -0.05401700      18.17194347      -0.01379333       0.06361478      -0.08428309       0.69694127      -0.91920827       0.02361849
I       17.60027284      20.53656013      18.75495175      -0.25988286      -0.18155002       0.05652426       1.51051524       1.26071497       1.29261154
I        3.62590254       9.09544462       0.91872835       0.11478241      -0.13440003       0.22062953       0.28371869       1.01129377      -1.07899050
I       12.73001452       3.97172239      18.20639882      -0.04343203      -0.08781482      -0.02323330      -0.66106346      -0.43284616      -0.17561081
I        8.89086904       3.62534892       1.01665276      -0.04265973       0.03915141      -0.06381421      -1.18198317      -1.29028718      -0.89206924
I        5.42960798       1.72547761      18.07903811      -0.09799722      -0.25790462      -0.03847965       1.66700706       0.25405299       1.10969291
I       16.29078950       6.39460189       1.09838899      -0.21705833      -0.13213941       0.01954575      -1.48040199       2.07347617       1.19685551
I        6.86047452       6.94735224      18.07273109       0.04355382      -0.24221757       0.07495861       0.16129620       0.18335033      -0.81248939
I       14.76715540       1.05699069       1.11108751       0.25511294      -0.19315299      -0.10864364       0.32913386      -0.22574371       1.05070391
I        1.83398998       1.99645970       5.80766077      -0.19314385       0.20447273      -0.19186089      -1.97397559       0.80775942       1.84415386
I        1.73378491       5.76515617       3.49680112      -0.01690699      -0.07275702      -0.09524418      -0.17565301       1.02511116       0.05722007
I       10.75518540       7.41292742       6.01825245       0.08024671       0.10295424      -0.04887348      -0.48124723       0.43766794       1.91709623
I       10.76431052       0.40513183       3.33058324       0.12788213      -0.03452244       0.08975053      -1.72003131       0.41809087       1.58864790
I       17.60856290      20.68350147       3.87477498      -0.02213953       0.07723580       0.05147395       0.41721639      -0.97527472       0.48515748
I        3.62370268       8.91247790       5.83837735      -0.04923699       0.02102088       0.13767103       1.88235696       0.58934937       0.19266432
I       12.95310630       4.23676713       3.49344822      -0.23510624      -0.03338278       0.12168037       0.80825713       0.86429487       3.49561980
I        8.90105863       3.62187380       5.75286636       0.07568441      -0.14952481      -0.14346100      -1.00133776       1.98165493       1.66320101
I        5.61527905       1.79767139       3.34253205      -0.06983924      -0.04196806      -0.04990330      -1.95272648       0.50421541      -1.72867124
I       16.18925452       6.30871847       5.73222663      -0.13243058      -0.00799591       0.24841966       1.77401843       1.93861720      -0.04246541
I        6.95308817       7.08110844       3.49510469      -0.09856567       0.16183088      -0.12382136      -0.73184696       1.96107882       1.83294188
I       14.76893176       0.49995500       5.78165722      -0.11263006       0.27924365       0.15054822       0.97027851       2.66632930      -1.88428295
Cs       7.24178656      20.77858411      10.94688342      -0.10558091       0.01150261       0.08085688      -0.36131770       0.24747113       1.61992931
Cs      14.07966265       8.39456560       8.63075304      -0.08691635       0.00847997      -0.13639394      -1.27996767      -0.37373167       0.16026037
Cs       4.74419126       4.66714004      10.80665872       0.01764225       0.06277023      -0.09734279       0.30359794       1.33826878       2.85119292
Cs      16.92994474       3.10176876       8.42365912      -0.06568710       0.02410163      -0.06419492       0.04999837       0.48113074       0.15703741
Cs       6.96072544      20.80175573      15.86998414       0.09920125      -0.03876674       0.13225514      -0.10616782      -1.57046259       0.07011331
Cs      13.66062235       8.30808454      13.40528567      -0.06556433      -0.03707273      -0.04558785       0.66063950       1.97882158       1.28719000
Cs       4.64492971       4.65041772      15.69277709       0.02887288      -0.03861094       0.03829016      -1.14478021      -1.58153284      -0.23948531
Cs      16.63474827       2.98738226      13.31811487       0.08434041       0.03266420       0.04530753      -0.74169563       0.20319256       1.42152993
Pb       2.89274192       0.10850096       8.14142241       0.27898930       0.32577245       0.17585584      -0.54023631       1.99090248      -2.70753057
Pb      18.75286804       7.67640513      11.10796070       0.20644719       0.19491040      -0.07583477      -0.29783936      -0.57705451      -0.55604621
Pb       9.73539495       5.35235266       8.28623818      -0.31818801       0.26968797      -0.19650971       2.65869682       1.48458040       0.69319472
Pb      11.85131573       2.13981216      10.90271419      -0.11670932       0.08815695       0.09631083       1.20109163      -1.63331240       0.31476670
Pb       2.68727044       0.08467445      13.10793055       0.17637393       0.08239186      -0.18361484       1.17691358       0.32186341      -1.18755400
Pb      18.54979111       7.84792917      15.90125428       0.18803257      -0.16179902       0.10375865       0.86326909       1.09876577       0.09762902
Pb       9.54581009       5.65602466      13.04852662       0.25512704      -0.37884060       0.39943274      -1.25243407       2.46410928      -2.35702383
Pb      11.76475049       1.83724232      15.90802158       0.11637320       0.11427657      -0.38227925      -0.68182684      -0.51044547       0.91379844
I        1.70750773       2.07472344      10.71340788      -0.01297063      -0.14693998      -0.15288041       0.44482885       0.47533287       1.00098585
I        1.54514461       5.64917149       8.27611903       0.01782186      -0.03231355      -0.16105310       0.45338058       1.40433892       1.29859119
I       10.60891997       7.32831218      10.63280748       0.20995500       0.23943487       0.22403998       1.72149678       0.10021787      -0.61382384
I       10.91419068       0.15213642       8.35414636      -0.01379333       0.06361478      -0.08428309       0.69694127      -0.91920827       0.02361849
I       17.77487032      20.74271354       8.93715464      -0.25988286      -0.18155002       0.05652426       1.51051524       1.26071497       1.29261154
I        3.45130506       8.88929121      10.73652547       0.11478241      -0.13440003       0.22062953       0.28371869       1.01129377      -1.07899050
I       12.90461200       4.17787581       8.38860171      -0.04343203      -0.08781482      -0.02323330      -0.66106346      -0.43284616      -0.17561081
I        8.71627156       3.41919551      10.83444988      -0.04265973       0.03915141      -0.06381421      -1.18198317      -1.29028718      -0.89206924
I        5.60420546       1.93163103       8.26124100      -0.09799722      -0.25790462      -0.03847965       1.66700706       0.25405299       1.10969291
I       16.11619202       6.18844848      10.91618611      -0.21705833      -0.13213941       0.01954575      -1.48040199       2.07347617       1.19685551
I        7.03507200       7.15350566       8.25493398       0.04355382      -0.24221757       0.07495861       0.16129620       0.18335033      -0.81248939
I       14.59255792       0.85083728      10.92888463       0.25511294      -0.19315299      -0.10864364       0.32913386      -0.22574371       1.05070391
I        1.65939250       1.79030629      15.62545789      -0.19314385       0.20447273      -0.19186089      -1.97397559       0.80775942       1.84415386
I        1.55918743       5.55900276      13.31459824      -0.01690699      -0.07275702      -0.09524418      -0.17565301       1.02511116       0.05722007
I       10.58058792       7.20677401      15.83604957       0.08024671       0.10295424      -0.04887348      -0.48124723       0.43766794       1.91709623
I       10.58971304       0.19897842      13.14838036       0.12788213      -0.03452244       0.08975053      -1.72003131       0.41809087       1.58864790
I       17.43396541      20.47734806      13.69257210      -0.02213953       0.07723580       0.05147395       0.41721639      -0.97527472       0.48515748
I        3.44910520       8.70632449      15.65617447      -0.04923699       0.02102088       0.13767103       1.88235696       0.58934937       0.19266432
I       12.77850882       4.03061372      13.31124534      -0.23510624      -0.03338278       0.12168037       0.80825713       0.86429487       3.49561980
I        8.72646115       3.41572039      15.57066348       0.07568441      -0.14952481      -0.14346100      -1.00133776       1.98165493       1.66320101
I        5.44068157       1.59151798      13.16032917      -0.06983924      -0.04196806      -0.04990330      -1.95272648       0.50421541      -1.72867124
I       16.01465704       6.10256506      15.55002375      -0.13243058      -0.00799591       0.24841966       1.77401843       1.93861720      -0.04246541
I        6.77849069       6.87495503      13.31290181      -0.09856567       0.16183088      -0.12382136      -0.73184696       1.96107882       1.83294188
I       14.59433428       0.29380159      15.59945434      -0.11263006       0.27924365       0.15054822       0.97027851       2.66632930      -1.88428295
Cs       7.66136217      10.26813272       0.89998183      -0.10558091       0.01150261       0.08085688      -0.36131770       0.24747113       1.61992931
Cs      13.66008704      18.90501699      18.67765462      -0.08691635       0.00847997      -0.13639394      -1.27996767      -0.37373167       0.16026037
Cs       4.67381062      15.58989825       1.21796606       0.01764225       0.06277023      -0.09734279       0.30359794       1.33826878       2.85119292
Cs      16.51036913      13.61222015      18.47056070      -0.06568710       0.02410163      -0.06419492       0.04999837       0.48113074       0.15703741
Cs       7.38030105      10.29130434       5.82308255       0.09920125      -0.03876674       0.13225514      -0.10616782      -1.57046259       0.07011331
Cs      13.59024171      19.23084275       3.81659301      -0.06556433      -0.03707273      -0.04558785       0.66063950       1.97882158       1.28719000
Cs       4.57454907      15.57317593       6.10408443       0.02887288      -0.03861094       0.03829016      -1.14478021      -1.58153284      -0.23948531
Cs      16.56436763      13.91014047       3.72942221       0.08434041       0.03266420       0.04530753      -0.74169563       0.20319256       1.42152993
Pb       2.47316631      10.61895235      18.18832399       0.27898930       0.32577245       0.17585584      -0.54023631       1.99090248      -2.70753057
Pb      18.68248740      18.59916334       1.51926804       0.20644719       0.19491040      -0.07583477      -0.29783936      -0.57705451      -0.55604621
Pb       9.31581934      15.86280405      18.33313976      -0.31818801       0.26968797      -0.19650971       2.65869682       1.48458040       0.69319472
Pb      11.78093509      13.06257037       1.31402153      -0.11670932       0.08815695       0.09631083       1.20109163      -1.63331240       0.31476670
Pb       2.61688980      11.00743266       3.51923789       0.17637393       0.08239186      -0.18361484       1.17691358       0.32186341      -1.18755400
Pb      18.47941047      18.77068738       6.31256162       0.18803257      -0.16179902       0.10375865       0.86326909       1.09876577       0.09762902
Pb       9.47542945      16.57878287       3.45983396       0.25512704      -0.37884060       0.39943274      -1.25243407       2.46410928      -2.35702383
Pb      11.69436985      12.76000053       6.31932892       0.11637320       0.11427657      -0.38227925      -0.68182684      -0.51044547       0.91379844
I        1.63712709      12.99748165       1.12471522      -0.01297063      -0.14693998      -0.15288041       0.44482885       0.47533287       1.00098585
I        1.12556900      16.15962288      18.32302061       0.01782186      -0.03231355      -0.16105310       0.45338058       1.40433892       1.29859119
I       10.53853933      18.25107039       1.04411482       0.20995500       0.23943487       0.22403998       1.72149678       0.10021787      -0.61382384
I       10.49461507      10.66258781      18.40104794      -0.01379333       0.06361478      -0.08428309       0.69694127      -0.91920827       0.02361849
I       17.84525096       9.81995533      18.52584729      -0.25988286      -0.18155002       0.05652426       1.51051524       1.26071497       1.29261154
I        3.38092442      19.81204942       1.14783281       0.11478241      -0.13440003       0.22062953       0.28371869       1.01129377      -1.07899050
I       12.48503639      14.68832720      18.43550329      -0.04343203      -0.08781482      -0.02323330      -0.66106346      -0.43284616      -0.17561081
I        8.64589092      14.34195372       1.24575722      -0.04265973       0.03915141      -0.06381421      -1.18198317      -1.29028718      -0.89206924
I        5.18462985      12.44208242      18.30814258      -0.09799722      -0.25790462      -0.03847965       1.66700706       0.25405299       1.10969291
I       16.04581138      17.11120669       1.32749345      -0.21705833      -0.13213941       0.01954575      -1.48040199       2.07347617       1.19685551
I        6.61549639      17.66395705      18.30183556       0.04355382      -0.24221757       0.07495861       0.16129620       0.18335033      -0.81248939
I       14.52217728      11.77359549       1.34019197       0.25511294      -0.19315299      -0.10864364       0.32913386      -0.22574371       1.05070391
I        1.58901186      12.71306450       6.03676523      -0.19314385       0.20447273      -0.19186089      -1.97397559       0.80775942       1.84415386
I        1.48880679      16.48176097       3.72590558      -0.01690699      -0.07275702      -0.09524418      -0.17565301       1.02511116       0.05722007
I       10.51020728      18.12953222       6.24735691       0.08024671       0.10295424      -0.04887348      -0.48124723       0.43766794       1.91709623
I       10.51933240      11.12173663       3.55968770       0.12788213      -0.03452244       0.08975053      -1.72003131       0.41809087       1.58864790
I       17.85354102       9.96689667       3.64567051      -0.02213953       0.07723580       0.05147395       0.41721639      -0.97527472       0.48515748
I        3.37872456      19.62908270       6.06748181      -0.04923699       0.02102088       0.13767103       1.88235696       0.58934937       0.19266432
I       12.70812818      14.95337193       3.72255268      -0.23510624      -0.03338278       0.12168037       0.80825713       0.86429487       3.49561980
I        8.65608051      14.33847860       5.98197082       0.07568441      -0.14952481      -0.14346100      -1.00133776       1.98165493       1.66320101
I        5.37030093      12.51427619       3.57163651      -0.06983924      -0.04196806      -0.04990330      -1.95272648       0.50421541      -1.72867124
I       15.94427640      17.02532327       5.96133109      -0.13243058      -0.00799591       0.24841966       1.77401843       1.93861720      -0.04246541
I        6.70811005      17.79771324       3.72420915      -0.09856567       0.16183088      -0.12382136      -0.73184696       1.96107882       1.83294188
I       14.52395364      11.21655980       6.01076168      -0.11263006       0.27924365       0.15054822       0.97027851       2.66632930      -1.88428295
Cs       7.48676469      10.06197931      10.71777895      -0.10558091       0.01150261       0.08085688      -0.36131770       0.24747113       1.61992931
Cs      13.83468453      19.11117040       8.85985750      -0.08691635       0.00847997      -0.13639394      -1.27996767      -0.37373167       0.16026037
Cs       4.49921314      15.38374484      11.03576318       0.01764225       0.06277023      -0.09734279       0.30359794       1.33826878       2.85119292
Cs      16.68496662      13.81837356       8.65276358      -0.06568710       0.02410163      -0.06419492       0.04999837       0.48113074       0.15703741
Cs       7.20570357      10.08515093      15.64087967       0.09920125      -0.03876674       0.13225514      -0.10616782      -1.57046259       0.07011331
Cs      13.41564423      19.02468934      13.63439013      -0.06556433      -0.03707273      -0.04558785       0.66063950       1.97882158       1.28719000
Cs       4.39995159      15.36702252      15.92188155       0.02887288      -0.03861094       0.03829016      -1.14478021      -1.58153284      -0.23948531
Cs      16.38977015      13.70398706      13.54721933       0.08434041       0.03266420       0.04530753      -0.74169563       0.20319256       1.42152993
Pb       2.64776380      10.82510576       8.37052687       0.27898930       0.32577245       0.17585584      -0.54023631       1.99090248      -2.70753057
Pb      18.50788992      18.39300993      11.33706516       0.20644719       0.19491040      -0.07583477      -0.29783936      -0.57705451      -0.55604621
Pb       9.49041683      16.06895746       8.51534264      -0.31818801       0.26968797      -0.19650971       2.65869682       1.48458040       0.69319472
Pb      11.60633761      12.85641696      11.13181865      -0.11670932       0.08815695       0.09631083       1.20109163      -1.63331240       0.31476670
Pb       2.44229232      10.80127925      13.33703501       0.17637393       0.08239186      -0.18361484       1.17691358       0.32186341      -1.18755400
Pb      18.30481299      18.56453397      16.13035874       0.18803257      -0.16179902       0.10375865       0.86326909       1.09876577       0.09762902
Pb       9.30083197      16.37262946      13.27763108       0.25512704      -0.37884060       0.39943274      -1.25243407       2.46410928      -2.35702383
Pb      11.51977237      12.55384712      16.13712604       0.11637320       0.11427657      -0.38227925      -0.68182684      -0.51044547       0.91379844
I        1.46252961      12.79132824      10.94251234      -0.01297063      -0.14693998      -0.15288041       0.44482885       0.47533287       1.00098585
I        1.30016649      16.36577629       8.50522349       0.01782186      -0.03231355      -0.16105310       0.45338058       1.40433892       1.29859119
I       10.36394185      18.04491698      10.86191194       0.20995500       0.23943487       0.22403998       1.72149678       0.10021787      -0.61382384
I       10.66921256      10.86874122       8.58325082      -0.01379333       0.06361478      -0.08428309       0.69694127      -0.91920827       0.02361849
I       18.01984845      10.02610874       8.70805017      -0.25988286      -0.18155002       0.05652426       1.51051524       1.26071497       1.29261154
I        3.20632694      19.60589601      10.96562993       0.11478241      -0.13440003       0.22062953       0.28371869       1.01129377      -1.07899050
I       12.65963388      14.89448061       8.61770617      -0.04343203      -0.08781482      -0.02323330      -0.66106346      -0.43284616      -0.17561081
I        8.47129344      14.13580031      11.06355434      -0.04265973       0.03915141      -0.06381421      -1.18198317      -1.29028718      -0.89206924
I        5.35922734      12.64823583       8.49034546      -0.09799722      -0.25790462      -0.03847965       1.66700706       0.25405299       1.10969291
I       15.87121390      16.90505328      11.14529057      -0.21705833      -0.13213941       0.01954575      -1.48040199       2.07347617       1.19685551
I        6.79009388      17.87011046       8.48403844       0.04355382      -0.24221757       0.07495861       0.16129620       0.18335033      -0.81248939
I       14.34757980      11.56744208      11.15798909       0.25511294      -0.19315299      -0.10864364       0.32913386      -0.22574371       1.05070391
I        1.41441438      12.50691109      15.85456235      -0.19314385       0.20447273      -0.19186089      -1.97397559       0.80775942       1.84415386
I        1.31420931      16.27560756      13.54370270      -0.01690699      -0.07275702      -0.09524418      -0.17565301       1.02511116       0.05722007
I       10.33560980      17.92337881      16.06515403       0.08024671       0.10295424      -0.04887348      -0.48124723       0.43766794       1.91709623
I       10.34473492      10.91558322      13.37748482       0.12788213      -0.03452244       0.08975053      -1.72003131       0.41809087       1.58864790
I       17.67894354       9.76074326      13.46346763      -0.02213953       0.07723580       0.05147395       0.41721639      -0.97527472       0.48515748
I        3.20412708      19.42292929      15.88527893      -0.04923699       0.02102088       0.13767103       1.88235696       0.58934937       0.19266432
I       12.53353070      14.74721852      13.54034980      -0.23510624      -0.03338278       0.12168037       0.80825713       0.86429487       3.49561980
I        8.48148303      14.13232519      15.79976794       0.07568441      -0.14952481      -0.14346100      -1.00133776       1.98165493       1.66320101
I        5.19570345      12.30812278      13.38943363      -0.06983924      -0.04196806      -0.04990330      -1.95272648       0.50421541      -1.72867124
I       15.76967892      16.81916986      15.77912821      -0.13243058      -0.00799591       0.24841966       1.77401843       1.93861720      -0.04246541
I        6.53351257      17.59155983      13.54200627      -0.09856567       0.16183088      -0.12382136      -0.73184696       1.96107882       1.83294188
I       14.34935616      11.01040639      15.82855880      -0.11263006       0.27924365       0.15054822       0.97027851       2.66632930      -1.88428295
Cs      25.72385621      21.41079075       1.45273392      -0.10558091       0.01150261       0.08085688      -0.36131770       0.24747113       1.61992931
Cs      32.21253732       8.61446541      18.77219777      -0.08691635       0.00847997      -0.13639394      -1.27996767      -0.37373167       0.16026037
Cs      23.22626090       5.29934667       1.31250922       0.01764225       0.06277023      -0.09734279       0.30359794       1.33826878       2.85119292
Cs      35.06281941       3.32166857      18.56510385      -0.06568710       0.02410163      -0.06419492       0.04999837       0.48113074       0.15703741
Cs      25.44279509      21.43396237       6.37583464       0.09920125      -0.03876674       0.13225514      -0.10616782      -1.57046259       0.07011331
Cs      32.14269199       8.94029117       3.91113617      -0.06556433      -0.03707273      -0.04558785       0.66063950       1.97882158       1.28719000
Cs      23.12699935       5.28262435       6.19862759       0.02887288      -0.03861094       0.03829016      -1.14478021      -1.58153284      -0.23948531
Cs      35.11681791       3.61958889       3.82396537       0.08434041       0.03266420       0.04530753      -0.74169563       0.20319256       1.42152993
Pb      21.02561659       0.32840077      18.28286714       0.27898930       0.32577245       0.17585584      -0.54023631       1.99090248      -2.70753057
Pb       0.61999336       7.45650532       0.96651596       0.20644719       0.19491040      -0.07583477      -0.29783936      -0.57705451      -0.55604621
Pb      27.86826962       5.57225247      18.42768291      -0.31818801       0.26968797      -0.19650971       2.65869682       1.48458040       0.69319472
Pb      30.33338537       2.77201879       1.40856469      -0.11670932       0.08815695       0.09631083       1.20109163      -1.63331240       0.31476670
Pb      21.16934008       0.71688108       3.61378105       0.17637393       0.08239186      -0.18361484       1.17691358       0.32186341      -1.18755400
Pb       0.41691643       7.62802936       5.75980954       0.18803257      -0.16179902       0.10375865       0.86326909       1.09876577       0.09762902
Pb      28.02787973       6.28823129       3.55437712       0.25512704      -0.37884060       0.39943274      -1.25243407       2.46410928      -2.35702383
Pb      30.24682013       2.46944895       6.41387208       0.11637320       0.11427657      -0.38227925      -0.68182684      -0.51044547       0.91379844
I       20.18957737       2.70693007       1.21925838      -0.01297063      -0.14693998      -0.15288041       0.44482885       0.47533287       1.00098585
I       19.67801928       5.86907130      18.41756376       0.01782186      -0.03231355      -0.16105310       0.45338058       1.40433892       1.29859119
I       29.09098961       7.96051881       1.13865798       0.20995500       0.23943487       0.22403998       1.72149678       0.10021787      -0.61382384
I       29.04706535       0.37203623      18.49559109      -0.01379333       0.06361478      -0.08428309       0.69694127      -0.91920827       0.02361849
I       -0.70719932      20.11050690      18.43130413      -0.25988286      -0.18155002       0.05652426       1.51051524       1.26071497       1.29261154
I       21.93337470       9.52149784       1.24237597       0.11478241      -0.13440003       0.22062953       0.28371869       1.01129377      -1.07899050
I       31.03748667       4.39777562      18.53004644      -0.04343203      -0.08781482      -0.02323330      -0.66106346      -0.43284616      -0.17561081
I       27.19834120       4.05140214       1.34030038      -0.04265973       0.03915141      -0.06381421      -1.18198317      -1.29028718      -0.89206924
I       23.73708013       2.15153084      18.40268573      -0.09799722      -0.25790462      -0.03847965       1.66700706       0.25405299       1.10969291
I       34.59826166       6.82065511       1.42203661      -0.21705833      -0.13213941       0.01954575      -1.48040199       2.07347617       1.19685551
I       25.16794667       7.37340547      18.39637871       0.04355382      -0.24221757       0.07495861       0.16129620       0.18335033      -0.81248939
I       33.07462756       1.48304391       1.43473513       0.25511294      -0.19315299      -0.10864364       0.32913386      -0.22574371       1.05070391
I       20.14146214       2.42251292       6.13130839      -0.19314385       0.20447273      -0.19186089      -1.97397559       0.80775942       1.84415386
I       20.04125707       6.19120939       3.82044874      -0.01690699      -0.07275702      -0.09524418      -0.17565301       1.02511116       0.05722007