320
Lattice="31.705123562890115 0.00098397742904671 0.8597404125717283 0.019921660697184568 29.971723771014627 -2.6265873698904523 -0.4087198441794399 1.5773423540450537 17.106165182112967" Properties=species:S:1:pos:R:3:forces:R:3:momenta:R:3 energy=-977.9101304012396 stress="0.0 0.0 0.0 0.0 0.0 0.0 0.0 0.0 0.0" pbc="T T T"
Cs       0.79818479       2.54689047       4.26707307       0.03648363      -0.01467848       0.00799033      -0.11800756      -1.41158291      -2.17736002
Cs       5.17914136       5.88006155       8.31968593       0.03105267      -0.03325145      -0.01052587       0.72272881      -1.27696640       0.82066378
Cs       1.09526390       9.56680110      -0.97436811       0.08289703       0.04213851       0.05438358       1.60975747      -0.08867524      -0.62385728
Cs       5.66175856      12.24468661       3.51382412      -0.09658933      -0.01556639       0.01722979      -3.27322451       0.11575239      -0.59200369
Cs       8.68379784       2.56142858       4.38709228       0.08801672      -0.06482837      -0.01708912      -1.99063637       1.32057610       0.74359634
Cs      13.13524155       5.72309617       8.65684641       0.07919771      -0.00801678       0.03503005       1.59045564       2.24114016      -3.18646320
Cs       9.82118514       9.78005737      -0.36558008      -0.12184414      -0.11251931       0.00061029      -0.38153342       0.71491716      -0.18766928
Cs      13.22870913      12.52549518       3.87535779       0.00999178      -0.07717782       0.02491572      -1.42045488       0.45774493      -1.84521059
Pb       2.46147365      15.36493946       7.40218828       0.15151597      -0.24151907       0.09768857      -2.27218882      -0.71043545      -0.53705395
Pb       6.42337298      15.52731573       7.57625937      -0.35229515      -0.21335080       0.11779513      -0.95922046       1.59328626       0.92548749
Pb       3.98577566       7.67518977       3.77581134      -0.11726528       0.03886905       0.04703136      -0.04506986       1.42006594      -2.49665456
Pb      31.60678119       7.79331875       4.61780514      -0.10729778       0.08797511       0.14858934       0.42350664      -0.50887204       1.14719465
Pb      10.24793181      15.24008372       7.79111128       0.18271008      -0.02806901       0.10072715      -0.05973660      -3.05575314       0.47438702
Pb      14.33876334      15.52021860       7.77047001      -0.19789184      -0.46995825       0.01817217      -1.95134313       0.66774803       3.12855698
Pb      11.90717807       7.34188260       3.98701296       0.10841873       0.12808989       0.08379668       1.17953362      -0.98550983       0.42893568
Pb       8.03754725       7.45873643       4.10543166      -0.39809296       0.00595219      -0.06102063      -3.66981548      -1.67783873      -0.52675892
I        4.56122315       1.31625770       2.51651796      -0.11435518      -0.08707281      -0.22129224       2.23057795       3.52093629      -2.45295184
I        1.85316997       5.86232258       2.05421929       0.01728682      -0.16740186      -0.19917665      -1.63744501       0.58582591      -0.74803016
I        4.39254386       1.63324980       6.48433417       0.06718487      -0.01382166      -0.14543900       0.81719932       2.73931066       1.49510496
I        1.85924613       7.49080230       6.27638925       0.13275746      -0.27727471       0.13855377       1.24776653      -0.49980477       0.59859337
I        5.96692620       4.92569095       4.37866493      -0.05626205       0.27007621      -0.06418892      -0.25107521       1.74131270       0.67828286
I        0.41490245       3.43166787       8.32988330       0.06328954      -0.11980329       0.02788901      -1.51969362      -1.06019548      -1.43900675
I        5.76377533       9.01225680       6.03630405       0.28530629       0.00868861       0.03031523       0.16392976       0.68595464       1.74183778
I        0.23682645      13.59823497       5.59156959       0.16101505      -0.03274991       0.11961114      -0.86904798      -0.70730100      -0.44424966
I        6.27971178       8.69457550       1.67067963       0.07099736      -0.13143213       0.05532289       0.49142183      -0.07247125       0.14418083
I        0.61606531      13.80538486       1.50995706      -0.24453892       0.10044204      -0.11917962      -0.15888484       0.52720115      -0.55783760
I        4.38601568      12.87520054       8.21275005      -0.00369684       0.16198364      -0.05183014      -0.94275318      -0.18672570       1.96375342
I        2.12694028      10.12946551       2.87108259       0.01869452      -0.09711008       0.06603360      -0.46741182      -1.03921840      -2.72086969
I       12.28302054       1.37561865       2.56504712       0.11000574       0.01240877      -0.00952114       2.85764987      -1.34304301      -1.20590669
I        9.94654312       5.99757260       1.85764602      -0.09277178      -0.07264945       0.19506221       1.55955570      -0.67789456      -1.52436914
I       12.55607493       1.34078915       6.55672362      -0.03869903       0.00097826      -0.02415369      -0.54024561      -1.40183222      -0.16836981
I       10.09891988       6.43299840       6.48801590      -0.03399227      -0.04360183      -0.12211338      -1.58204561       1.30553518      -0.21194379
I       14.00612831       4.89053861       4.54191569      -0.11901747       0.02153818      -0.07832236      -1.12222587       0.47412395      -1.29202432
I        8.38941650       3.13796419       8.32585423      -0.06378176      -0.11592059      -0.01813139       1.81176243       0.86518692       1.00335728
I       13.78559772       8.88493885       6.12791092       0.00703605       0.14348169      -0.02504227      -1.29036209       0.93805423      -0.20582383
I        8.35866931      13.47363669       5.94894539       0.01482289      -0.08388895      -0.09935643      -1.91916104      -0.80704999       1.70376241
I       14.05532979       8.33616692       1.61580776      -0.13801795       0.02924313      -0.00557391      -0.59430822      -1.47175804      -2.05520439
I        8.58169918      13.73706892       1.39816867      -0.07932269       0.13002276       0.07878079      -1.44672585       0.69696555       0.01472116
I       12.27299567      12.80755700       8.20597761      -0.08486330      -0.02779270      -0.00279874      -1.77184730       0.88136645       0.22308662
I        9.94945991      10.05389968       3.88003815       0.12106453      -0.02280705      -0.03283415      -1.34711163       0.58468764       0.17191091
Cs       1.18118963       3.64862557      12.98031630      -0.07143510      -0.01047842      -0.07874194       1.62763546       0.45212837       0.19630252
Cs       4.92634165       4.81376395      -0.12864988       0.06548115      -0.02548873       0.00968994      -1.31001339       0.06070189       0.50239992
Cs       0.66441163      10.48830600       8.17911092       0.08545254       0.15750298      -0.04712503       1.21118686      -1.07172260       0.55393610
Cs       5.18862740      13.27498953      12.20498804      -0.08115335      -0.00470385      -0.02178793      -0.61127916       1.61031925       1.81469747
Cs       8.38783338       3.27752753      13.17248945       0.11140444       0.01014074      -0.01749802       3.43885173       1.25867370       0.79929012
Cs      13.31562948       4.64431986       0.24597402       0.01651906      -0.04153176      -0.13585057       0.06477023      -0.86815229      -1.11600383
Cs       9.44997210       9.89093754       8.05623066      -0.01890357       0.04598386       0.02179113       0.11877795      -0.79607018       3.32295110
Cs      12.84350959      13.47804512      12.03686907      -0.06984812       0.00619654       0.02176230      -0.31840659      -0.74695262      -1.21888124
Pb       2.60186899      14.60245086      -0.74219176       0.24352057      -0.05333450      -0.23097104       0.90885726      -3.28504541      -0.99960761
Pb       6.64076564      14.82279896      -1.13912940      -0.30805432      -0.16615358       0.35920587      -1.67453257       0.85267677       1.71584269
Pb       3.32427469       8.48215262      12.53506989       0.44435766       0.01504473      -0.07867712      -0.57513919      -0.59563288      -0.96279445
Pb      31.20856073       8.42932668      13.09113710      -0.62216956      -0.14851610      -0.37184248      -2.89154136       0.75359916      -0.75764771
Pb      10.63327403      14.75322014      -0.83332957      -0.12103307       0.11896161      -0.17363483       0.50050947       1.20668030       3.72932597
Pb      14.75265158      14.98219239      -0.84202328      -0.11413894       0.08556207      -0.14668591       1.71114680      -2.61683847       0.56042122
Pb      11.33019082       8.43140592      12.70496927      -0.18381865       0.07380446      -0.08668556       0.58035943      -0.33256246       0.13283929
Pb       7.37448961       8.45449382      12.56552800       0.22083243       0.01404552       0.19333576      -0.52208039       1.38724088      -1.65142612
I        4.59718558       2.41846020      10.50866428      -0.00069697       0.14806845       0.37215211      -0.61142653      -0.24407189      -1.16949647
I        1.71248119       6.82975693      10.33097939      -0.03514055       0.11572234       0.06952433       0.27896350      -0.34989465       1.12406171
I        4.18252763       2.33040565      15.08458721       0.01856685       0.02663201      -0.23941606       1.33504387      -1.41725182       0.00439854
I        1.11798050       7.15094673      14.59289418       0.08276893      -0.00886449       0.32588902      -0.67074824      -0.11991486       0.72608833
I        5.41583499       5.93700160      12.67927088      -0.15488129      -0.17137998       0.16831324      -0.17406385      -1.83048715      -0.64669415
I        0.24599535       3.77912944      16.86104990      -0.14392144       0.10440520       0.01923040      -0.67296418      -0.73093399      -0.38079146
I        5.55162156       9.96828971      14.67144674      -0.22653063      -0.03534517      -0.03226004      -1.46370637       0.81125970      -1.34375469
I        0.04449727      14.46173543      14.29078065       0.19536670       0.08175144      -0.12400262      -1.04349441       1.29908207      -0.68766816
I        5.52392624       9.48575989      10.29676975      -0.13838807       0.07520545      -0.12618233      -0.25230205       1.16020699       0.67493647
I        0.34701969      14.42934686      10.03931820       0.14061136      -0.02193920       0.00900766      -0.61462555       1.45627730      -0.46082474
I        4.59929094      12.13795914      -0.34618329      -0.11666279       0.28003268      -0.14171554       1.24325268      -2.33516831       2.85999059
I        1.42520053      11.07270013      12.35404780       0.02693614      -0.00503531      -0.07794150       1.44187601      -0.53137064       0.74049918
I       12.17822956       2.31985830      10.95449632       0.10413074       0.06366323       0.01378357       1.37608599       0.54003906       2.04608082
I        9.51212371       6.71141108      10.75881874      -0.04953337      -0.12721582      -0.15507147      -0.41646625       1.58031978      -0.04105569
I       12.24520513       1.97509669      15.35408609      -0.06911914       0.15831652      -0.09068688       1.28959981      -0.55333998      -0.71365511
I        9.39545259       7.59901958      15.16110751       0.10463691       0.05188139      -0.30166186      -2.01601775      -0.76365332       0.97726868
I       13.37089535       6.01241835      12.96105987       0.01706648      -0.20074625       0.14332308      -1.19370152      -0.15708213      -0.79560775
I        7.76295926       4.11367975      17.33012905       0.24103401      -0.37939024      -0.01786042      -1.01296405       2.53949082       0.32388608
I       13.19457400      10.26969875      14.55805741       0.03375791       0.19995901       0.21911825       0.21472897       3.48133937       0.07770460
I        7.90873810      14.25329513      14.54303296       0.33782653       0.12948702      -0.08934977      -0.47910018      -0.46449214      -0.01856784
I       13.50441951       9.50130683      10.31766416      -0.24142269      -0.00614441      -0.08009221       0.36662953      -0.72187428      -0.16524748
I        8.11306667      15.11925614      10.37517719      -0.02322454      -0.08675796      -0.13222966       0.11304247      -0.55364522      -0.50785078
I       12.68291049      12.45586799      -0.14928164       0.19671902      -0.09902484      -0.06201198      -0.61283143      -0.56486863      -1.95483103
I        9.33285709      10.95375431      11.92511151       0.12913267       0.05961996       0.07872772       0.56845711      -2.70255710       0.56303122
Cs       0.79045029      17.63626876       2.63314417       0.05592115      -0.07338454       0.08779870      -0.92396338       1.53552248       0.21566937
Cs       5.58492314      20.76323707       7.19609719      -0.11285808       0.09925845       0.07985681       2.04687942      -0.20469755      -0.90823874
Cs       0.86669449      24.78858859      -1.91880525       0.04568429      -0.02523226      -0.06711571       0.07319897      -0.34501685       2.76403928
Cs       5.01610772      27.94194663       2.05108200      -0.06717982      -0.07036293       0.05991887      -1.23742953       0.18335673       0.88648485
Cs       8.94124477      17.26655436       3.18136001      -0.02569568       0.10375477      -0.05666819      -0.98135727      -1.19060074      -1.43789271
Cs      12.93951699      20.16119074       7.48354229      -0.05854976       0.10106857       0.03343139      -0.98359167       0.78816064       0.60281064
Cs       9.12656098      24.63461992      -1.91658489      -0.05262973      -0.01014924      -0.02926721      -2.60379556       0.49498018       1.60740387
Cs      13.05703916      27.14227229       2.63728686       0.01301285       0.19692607      -0.05911212      -0.82402031      -0.46866892       1.77077677
Pb       2.51553365      30.84332594       6.24355302      -0.21433027      -0.22388654      -0.18901815       1.32004697      -1.25927781       0.36968120
Pb       6.48269159      30.44584607       6.08087808       0.31071953       0.11857826       0.03319772      -0.87012160       2.24807908       1.13774196
Pb       3.74979799      22.72253196       2.66993482       0.26970370       0.24396355      -0.26952697       1.48311009      -0.70242372      -0.25928671
Pb      31.33616071      22.69722967       3.46677682       0.11152845       0.02497668      -0.27240804       0.05230283      -4.26015248       1.81719894
Pb      10.48359256      30.66772835       6.23083503      -0.22881478      -0.11647827       0.10859101       1.25269215      -0.52168078       2.07173840
Pb      14.35794172      30.60202428       6.45133321      -0.00014677      -0.00862618       0.24634577       0.06319283       0.77963832       0.08091680
Pb      11.83048692      22.59905019       2.69452609      -0.01583332      -0.22290078      -0.09148225      -0.34592136      -4.02099143       0.96940772
Pb       7.86956404      22.60454253       2.71546535      -0.17264522       0.06240771      -0.23244369       1.06838436       3.22018826       0.94510792
I        4.38088534      16.44129691       1.00461030       0.15945456      -0.01992577      -0.06697730       0.89313155      -1.15574565      -0.57176039
I        1.88277176      20.97642517       0.72458409      -0.14628334       0.04193250       0.03414838      -1.69294602      -0.31831184      -0.81777687
I        4.25041851      15.94865589       4.99784278       0.14447317       0.03969370       0.00612831       0.87746976      -1.31971428      -0.80351613
I        1.70298720      22.13837736       4.94088651      -0.11449054      -0.13907393       0.34997420       0.94741781       0.19942467      -0.65770519
I        5.79717681      20.24451304       3.26931359      -0.08395917      -0.17925162       0.04145349       2.35533821      -0.60347728       0.11637811
I        0.48094927      17.78337391       6.81920601      -0.05460539       0.31965240       0.02745224       0.05062166      -1.96977208       0.34890844
I        5.91352311      24.55658214       4.46347150      -0.05981248      -0.08082921      -0.01419946       0.39170068      -0.09307500       0.62754177
I        0.45690629      29.20374815       4.03087499       0.11360368       0.03237625       0.08359364       1.50881538       0.36934703      -1.55252430
I        5.96795717      23.51104526       0.27138814      -0.07163627      -0.14667291       0.06376436      -1.83909085      -0.18965234      -1.61451635
I        0.66617379      28.96492593       0.10431383      -0.17983373      -0.11999640      -0.10776005      -2.13750614      -0.35405525       0.41488524
I        4.37462553      28.17148878       6.68556168      -0.11136088       0.00520249      -0.01128012       0.98334028       0.16951685      -0.67142398
I        1.68703661      25.17981426       1.84867530       0.00959998      -0.08992500       0.11858727      -2.60688065      -0.64388126       1.17328422
I       12.37766599      16.62581859       0.94050748       0.16943082      -0.08533899      -0.01181778       0.66325247       1.44350392      -1.76719096
I        9.90609544      20.70718526       0.89620682       0.11067778       0.10956747       0.16484746      -0.26258893      -0.96757126      -1.10801202
I       12.11611274      15.88219280       5.30827407       0.06924871       0.26636963      -0.21189933      -1.45897757      -2.17362465       0.03861277
I        9.90047279      21.80086206       5.10001674       0.09430601       0.09870563       0.12263684       1.04095411      -1.51760254       0.11176101
I       13.90677555      20.02656705       3.56008535      -0.06077087       0.18010609      -0.10127493      -0.10019152       0.53153330       2.26944257
I        8.38990958      17.93159791       6.93903132       0.06679092       0.09826301      -0.02655171      -0.79983420       0.40862429      -0.61045803
I       13.89857357      24.41940122       4.66910060      -0.04821404      -0.11229373      -0.23886763       0.13763115      -0.53879613      -0.25105634
I        8.61583663      28.65558445       4.27924508      -0.12023760       0.17287457       0.05360209       0.40766448       0.09714822      -2.06123582
I       14.06173414      23.12420201       0.09972507      -0.18688971       0.05017704       0.21825582       1.04717049      -0.67262776      -0.07404597
I        8.36945894      28.61826854       0.04083864       0.05458871      -0.02953675       0.36265254       1.23426312       0.86837096      -0.27993089
I       12.27587027      28.07303068       6.98509637       0.15017413       0.05427104      -0.05733031       0.18703615       0.41195306      -0.20255696
I        9.90704662      25.05779239       1.90925910       0.14659015      -0.00698673       0.08568390       0.74490650      -1.50708437       0.43679025
Cs       0.49540346      17.78712625      11.69146074       0.01746466       0.15900343      -0.05027903      -2.17508203      -0.11810834       2.32856170
Cs       4.64374105      19.56520442      -1.43140759       0.14592099       0.03943236       0.01519564       0.97462342      -0.32882609      -0.10475649
Cs       1.05985242      26.03497847       6.20746868      -0.03303432      -0.03973187       0.04763462      -0.06447382       2.20704975      -1.23552473
Cs       4.96220492      28.52925470      10.89936049      -0.06173227      -0.15275405      -0.05662559       1.28835355       3.51912522      -1.92142944
Cs       8.66811956      18.55319961      11.69187164       0.06684856       0.02743630      -0.03774390      -1.13248821      -1.45116998       1.60651226
Cs      13.54910550      19.62250166      -1.57301372      -0.15915432       0.05385401      -0.02576533       0.87003502       1.65303401      -0.06684544
Cs       9.11045203      25.75477269       6.82336296      -0.05576923      -0.11228582       0.03277817      -0.85332932       2.86497098      -1.61184693
Cs      12.69923714      28.36053414      11.06671104       0.01710164       0.04496248      -0.04364093       0.08057518       1.79846008       0.97311122
Pb       2.63220028      29.61435537      -2.31507289       0.08061913       0.25788075       0.18478717       0.11938263      -4.76483278      -2.11836366
Pb       6.53608993      29.72316020      -2.22828427      -0.21470643       0.16658947       0.03996857      -0.87970411      -0.07042423      -1.78477748
Pb       3.25232174      23.24571643      11.27088996       0.44494910       0.22709618      -0.35968086      -0.59351692      -1.37485756      -1.67821465
Pb      31.07671039      23.34999112      11.65696694       0.09308930       0.00778706       0.12922010       1.59891859       3.71779115       2.13439172
Pb      10.41344742      29.81342366      -2.02441046       0.13444287       0.03474618      -0.24311715       0.18382164       2.14858647       1.49625627
Pb      14.43989701      29.45523390      -1.82787405       0.15571650       0.13473222       0.03935284       2.45442618      -0.55100335       1.14250422
Pb      11.35559332      23.58458427      11.30680068       0.00835394      -0.36340827       0.02418896       2.49607191      -3.11429474      -1.05347982
Pb       7.35330139      23.39271143      11.24442634      -0.02870986       0.05427166       0.10574072       0.29982247      -1.74816763      -0.89117931
I        4.34586342      17.34385281       9.23290490      -0.14901311      -0.01881442       0.01745669       2.00352097      -0.65593083       1.80507196
I        1.68940602      21.30261236       9.43906353      -0.21474167      -0.15489556      -0.17910045       2.28608964       1.52727790      -1.65877347
I        4.03605690      17.24932374      13.75619969       0.01102216      -0.13870456       0.00128126      -0.71292994       1.44707131      -1.46220661
I        1.28170320      22.65486342      13.47834690      -0.14550795      -0.04910084       0.34939205       1.82255436      -0.24187697      -0.92942333
I        5.43012399      20.92791267      11.79324519       0.16718822      -0.21604207      -0.04216568      -0.29027974      -0.78600876       1.81520659
I        0.16130556      18.94576209      15.71226658       0.15337632      -0.05398612      -0.00369227      -1.45525748      -0.30620384       1.05970322
I        5.37594798      24.89764666      13.14315514      -0.03133929       0.28884167       0.26259688      -0.24024116       0.53162412       0.54167526
I        0.38135257      29.62473218      12.77650381      -0.14524076      -0.10705490      -0.05316659       1.88714896      -1.00340111      -0.13113331
I        5.57450352      24.64438638       8.94763205      -0.03826701      -0.20689146       0.00663096      -0.34577700       0.66221192      -0.80053940
I        0.41117731      29.72687748       8.49675430       0.03398207       0.05572600       0.16544595      -0.06586103      -2.38371195      -1.78108396
I        4.38635415      27.15209089      -1.79498536       0.19643357      -0.19028080      -0.05711397       0.54791509       1.81611325      -0.87662258
I        1.58237098      25.71683524      10.17573079      -0.17406006       0.22035448       0.07995698       1.70521342      -0.91428321      -0.85153834
I       12.23383940      16.87623540       9.77666576      -0.04187570       0.12642933       0.05315095      -1.35196555       0.19051966       3.43167672
I        9.41116488      21.66352452       9.45286266       0.08281698       0.01148716      -0.14365254       0.35032873       0.76899860      -0.21221099
I       12.17966701      17.41965848      13.93593764       0.06946510      -0.12898137      -0.06432157       0.55089211      -1.86768489      -0.25326972
I        9.52621532      22.64298109      13.75323038       0.01797848      -0.04075040      -0.02776085       2.39860002      -2.30750137      -0.32761504
I       13.45338335      20.76306239      11.29482947      -0.04242188       0.13173227       0.14659708      -0.10457501      -1.53521695      -0.73031818
I        8.14021256      18.83179926      15.40251919      -0.05162455      -0.04486458       0.12653601       1.50142356       0.40499511      -0.15423407
I       13.55831255      25.07904394      13.20511683       0.01831114      -0.08435855      -0.12162925      -0.10040897      -2.87622866       2.52949329
I        8.10155763      29.76679636      12.92611457       0.07180469      -0.06620510      -0.16261721       0.57184552       0.60760969       0.34518639
I       13.29111437      24.05661959       8.70149756       0.09285022       0.19741931      -0.12699815       1.76314933      -0.73655908      -1.73176534
I        8.36400551      29.72455767       8.66751751      -0.04665853      -0.00897263      -0.11855894      -0.60422586       0.53743271      -0.14379021
I       12.22976388      27.15675478      -1.66694616      -0.09828286      -0.01693156       0.11666437      -1.22767866       0.73712630      -0.46919834
I        9.49710716      26.02925125      10.99846088      -0.08002119       0.09503696      -0.08082240       1.32965318      -0.42497703       1.21993938
Cs      17.08514229       2.30267198       4.19344357      -0.03753074       0.01910962       0.15465664      -1.26948120       0.47914943       0.52061516
Cs      20.57402821       5.49597116       8.90818490       0.08935207      -0.04296182      -0.05149447       2.79465697       0.10040127      -0.72515837
Cs      17.09091040      10.04360503      -0.76994544       0.05166311      -0.07802810       0.04852821      -0.10861387      -0.23401983       2.53937431
Cs      20.67111204      12.53914817       3.95196566       0.16648637       0.11913025      -0.00182548       2.47960494      -0.25713277       0.01353550
Cs      24.83940922       2.58215704       4.93781467       0.00456364       0.08835096      -0.04032429      -1.37702966      -1.94838295       2.30809539
Cs      28.34722284       5.33802999       9.16660923       0.00916853       0.02909061      -0.01437533       0.18186363      -0.48289225       0.26806092
Cs      25.30788195       9.57319113      -0.36370982      -0.03941747      -0.00370636       0.06426801      -0.29613483       0.57345888       1.44241142
Cs      28.38267410      13.16730318       4.36293194       0.02282504      -0.05901431      -0.01270791      -0.33788303       0.48730984       1.03833501
Pb      18.45619591      15.40178195       7.92154732      -0.34949547       0.00064402       0.09732922      -0.98566882      -0.40380736      -2.44571011
Pb      22.25922908      15.43564051       8.21101544       0.34102201      -0.07453351      -0.26888802       0.09977371      -1.11802869      -0.36587866
Pb      19.72050219       7.89565982       4.28035904      -0.04738474      -0.32631759       0.42139232       0.16326201      -0.17981036       3.90282979
Pb      15.87879401       7.47292853       4.04817003       0.08625756      -0.14169926       0.45816124       2.22849004      -3.54847530       0.53282724
Pb      26.29746740      15.52872454       8.49191040      -0.41178242      -0.24017524      -0.37277155      -1.22683063      -1.37183916       0.66957524
Pb      30.30578370      15.36458824       8.59189922      -0.08275092      -0.20856619      -0.54522185       1.16805636      -0.51229670       0.18203384
Pb      27.56077245       7.74828017       4.46925381       0.13105128       0.01201997      -0.16451507       3.54814584      -0.83370569       1.15969176
Pb      23.59415225       7.92583924       4.25683927      -0.05619638      -0.09169710      -0.00047926       3.76561699       2.86618135       0.19491944
I       20.36111305       1.00758159       2.81400442      -0.00775802       0.11084621      -0.04453376       0.54588369       0.84530393       0.01710801
I       18.17338888       5.68384551       2.58684749      -0.25165537      -0.12368209      -0.36554264       0.09685172       0.47769326      -0.07113167
I       20.20041003       1.50765519       7.05053555       0.03514293       0.06575296      -0.36410248       0.81828379       1.07213048       0.97199883
I       17.74894978       6.83267925       6.86566536       0.00435851       0.27088484      -0.53415123       1.63591322      -0.42089954       0.59629731
I       21.70720520       5.26872791       4.52874062       0.03375261       0.05100015       0.08429494       1.39451126       0.44720333       1.23647213
I       16.50271501       3.13159857       8.55727815      -0.34141323      -0.09146464       0.03896120       1.23546759       2.52822029       2.27899340
I       21.49825571       9.65762586       6.22459921       0.30094437      -0.05667077       0.15368946      -1.60615297      -0.94275431       1.08621221
I       16.38308980      13.81478948       5.93889629       0.08698961      -0.07079739      -0.18796314       0.86189221      -1.81527382       0.26632750
I       21.59075911       9.02260037       1.93912171       0.08804954      -0.05645191      -0.09137287       1.56983311      -0.20745528       1.77396908
I       16.57228881      14.09568829       1.61948849      -0.17122740      -0.08364119       0.19656615       0.67812006      -1.90559412       2.27539057
I       20.12127803      12.86730383       8.55512822       0.08455806       0.05023779      -0.02033033       0.96232974       0.96890733      -2.70099129
I       17.59839865      10.13550243       3.54843305      -0.09761512       0.26520589      -0.07609631      -2.36603009      -1.56687693      -3.24160968
I       28.60226630       1.44318767       3.13657984      -0.09389453       0.01484553      -0.09174639       1.34065838      -0.60187782      -1.51454083
I       25.58312700       6.15109433       2.39318539       0.03249483       0.03379656       0.09781797       0.04775946      -0.78448705       0.59635622