320
Lattice="25.356093371687486 -0.1065490082268892 -0.19187677835240669 0.07755788227136919 25.376386568457004 0.27590338859444424 0.1691801122122475 -0.29781874292918886 25.404906270035514" Properties=species:S:1:pos:R:3:forces:R:3:momenta:R:3 pbc="T T T"
Cs      13.94601641       6.76368578       4.24230544      -0.12278084      -0.03759012      -0.01235728      -2.11983688      -1.51021113      -0.45838814
Cs       7.47970746       0.18106399       4.50052949      -0.03226225       0.02068800      -0.03507281      -0.59141988      -1.51338959       1.36181910
Cs       6.60949451       0.75073016      10.53874853       0.06901672      -0.12398084      -0.01544728       0.25030438      -1.41412630      -1.24237064
Cs      13.12590874       7.24911539      11.18682651      -0.14337333       0.01209333      -0.06350119       0.44867129      -0.50674768      -0.65483862
Cs      13.02088235       0.62064911      10.55588663      -0.05488676       0.06585366       0.01789354      -0.60858242      -0.46710438      -0.40383659
Cs       6.60738077       7.21165930      10.59385508       0.06756244       0.22535346       0.13667526       0.77372102      -0.77434553      -1.51950769
Cs       7.19958219       6.48961482       4.39917252       0.10917478      -0.10613504      -0.06817302      -3.06053398      -0.48483447      -0.69571635
Cs      13.48445120       0.41824688       4.35189557       0.03634084      -0.04925653      -0.07778516      -0.50831559      -1.65130323      -2.32691428
Pb       3.84226943      22.85412963       7.77538059      -0.13540833       0.12822941      -0.01069346      -0.11813878       1.50224884      -1.11745697
Pb      10.12134535       3.69269423       7.72029929       0.02532826       0.15282529      -0.15681382      -0.44462155       0.75762032       0.54480093
Pb       3.71108483       3.96829263       7.72884524       0.09517589      -0.19791447      -0.25309336      -2.16223696      -2.30546388       0.84137000
Pb      10.29691219      22.72791330       7.72983626      -0.01154575      -0.21158801       0.07322841       1.15306550      -0.32843086       0.76387476
Pb       3.92463865      22.96900547       1.42283677      -0.23477973      -0.09429752      -0.02618688       1.09681208      -0.48841881      -4.53022770
Pb      10.19871392       3.55481510       1.34154097      -0.10106456       0.26585682      -0.01581776       0.20791545       0.92153634      -0.85817692
Pb       3.86838717       3.75821952       1.14793976      -0.01852807       0.04090620       0.27410836      -0.93754665      -1.29612378      -2.78381696
Pb      10.10808822      22.66860488       1.40194921       0.04337697      -0.19305270       0.03147790      -0.20954118       0.69093947      -0.01807268
I        3.11582022       0.86269032       7.92530774       0.11474854      -0.35042158      -0.08196306      -0.19854393      -1.08515322       1.29279518
I        9.68039981       6.90990147       8.20032315       0.00540174      -0.31206400      -0.06674750      -1.35325708      -0.56011265       1.55225874
I       17.13237932       7.00200038       7.02046514      -0.01372331       0.14811911       0.08007533      -0.48129611      -0.67214546       0.50950740
I       10.76730311       0.41418684       7.18416282      -0.00489394       0.30013153       0.01744587       0.75748034      -2.12079413       1.68167579
I       13.41955296       4.56671807       8.30240604       0.06156719      -0.10685129      -0.03605408       1.63382611       1.18674052      -0.40353993
I        6.91262963      10.27635921       8.04132004      -0.00089409       0.21001793       0.06013826      -0.06688632       0.76481249       0.27653839
I        7.12707442       3.16192804       6.89620509      -0.20291286       0.11007002       0.14288463       1.33693237       0.33323087      -0.31135324
I       13.28912009      21.99345028       7.29282661       0.09001361       0.10890146      -0.03065164      -0.12231641      -0.80412658      -0.86705056
I       17.05348922       6.96837042       1.20270877      -0.00696639      -0.02542186       0.06862099      -0.04575133      -0.49957090       0.38444966
I       10.42185595       0.41973807       1.54870771       0.16204867       0.02322675       0.11014797       0.33091599       0.11133223       0.59900692
I        3.10144470       0.52242006      13.33929980       0.11652282       0.10459978       0.07111057       0.67548801      -1.68460318      -1.11405776
I        9.65718190       6.63837903      13.53892955      -0.06869435       0.11183499      -0.04339808       0.07404446       0.82016092      -0.27839915
I        7.15861698       3.11825657      14.79862056      -0.28331650      -0.04665916      -0.11840965      -0.62399090      -1.07430218       0.45897568
I       13.32935031      22.15051538      14.55908635       0.01827441       0.04379724      -0.03869438      -0.39706578       1.51252175      -0.71306682
I       13.30806286       4.17934211       0.66531565       0.27008655      -0.03829444      -0.02271541      -0.71062374       0.54776857       0.93848257
I        6.80797630      10.78801635       0.80991299       0.14812894      -0.02550698      -0.05583424       1.16421205      -2.29539940      -0.15060255
I        3.12029259      10.07118323      10.73241849       0.21286147      -0.14134329       0.04133883      -0.87466269      -0.84330243      -1.10458037
I        9.85209034       3.10182290      10.80904711      -0.09940499      -0.07628813      -0.24335052       1.16900811      -0.62827171       1.77951444
I       16.85125019      23.25435231       4.43036711      -0.02566913       0.06826971       0.07998581       0.68068254       0.73306078      -0.49347934
I       10.78143495       3.93721325       4.33081029       0.00857400       0.13422239       0.39122081      -0.84635337      -1.47505680      -1.41596946
I        3.24023627       3.68714875       4.44854000       0.06514935      -0.06891431      -0.06657087      -1.57911116      -0.03199405       0.68938726
I        9.55260724       9.65401485       4.47947111       0.02444710      -0.03971873       0.02012836       0.58728736       2.78415560      -2.19580055
I       17.64553035       3.97028873      10.66673297      -0.17978189       0.01669104       0.03049811       0.37947542      -0.49159675      -0.13286272
I       10.58341196      23.09273796      11.00424843      -0.00291321      -0.04638914      -0.10764754       2.16842075       0.46107745       1.19067297
Cs      14.03060647       6.61477641      16.94475858      -0.12278084      -0.03759012      -0.01235728      -2.11983688      -1.51021113      -0.45838814
Cs       7.56429752       0.03215462      17.20298263      -0.03226225       0.02068800      -0.03507281      -0.59141988      -1.51338959       1.36181910
Cs       6.69408457       0.60182079      23.24120167       0.06901672      -0.12398084      -0.01544728       0.25030438      -1.41412630      -1.24237064
Cs      13.21049880       7.10020602      23.88927965      -0.14337333       0.01209333      -0.06350119       0.44867129      -0.50674768      -0.65483862
Cs      13.10547241       0.47173974      23.25833977      -0.05488676       0.06585366       0.01789354      -0.60858242      -0.46710438      -0.40383659
Cs       6.69197083       7.06274993      23.29630822       0.06756244       0.22535346       0.13667526       0.77372102      -0.77434553      -1.51950769
Cs       7.28417225       6.34070545      17.10162566       0.10917478      -0.10613504      -0.06817302      -3.06053398      -0.48483447      -0.69571635
Cs      13.56904126       0.26933751      17.05434871       0.03634084      -0.04925653      -0.07778516      -0.50831559      -1.65130323      -2.32691428
Pb       3.92685949      22.70522026      20.47783372      -0.13540833       0.12822941      -0.01069346      -0.11813878       1.50224884      -1.11745697
Pb      10.20593541       3.54378486      20.42275243       0.02532826       0.15282529      -0.15681382      -0.44462155       0.75762032       0.54480093
Pb       3.79567489       3.81938326      20.43129838       0.09517589      -0.19791447      -0.25309336      -2.16223696      -2.30546388       0.84137000
Pb      10.38150225      22.57900393      20.43228939      -0.01154575      -0.21158801       0.07322841       1.15306550      -0.32843086       0.76387476
Pb       4.00922871      22.82009610      14.12528990      -0.23477973      -0.09429752      -0.02618688       1.09681208      -0.48841881      -4.53022770
Pb      10.28330398       3.40590573      14.04399411      -0.10106456       0.26585682      -0.01581776       0.20791545       0.92153634      -0.85817692
Pb       3.95297723       3.60931015      13.85039290      -0.01852807       0.04090620       0.27410836      -0.93754665      -1.29612378      -2.78381696
Pb      10.19267828      22.51969551      14.10440234       0.04337697      -0.19305270       0.03147790      -0.20954118       0.69093947      -0.01807268
I        3.20041028       0.71378095      20.62776088       0.11474854      -0.35042158      -0.08196306      -0.19854393      -1.08515322       1.29279518
I        9.76498987       6.76099210      20.90277629       0.00540174      -0.31206400      -0.06674750      -1.35325708      -0.56011265       1.55225874
I       17.21696938       6.85309101      19.72291828      -0.01372331       0.14811911       0.08007533      -0.48129611      -0.67214546       0.50950740
I       10.85189317       0.26527747      19.88661596      -0.00489394       0.30013153       0.01744587       0.75748034      -2.12079413       1.68167579
I       13.50414302       4.41780870      21.00485918       0.06156719      -0.10685129      -0.03605408       1.63382611       1.18674052      -0.40353993
I        6.99721969      10.12744984      20.74377318      -0.00089409       0.21001793       0.06013826      -0.06688632       0.76481249       0.27653839
I        7.21166448       3.01301867      19.59865823      -0.20291286       0.11007002       0.14288463       1.33693237       0.33323087      -0.31135324
I       13.37371015      21.84454091      19.99527974       0.09001361       0.10890146      -0.03065164      -0.12231641      -0.80412658      -0.86705056
I       17.13807928       6.81946105      13.90516191      -0.00696639      -0.02542186       0.06862099      -0.04575133      -0.49957090       0.38444966
I       10.50644601       0.27082870      14.25116085       0.16204867       0.02322675       0.11014797       0.33091599       0.11133223       0.59900692
I        3.01685464       0.67132943       0.63684666       0.11652282       0.10459978       0.07111057       0.67548801      -1.68460318      -1.11405776
I        9.57259184       6.78728840       0.83647641      -0.06869435       0.11183499      -0.04339808       0.07404446       0.82016092      -0.27839915
I        7.07402692       3.26716594       2.09616742      -0.28331650      -0.04665916      -0.11840965      -0.62399090      -1.07430218       0.45897568
I       13.24476026      22.29942475       1.85663321       0.01827441       0.04379724      -0.03869438      -0.39706578       1.51252175      -0.71306682
I       13.39265292       4.03043274      13.36776879       0.27008655      -0.03829444      -0.02271541      -0.71062374       0.54776857       0.93848257
I        6.89256636      10.63910698      13.51236613       0.14812894      -0.02550698      -0.05583424       1.16421205      -2.29539940      -0.15060255
I        3.20488265       9.92227386      23.43487163       0.21286147      -0.14134329       0.04133883      -0.87466269      -0.84330243      -1.10458037
I        9.93668040       2.95291353      23.51150025      -0.09940499      -0.07628813      -0.24335052       1.16900811      -0.62827171       1.77951444
I       16.93584025      23.10544294      17.13282024      -0.02566913       0.06826971       0.07998581       0.68068254       0.73306078      -0.49347934
I       10.86602501       3.78830388      17.03326343       0.00857400       0.13422239       0.39122081      -0.84635337      -1.47505680      -1.41596946
I        3.32482633       3.53823938      17.15099314       0.06514935      -0.06891431      -0.06657087      -1.57911116      -0.03199405       0.68938726
I        9.63719730       9.50510548      17.18192425       0.02444710      -0.03971873       0.02012836       0.58728736       2.78415560      -2.19580055
I       17.73012041       3.82137936      23.36918611      -0.17978189       0.01669104       0.03049811       0.37947542      -0.49159675      -0.13286272
I       10.66800202      22.94382859      23.70670156      -0.00291321      -0.04638914      -0.10764754       2.16842075       0.46107745       1.19067297
Cs      13.98479535      19.45187906       4.38025713      -0.12278084      -0.03759012      -0.01235728      -2.11983688      -1.51021113      -0.45838814
Cs       7.51848640      12.86925727       4.63848118      -0.03226225       0.02068800      -0.03507281      -0.59141988      -1.51338959       1.36181910
Cs       6.64827345      13.43892344      10.67670022       0.06901672      -0.12398084      -0.01544728       0.25030438      -1.41412630      -1.24237064
Cs      13.16468768      19.93730867      11.32477820      -0.14337333       0.01209333      -0.06350119       0.44867129      -0.50674768      -0.65483862
Cs      13.05966129      13.30884239      10.69383832      -0.05488676       0.06585366       0.01789354      -0.60858242      -0.46710438      -0.40383659
Cs       6.64615971      19.89985258      10.73180677       0.06756244       0.22535346       0.13667526       0.77372102      -0.77434553      -1.51950769
Cs       7.23836113      19.17780810       4.53712421       0.10917478      -0.10613504      -0.06817302      -3.06053398      -0.48483447      -0.69571635
Cs      13.52323014      13.10644016       4.48984726       0.03634084      -0.04925653      -0.07778516      -0.50831559      -1.65130323      -2.32691428
Pb       3.80349049      10.16593634       7.63742889      -0.13540833       0.12822941      -0.01069346      -0.11813878       1.50224884      -1.11745697
Pb      10.16012429      16.38088751       7.85825098       0.02532826       0.15282529      -0.15681382      -0.44462155       0.75762032       0.54480093
Pb       3.74986377      16.65648591       7.86679693       0.09517589      -0.19791447      -0.25309336      -2.16223696      -2.30546388       0.84137000
Pb      10.25813325      10.03972001       7.59188456      -0.01154575      -0.21158801       0.07322841       1.15306550      -0.32843086       0.76387476
Pb       3.88585971      10.28081218       1.28488507      -0.23477973      -0.09429752      -0.02618688       1.09681208      -0.48841881      -4.53022770
Pb      10.23749286      16.24300838       1.47949266      -0.10106456       0.26585682      -0.01581776       0.20791545       0.92153634      -0.85817692
Pb       3.90716611      16.44641280       1.28589145      -0.01852807       0.04090620       0.27410836      -0.93754665      -1.29612378      -2.78381696
Pb      10.06930928       9.98041159       1.26399751       0.04337697      -0.19305270       0.03147790      -0.20954118       0.69093947      -0.01807268
I        3.15459916      13.55088360       8.06325943       0.11474854      -0.35042158      -0.08196306      -0.19854393      -1.08515322       1.29279518
I        9.71917875      19.59809475       8.33827484       0.00540174      -0.31206400      -0.06674750      -1.35325708      -0.56011265       1.55225874
I       17.17115826      19.69019366       7.15841683      -0.01372331       0.14811911       0.08007533      -0.48129611      -0.67214546       0.50950740
I       10.80608205      13.10238012       7.32211451      -0.00489394       0.30013153       0.01744587       0.75748034      -2.12079413       1.68167579
I       13.45833190      17.25491135       8.44035773       0.06156719      -0.10685129      -0.03605408       1.63382611       1.18674052      -0.40353993
I        6.95140857      22.96455249       8.17927173      -0.00089409       0.21001793       0.06013826      -0.06688632       0.76481249       0.27653839
I        7.16585336      15.85012132       7.03415678      -0.20291286       0.11007002       0.14288463       1.33693237       0.33323087      -0.31135324
I       13.25034115       9.30525699       7.15487491       0.09001361       0.10890146      -0.03065164      -0.12231641      -0.80412658      -0.86705056
I       17.09226816      19.65656370       1.34066046      -0.00696639      -0.02542186       0.06862099      -0.04575133      -0.49957090       0.38444966
I       10.46063489      13.10793135       1.68665940       0.16204867       0.02322675       0.11014797       0.33091599       0.11133223       0.59900692
I        3.14022364      13.21061334      13.47725149       0.11652282       0.10459978       0.07111057       0.67548801      -1.68460318      -1.11405776
I        9.69596084      19.32657231      13.67688124      -0.06869435       0.11183499      -0.04339808       0.07404446       0.82016092      -0.27839915
I        7.19739592      15.80644985      14.93657225      -0.28331650      -0.04665916      -0.11840965      -0.62399090      -1.07430218       0.45897568
I       13.29057137       9.46232209      14.42113465       0.01827441       0.04379724      -0.03869438      -0.39706578       1.51252175      -0.71306682
I       13.34684180      16.86753539       0.80326734       0.27008655      -0.03829444      -0.02271541      -0.71062374       0.54776857       0.93848257
I        6.84675524      23.47620963       0.94786468       0.14812894      -0.02550698      -0.05583424       1.16421205      -2.29539940      -0.15060255
I        3.15907153      22.75937651      10.87037018       0.21286147      -0.14134329       0.04133883      -0.87466269      -0.84330243      -1.10458037
I        9.89086928      15.79001618      10.94699880      -0.09940499      -0.07628813      -0.24335052       1.16900811      -0.62827171       1.77951444
I       16.81247125      10.56615902       4.29241541      -0.02566913       0.06826971       0.07998581       0.68068254       0.73306078      -0.49347934
I       10.82021389      16.62540653       4.46876198       0.00857400       0.13422239       0.39122081      -0.84635337      -1.47505680      -1.41596946
I        3.27901521      16.37534203       4.58649169       0.06514935      -0.06891431      -0.06657087      -1.57911116      -0.03199405       0.68938726
I        9.59138618      22.34220813       4.61742280       0.02444710      -0.03971873       0.02012836       0.58728736       2.78415560      -2.19580055
I       17.68430929      16.65848201      10.80468466      -0.17978189       0.01669104       0.03049811       0.37947542      -0.49159675      -0.13286272
I       10.54463302      10.40454467      10.86629673      -0.00291321      -0.04638914      -0.10764754       2.16842075       0.46107745       1.19067297
Cs      14.06938541      19.30296969      17.08271027      -0.12278084      -0.03759012      -0.01235728      -2.11983688      -1.51021113      -0.45838814
Cs       7.60307646      12.72034790      17.34093432      -0.03226225       0.02068800      -0.03507281      -0.59141988      -1.51338959       1.36181910
Cs       6.73286351      13.29001407      23.37915336       0.06901672      -0.12398084      -0.01544728       0.25030438      -1.41412630      -1.24237064
Cs      13.24927774      19.78839930      24.02723134      -0.14337333       0.01209333      -0.06350119       0.44867129      -0.50674768      -0.65483862
Cs      13.14425135      13.15993302      23.39629146      -0.05488676       0.06585366       0.01789354      -0.60858242      -0.46710438      -0.40383659
Cs       6.73074977      19.75094321      23.43425991       0.06756244       0.22535346       0.13667526       0.77372102      -0.77434553      -1.51950769
Cs       7.32295119      19.02889873      17.23957735       0.10917478      -0.10613504      -0.06817302      -3.06053398      -0.48483447      -0.69571635
Cs      13.60782020      12.95753079      17.19230040       0.03634084      -0.04925653      -0.07778516      -0.50831559      -1.65130323      -2.32691428
Pb       3.88808055      10.01702697      20.33988203      -0.13540833       0.12822941      -0.01069346      -0.11813878       1.50224884      -1.11745697
Pb      10.24471435      16.23197814      20.56070412       0.02532826       0.15282529      -0.15681382      -0.44462155       0.75762032       0.54480093
Pb       3.83445383      16.50757654      20.56925007       0.09517589      -0.19791447      -0.25309336      -2.16223696      -2.30546388       0.84137000
Pb      10.34272331       9.89081064      20.29433770      -0.01154575      -0.21158801       0.07322841       1.15306550      -0.32843086       0.76387476
Pb       3.97044977      10.13190281      13.98733821      -0.23477973      -0.09429752      -0.02618688       1.09681208      -0.48841881      -4.53022770
Pb      10.32208292      16.09409901      14.18194580      -0.10106456       0.26585682      -0.01581776       0.20791545       0.92153634      -0.85817692
Pb       3.99175617      16.29750343      13.98834459      -0.01852807       0.04090620       0.27410836      -0.93754665      -1.29612378      -2.78381696
Pb      10.15389934       9.83150222      13.96645065       0.04337697      -0.19305270       0.03147790      -0.20954118       0.69093947      -0.01807268
I        3.23918922      13.40197423      20.76571257       0.11474854      -0.35042158      -0.08196306      -0.19854393      -1.08515322       1.29279518
I        9.80376881      19.44918538      21.04072798       0.00540174      -0.31206400      -0.06674750      -1.35325708      -0.56011265       1.55225874
I       17.25574832      19.54128429      19.86086997      -0.01372331       0.14811911       0.08007533      -0.48129611      -0.67214546       0.50950740
I       10.89067211      12.95347075      20.02456765      -0.00489394       0.30013153       0.01744587       0.75748034      -2.12079413       1.68167579
I       13.54292196      17.10600198      21.14281087       0.06156719      -0.10685129      -0.03605408       1.63382611       1.18674052      -0.40353993
I        7.03599863      22.81564312      20.88172487      -0.00089409       0.21001793       0.06013826      -0.06688632       0.76481249       0.27653839
I        7.25044342      15.70121195      19.73660992      -0.20291286       0.11007002       0.14288463       1.33693237       0.33323087      -0.31135324
I       13.33493121       9.15634762      19.85732805       0.09001361       0.10890146      -0.03065164      -0.12231641      -0.80412658      -0.86705056
I       17.17685822      19.50765433      14.04311360      -0.00696639      -0.02542186       0.06862099      -0.04575133      -0.49957090       0.38444966
I       10.54522495      12.95902198      14.38911254       0.16204867       0.02322675       0.11014797       0.33091599       0.11133223       0.59900692
I        3.05563359      13.35952272       0.77479836       0.11652282       0.10459978       0.07111057       0.67548801      -1.68460318      -1.11405776
I        9.61137079      19.47548169       0.97442811      -0.06869435       0.11183499      -0.04339808       0.07404446       0.82016092      -0.27839915
I        7.11280587      15.95535923       2.23411912      -0.28331650      -0.04665916      -0.11840965      -0.62399090      -1.07430218       0.45897568
I       13.20598132       9.61123147       1.71868152       0.01827441       0.04379724      -0.03869438      -0.39706578       1.51252175      -0.71306682
I       13.43143186      16.71862602      13.50572048       0.27008655      -0.03829444      -0.02271541      -0.71062374       0.54776857       0.93848257
I        6.93134530      23.32730026      13.65031782       0.14812894      -0.02550698      -0.05583424       1.16421205      -2.29539940      -0.15060255
I        3.24366159      22.61046714      23.57282332       0.21286147      -0.14134329       0.04133883      -0.87466269      -0.84330243      -1.10458037
I        9.97545934      15.64110681      23.64945194      -0.09940499      -0.07628813      -0.24335052       1.16900811      -0.62827171       1.77951444
I       16.89706131      10.41724965      16.99486855      -0.02566913       0.06826971       0.07998581       0.68068254       0.73306078      -0.49347934
I       10.90480395      16.47649716      17.17121512       0.00857400       0.13422239       0.39122081      -0.84635337      -1.47505680      -1.41596946
I        3.36360527      16.22643266      17.28894483       0.06514935      -0.06891431      -0.06657087      -1.57911116      -0.03199405       0.68938726
I        9.67597624      22.19329876      17.31987594       0.02444710      -0.03971873       0.02012836       0.58728736       2.78415560      -2.19580055
I       17.76889935      16.50957264      23.50713780      -0.17978189       0.01669104       0.03049811       0.37947542      -0.49159675      -0.13286272
I       10.62922308      10.25563530      23.56874987      -0.00291321      -0.04638914      -0.10764754       2.16842075       0.46107745       1.19067297
Cs       1.26796972       6.81696028       4.33824383      -0.12278084      -0.03759012      -0.01235728      -2.11983688      -1.51021113      -0.45838814
Cs      20.15775415       0.12778949       4.40459110      -0.03226225       0.02068800      -0.03507281      -0.59141988      -1.51338959       1.36181910
Cs      19.28754120       0.69745566      10.44281014       0.06901672      -0.12398084      -0.01544728       0.25030438      -1.41412630      -1.24237064
Cs       0.44786205       7.30238989      11.28276490      -0.14337333       0.01209333      -0.06350119       0.44867129      -0.50674768      -0.65483862
Cs       0.34283566       0.67392361      10.65182502      -0.05488676       0.06585366       0.01789354      -0.60858242      -0.46710438      -0.40383659
Cs      19.28542746       7.15838480      10.49791669       0.06756244       0.22535346       0.13667526       0.77372102      -0.77434553      -1.51950769
Cs      19.87762888       6.43634032       4.30323413       0.10917478      -0.10613504      -0.06817302      -3.06053398      -0.48483447      -0.69571635
Cs       0.80640451       0.47152138       4.44783396       0.03634084      -0.04925653      -0.07778516      -0.50831559      -1.65130323      -2.32691428
Pb      16.52031612      22.80085512       7.67944220      -0.13540833       0.12822941      -0.01069346      -0.11813878       1.50224884      -1.11745697
Pb      22.79939204       3.63941973       7.62436090       0.02532826       0.15282529      -0.15681382      -0.44462155       0.75762032       0.54480093
Pb      16.38913152       3.91501813       7.63290685       0.09517589      -0.19791447      -0.25309336      -2.16223696      -2.30546388       0.84137000
Pb      22.97495888      22.67463879       7.63389787      -0.01154575      -0.21158801       0.07322841       1.15306550      -0.32843086       0.76387476
Pb      16.60268534      22.91573096       1.32689838      -0.23477973      -0.09429752      -0.02618688       1.09681208      -0.48841881      -4.53022770
Pb      22.87676061       3.50154060       1.24560258      -0.10106456       0.26585682      -0.01581776       0.20791545       0.92153634      -0.85817692
Pb      16.54643386       3.70494502       1.05200137      -0.01852807       0.04090620       0.27410836      -0.93754665      -1.29612378      -2.78381696
Pb      22.78613491      22.61533037       1.30601082       0.04337697      -0.19305270       0.03147790      -0.20954118       0.69093947      -0.01807268
I       15.79386691       0.80941582       7.82936935       0.11474854      -0.35042158      -0.08196306      -0.19854393      -1.08515322       1.29279518
I       22.35844650       6.85662697       8.10438476       0.00540174      -0.31206400      -0.06674750      -1.35325708      -0.56011265       1.55225874
I        4.45433263       7.05527488       7.11640353      -0.01372331       0.14811911       0.08007533      -0.48129611      -0.67214546       0.50950740
I       23.44534980       0.36091234       7.08822443      -0.00489394       0.30013153       0.01744587       0.75748034      -2.12079413       1.68167579
I        0.74150627       4.61999257       8.39834443       0.06156719      -0.10685129      -0.03605408       1.63382611       1.18674052      -0.40353993
I       19.59067632      10.22308471       7.94538165      -0.00089409       0.21001793       0.06013826      -0.06688632       0.76481249       0.27653839
I       19.80512111       3.10865354       6.80026670      -0.20291286       0.11007002       0.14288463       1.33693237       0.33323087      -0.31135324
I        0.61107341      22.04672478       7.38876500       0.09001361       0.10890146      -0.03065164      -0.12231641      -0.80412658      -0.86705056
I        4.37544253       7.02164492       1.29864716      -0.00696639      -0.02542186       0.06862099      -0.04575133      -0.49957090       0.38444966
I       23.09990264       0.36646357       1.45276932       0.16204867       0.02322675       0.11014797       0.33091599       0.11133223       0.59900692
I       15.77949139       0.46914556      13.24336141       0.11652282       0.10459978       0.07111057       0.67548801      -1.68460318      -1.11405776
I       22.33522859       6.58510453      13.44299116      -0.06869435       0.11183499      -0.04339808       0.07404446       0.82016092      -0.27839915
I       19.83666367       3.06498207      14.70268217      -0.28331650      -0.04665916      -0.11840965      -0.62399090      -1.07430218       0.45897568
I        0.65130363      22.20378988      14.65502474       0.01827441       0.04379724      -0.03869438      -0.39706578       1.51252175      -0.71306682