320
Lattice="25.356093371687486 -0.1065490082268892 -0.19187677835240669 0.07755788227136919 25.376386568457004 0.27590338859444424 0.1691801122122475 -0.29781874292918886 25.404906270035514" Properties=species:S:1:pos:R:3:forces:R:3:momenta:R:3 pbc="T T T"
Cs      13.96076382       9.42403993       6.10583614      -0.04197864       0.03615468       0.03233004       0.15979880      -0.04815777       4.75255058
Cs       7.74878214       2.90256634       6.18966496      -0.06817172      -0.01238509      -0.02477409       0.26446382      -0.43542740      -0.24372769
Cs       6.21381458       3.69643319      12.55431063       0.15565787      -0.17854292       0.00212952      -1.70932666      -0.46014550      -1.31054610
Cs      13.00267553      10.02597873      12.40486330      -0.01397531      -0.12916004       0.12100889      -0.54197375      -1.53322666      -0.75908527
Cs      13.10446957       3.81352201      12.59328310       0.10686752      -0.02111765      -0.03896113      -0.58834192      -1.47091253      -2.59952271
Cs       6.69849293      10.22560919      12.73213606       0.09014590      -0.13237943      -0.02231279       0.24159332      -0.67673806      -0.65364821
Cs       7.31097061       8.89866591       6.50449021      -0.02935547       0.12506027      -0.11466173      -1.26772435       2.09618430      -0.48724902
Cs      13.51655678       2.57114656       6.42712678      -0.01268014       0.08692543      -0.05416986      -0.33948751      -1.12821099      -0.47804086
Pb       3.99508641      -0.10111713       9.33151076      -0.01030716       0.06646581       0.08386944       2.18377830       4.39647873       2.37836329
Pb      10.12345652       6.44249091       9.16898170       0.17464428      -0.04052974       0.35064774      -2.27261713       0.19737706      -0.30128474
Pb       3.80798677       6.25308868       9.52877239      -0.10041520       0.14235997      -0.00657682      -0.42829233       3.27676420      -1.92284813
Pb      10.23121038      -0.06577998       9.03535074      -0.21770144       0.06012732       0.10285095       0.99685562       2.67987035       0.02714160
Pb       3.67334327       0.36860920       3.11942074       0.15022113      -0.21590349      -0.14785003       2.16631377       0.81259627       0.33460633
Pb      10.30774639       6.50143531       2.87112923       0.09722220       0.33355894       0.01795977       1.24516172       1.38739181       0.03115181
Pb       4.10162446       6.61014515       3.33353553      -0.31380473       0.11803126      -0.22108918      -0.81978214      -0.59183278       0.71527662
Pb      10.07423981       0.34160550       2.65436819      -0.02464217      -0.45813224       0.10218523      -2.54227656      -2.65260739       0.05646452
I        3.53132464       3.17286088       9.75162198      -0.25044437      -0.08236310       0.15708853      -0.28550055      -0.91893391      -0.50854163
I        9.66727037       9.52023784       9.85093232      -0.12541099       0.20847082       0.08191289       0.16069884      -0.64906892       3.81078502
I       17.05736876       9.38217264       9.04015355       0.00203272       0.20580391      -0.08578359      -0.21703533       1.39350439       0.14368118
I       10.52671335       3.29787960       8.97397111       0.09536494      -0.26978020      -0.10654847      -1.65315996       1.11763302       0.39736343
I       13.30628739       6.92497041      10.07528745       0.03404386      -0.11456069      -0.11719226       1.74748909      -2.26256874       0.29875811
I        6.92765948      13.21060966       9.98293964       0.12430614       0.01317647       0.00501233       0.86570594      -1.69240882       1.98610020
I        6.95432845       5.63066005       8.92578617       0.02219582       0.09202171      -0.01194338       0.68877900       0.12595818      -0.01253617
I       13.25897878      24.88795886       9.24305122       0.26534444      -0.07422971      -0.12595441      -0.14217894      -0.01021047      -0.56361614
I       17.01141392       9.65671783       3.62521005       0.04124804       0.10642522       0.04742751      -0.25573394       0.14226264       1.23616911
I       10.68129420       3.19881544       3.54816735       0.07729823       0.11948894       0.06202128       3.44504717       1.14602549      -0.16559039
I        3.51306755       3.27176607      15.45677153      -0.09602771      -0.05954582      -0.10817195      -1.74971400      -0.33164872       1.79645221
I        9.52920336       9.40208549      15.31000474       0.18814791       0.18213238      -0.01838667       1.52419381       0.76207558       1.63686707
I        7.30319023       5.92703937      16.46573836      -0.30756830      -0.10409854       0.03119400       1.43085423      -0.07619789       2.63266745
I       13.51049497      25.05051325      16.43782726      -0.01485050      -0.07410707      -0.01944981       1.12555501      -0.97627372       0.85492149
I       13.42403654       7.06801295       2.36984552       0.13891116      -0.00774258       0.06122187       1.18808532      -0.60630950      -1.58851858
I        7.01844690      13.26983695       2.52573963      -0.04805515       0.18002241      -0.02097437       0.41647863      -1.27388955      -0.46053830
I        3.54364526      12.27103988      12.61813245      -0.05617101       0.09197031       0.19661745       1.43929294      -2.28091124      -0.77786281
I        9.66662557       5.80633884      12.73812637       0.01271348      -0.00001657      -0.36840751      -1.44052450      -0.94161694       0.62458032
I       17.02622133       0.76684884       6.12962161      -0.03499484      -0.09688299      -0.10537014      -1.23913051       2.41900922       0.96004837
I       10.76503379       7.23787577       6.31968277      -0.00175464      -0.16433395      -0.01277450      -1.85214300      -0.90974478       1.35966669
I        3.15602432       6.03520108       6.22270553      -0.00591295      -0.02396463       0.29919767      -1.88104219       1.80579005       1.05343593
I        9.81263205      12.16884962       6.03239601      -0.03683961       0.06607735       0.35723727       0.51749024      -0.57328640      -1.01475218
I       16.93853133       6.83347094      12.58436133       0.05959880       0.00723039      -0.11922493       0.65904808      -0.87099626      -0.90860064
I       10.77510334       0.49275153      12.39160970      -0.02490237       0.01827287      -0.26133478       0.74343534       0.55505423       0.72254796
Cs      14.04535388       9.27513056      18.80828928      -0.04197864       0.03615468       0.03233004       0.15979880      -0.04815777       4.75255058
Cs       7.83337220       2.75365697      18.89211810      -0.06817172      -0.01238509      -0.02477409       0.26446382      -0.43542740      -0.24372769
Cs       6.29840464       3.54752382      25.25676377       0.15565787      -0.17854292       0.00212952      -1.70932666      -0.46014550      -1.31054610
Cs      13.08726559       9.87706936      25.10731644      -0.01397531      -0.12916004       0.12100889      -0.54197375      -1.53322666      -0.75908527
Cs      13.18905963       3.66461264      25.29573624       0.10686752      -0.02111765      -0.03896113      -0.58834192      -1.47091253      -2.59952271
Cs       6.78308299      10.07669982      25.43458920       0.09014590      -0.13237943      -0.02231279       0.24159332      -0.67673806      -0.65364821
Cs       7.39556067       8.74975654      19.20694335      -0.02935547       0.12506027      -0.11466173      -1.26772435       2.09618430      -0.48724902
Cs      13.60114684       2.42223719      19.12957992      -0.01268014       0.08692543      -0.05416986      -0.33948751      -1.12821099      -0.47804086
Pb       4.07967647      -0.25002650      22.03396390      -0.01030716       0.06646581       0.08386944       2.18377830       4.39647873       2.37836329
Pb      10.20804658       6.29358154      21.87143484       0.17464428      -0.04052974       0.35064774      -2.27261713       0.19737706      -0.30128474
Pb       3.89257683       6.10417931      22.23122553      -0.10041520       0.14235997      -0.00657682      -0.42829233       3.27676420      -1.92284813
Pb      10.31580044      -0.21468935      21.73780388      -0.21770144       0.06012732       0.10285095       0.99685562       2.67987035       0.02714160
Pb       3.75793333       0.21969983      15.82187388       0.15022113      -0.21590349      -0.14785003       2.16631377       0.81259627       0.33460633
Pb      10.39233645       6.35252594      15.57358237       0.09722220       0.33355894       0.01795977       1.24516172       1.38739181       0.03115181
Pb       4.18621452       6.46123578      16.03598867      -0.31380473       0.11803126      -0.22108918      -0.81978214      -0.59183278       0.71527662
Pb      10.15882987       0.19269613      15.35682133      -0.02464217      -0.45813224       0.10218523      -2.54227656      -2.65260739       0.05646452
I        3.61591470       3.02395151      22.45407512      -0.25044437      -0.08236310       0.15708853      -0.28550055      -0.91893391      -0.50854163
I        9.75186043       9.37132847      22.55338546      -0.12541099       0.20847082       0.08191289       0.16069884      -0.64906892       3.81078502
I       17.14195882       9.23326327      21.74260669       0.00203272       0.20580391      -0.08578359      -0.21703533       1.39350439       0.14368118
I       10.61130341       3.14897023      21.67642425       0.09536494      -0.26978020      -0.10654847      -1.65315996       1.11763302       0.39736343
I       13.39087745       6.77606104      22.77774059       0.03404386      -0.11456069      -0.11719226       1.74748909      -2.26256874       0.29875811
I        7.01224954      13.06170029      22.68539278       0.12430614       0.01317647       0.00501233       0.86570594      -1.69240882       1.98610020
I        7.03891851       5.48175068      21.62823931       0.02219582       0.09202171      -0.01194338       0.68877900       0.12595818      -0.01253617
I       13.34356884      24.73904949      21.94550435       0.26534444      -0.07422971      -0.12595441      -0.14217894      -0.01021047      -0.56361614
I       17.09600398       9.50780846      16.32766319       0.04124804       0.10642522       0.04742751      -0.25573394       0.14226264       1.23616911
I       10.76588426       3.04990607      16.25062049       0.07729823       0.11948894       0.06202128       3.44504717       1.14602549      -0.16559039
I        3.42847749       3.42067544       2.75431839      -0.09602771      -0.05954582      -0.10817195      -1.74971400      -0.33164872       1.79645221
I        9.44461330       9.55099486       2.60755160       0.18814791       0.18213238      -0.01838667       1.52419381       0.76207558       1.63686707
I        7.21860017       6.07594874       3.76328522      -0.30756830      -0.10409854       0.03119400       1.43085423      -0.07619789       2.63266745
I       13.42590492      25.19942262       3.73537412      -0.01485050      -0.07410707      -0.01944981       1.12555501      -0.97627372       0.85492149
I       13.50862660       6.91910358      15.07229866       0.13891116      -0.00774258       0.06122187       1.18808532      -0.60630950      -1.58851858
I        7.10303696      13.12092758      15.22819277      -0.04805515       0.18002241      -0.02097437       0.41647863      -1.27388955      -0.46053830
I        3.62823532      12.12213051      25.32058559      -0.05617101       0.09197031       0.19661745       1.43929294      -2.28091124      -0.77786281
I        9.58203551       5.95524821       0.03567323       0.01271348      -0.00001657      -0.36840751      -1.44052450      -0.94161694       0.62458032
I       17.11081139       0.61793947      18.83207475      -0.03499484      -0.09688299      -0.10537014      -1.23913051       2.41900922       0.96004837
I       10.84962385       7.08896640      19.02213591      -0.00175464      -0.16433395      -0.01277450      -1.85214300      -0.90974478       1.35966669
I        3.24061438       5.88629171      18.92515867      -0.00591295      -0.02396463       0.29919767      -1.88104219       1.80579005       1.05343593
I        9.89722211      12.01994025      18.73484915      -0.03683961       0.06607735       0.35723727       0.51749024      -0.57328640      -1.01475218
I       17.02312139       6.68456157      25.28681447       0.05959880       0.00723039      -0.11922493       0.65904808      -0.87099626      -0.90860064
I       10.85969340       0.34384216      25.09406284      -0.02490237       0.01827287      -0.26133478       0.74343534       0.55505423       0.72254796
Cs      13.99954276      22.11223321       6.24378783      -0.04197864       0.03615468       0.03233004       0.15979880      -0.04815777       4.75255058
Cs       7.78756108      15.59075962       6.32761665      -0.06817172      -0.01238509      -0.02477409       0.26446382      -0.43542740      -0.24372769
Cs       6.25259352      16.38462647      12.69226232       0.15565787      -0.17854292       0.00212952      -1.70932666      -0.46014550      -1.31054610
Cs      13.04145447      22.71417201      12.54281499      -0.01397531      -0.12916004       0.12100889      -0.54197375      -1.53322666      -0.75908527
Cs      13.14324851      16.50171529      12.73123479       0.10686752      -0.02111765      -0.03896113      -0.58834192      -1.47091253      -2.59952271
Cs       6.73727187      22.91380247      12.87008775       0.09014590      -0.13237943      -0.02231279       0.24159332      -0.67673806      -0.65364821
Cs       7.34974955      21.58685919       6.64244190      -0.02935547       0.12506027      -0.11466173      -1.26772435       2.09618430      -0.48724902
Cs      13.55533572      15.25933984       6.56507847      -0.01268014       0.08692543      -0.05416986      -0.33948751      -1.12821099      -0.47804086
Pb       4.03386535      12.58707615       9.46946245      -0.01030716       0.06646581       0.08386944       2.18377830       4.39647873       2.37836329
Pb      10.16223546      19.13068419       9.30693339       0.17464428      -0.04052974       0.35064774      -2.27261713       0.19737706      -0.30128474
Pb       3.84676571      18.94128196       9.66672408      -0.10041520       0.14235997      -0.00657682      -0.42829233       3.27676420      -1.92284813
Pb      10.26998932      12.62241330       9.17330243      -0.21770144       0.06012732       0.10285095       0.99685562       2.67987035       0.02714160
Pb       3.71212221      13.05680248       3.25737243       0.15022113      -0.21590349      -0.14785003       2.16631377       0.81259627       0.33460633
Pb      10.34652533      19.18962859       3.00908092       0.09722220       0.33355894       0.01795977       1.24516172       1.38739181       0.03115181
Pb       4.14040340      19.29833843       3.47148722      -0.31380473       0.11803126      -0.22108918      -0.81978214      -0.59183278       0.71527662
Pb      10.11301875      13.02979878       2.79231988      -0.02464217      -0.45813224       0.10218523      -2.54227656      -2.65260739       0.05646452
I        3.57010358      15.86105416       9.88957367      -0.25044437      -0.08236310       0.15708853      -0.28550055      -0.91893391      -0.50854163
I        9.70604931      22.20843112       9.98888401      -0.12541099       0.20847082       0.08191289       0.16069884      -0.64906892       3.81078502
I       17.09614770      22.07036592       9.17810524       0.00203272       0.20580391      -0.08578359      -0.21703533       1.39350439       0.14368118
I       10.56549229      15.98607288       9.11192280       0.09536494      -0.26978020      -0.10654847      -1.65315996       1.11763302       0.39736343
I       13.34506633      19.61316369      10.21323914       0.03404386      -0.11456069      -0.11719226       1.74748909      -2.26256874       0.29875811
I        6.88888054       0.52241638       9.84498795       0.12430614       0.01317647       0.00501233       0.86570594      -1.69240882       1.98610020
I        6.99310739      18.31885333       9.06373786       0.02219582       0.09202171      -0.01194338       0.68877900       0.12595818      -0.01253617
I       13.22019984      12.19976557       9.10509952       0.26534444      -0.07422971      -0.12595441      -0.14217894      -0.01021047      -0.56361614
I       17.05019286      22.34491111       3.76316174       0.04124804       0.10642522       0.04742751      -0.25573394       0.14226264       1.23616911
I       10.72007314      15.88700872       3.68611904       0.07729823       0.11948894       0.06202128       3.44504717       1.14602549      -0.16559039
I        3.55184649      15.95995935      15.59472322      -0.09602771      -0.05954582      -0.10817195      -1.74971400      -0.33164872       1.79645221
I        9.56798230      22.09027877      15.44795643       0.18814791       0.18213238      -0.01838667       1.52419381       0.76207558       1.63686707
I        7.34196917      18.61523265      16.60369005      -0.30756830      -0.10409854       0.03119400       1.43085423      -0.07619789       2.63266745
I       13.47171603      12.36231996      16.29987556      -0.01485050      -0.07410707      -0.01944981       1.12555501      -0.97627372       0.85492149
I       13.46281548      19.75620623       2.50779721       0.13891116      -0.00774258       0.06122187       1.18808532      -0.60630950      -1.58851858
I        6.97966796       0.58164367       2.38778794      -0.04805515       0.18002241      -0.02097437       0.41647863      -1.27388955      -0.46053830
I        3.58242420      24.95923316      12.75608414      -0.05617101       0.09197031       0.19661745       1.43929294      -2.28091124      -0.77786281
I        9.70540451      18.49453212      12.87607806       0.01271348      -0.00001657      -0.36840751      -1.44052450      -0.94161694       0.62458032
I       17.06500027      13.45504212       6.26757330      -0.03499484      -0.09688299      -0.10537014      -1.23913051       2.41900922       0.96004837
I       10.80381273      19.92606905       6.45763446      -0.00175464      -0.16433395      -0.01277450      -1.85214300      -0.90974478       1.35966669
I        3.19480326      18.72339436       6.36065722      -0.00591295      -0.02396463       0.29919767      -1.88104219       1.80579005       1.05343593
I        9.85141099      24.85704290       6.17034770      -0.03683961       0.06607735       0.35723727       0.51749024      -0.57328640      -1.01475218
I       16.97731027      19.52166422      12.72231302       0.05959880       0.00723039      -0.11922493       0.65904808      -0.87099626      -0.90860064
I       10.81388228      13.18094481      12.52956139      -0.02490237       0.01827287      -0.26133478       0.74343534       0.55505423       0.72254796
Cs      14.08413282      21.96332384      18.94624097      -0.04197864       0.03615468       0.03233004       0.15979880      -0.04815777       4.75255058
Cs       7.87215114      15.44185025      19.03006979      -0.06817172      -0.01238509      -0.02477409       0.26446382      -0.43542740      -0.24372769
Cs       6.33718358      16.23571710      25.39471546       0.15565787      -0.17854292       0.00212952      -1.70932666      -0.46014550      -1.31054610
Cs      13.12604453      22.56526264      25.24526813      -0.01397531      -0.12916004       0.12100889      -0.54197375      -1.53322666      -0.75908527
Cs      13.22783857      16.35280592      25.43368793       0.10686752      -0.02111765      -0.03896113      -0.58834192      -1.47091253      -2.59952271
Cs       6.82186193      22.76489310      25.57254089       0.09014590      -0.13237943      -0.02231279       0.24159332      -0.67673806      -0.65364821
Cs       7.43433961      21.43794982      19.34489504      -0.02935547       0.12506027      -0.11466173      -1.26772435       2.09618430      -0.48724902
Cs      13.63992578      15.11043047      19.26753161      -0.01268014       0.08692543      -0.05416986      -0.33948751      -1.12821099      -0.47804086
Pb       4.11845541      12.43816678      22.17191559      -0.01030716       0.06646581       0.08386944       2.18377830       4.39647873       2.37836329
Pb      10.24682552      18.98177482      22.00938653       0.17464428      -0.04052974       0.35064774      -2.27261713       0.19737706      -0.30128474
Pb       3.93135577      18.79237259      22.36917722      -0.10041520       0.14235997      -0.00657682      -0.42829233       3.27676420      -1.92284813
Pb      10.35457938      12.47350393      21.87575557      -0.21770144       0.06012732       0.10285095       0.99685562       2.67987035       0.02714160
Pb       3.79671227      12.90789311      15.95982557       0.15022113      -0.21590349      -0.14785003       2.16631377       0.81259627       0.33460633
Pb      10.43111539      19.04071922      15.71153406       0.09722220       0.33355894       0.01795977       1.24516172       1.38739181       0.03115181
Pb       4.22499346      19.14942906      16.17394036      -0.31380473       0.11803126      -0.22108918      -0.81978214      -0.59183278       0.71527662
Pb      10.19760881      12.88088941      15.49477302      -0.02464217      -0.45813224       0.10218523      -2.54227656      -2.65260739       0.05646452
I        3.65469364      15.71214479      22.59202681      -0.25044437      -0.08236310       0.15708853      -0.28550055      -0.91893391      -0.50854163
I        9.79063937      22.05952175      22.69133715      -0.12541099       0.20847082       0.08191289       0.16069884      -0.64906892       3.81078502
I       17.18073776      21.92145655      21.88055838       0.00203272       0.20580391      -0.08578359      -0.21703533       1.39350439       0.14368118
I       10.65008235      15.83716351      21.81437594       0.09536494      -0.26978020      -0.10654847      -1.65315996       1.11763302       0.39736343
I       13.42965639      19.46425432      22.91569228       0.03404386      -0.11456069      -0.11719226       1.74748909      -2.26256874       0.29875811
I        6.97347059       0.37350700      22.54744108       0.12430614       0.01317647       0.00501233       0.86570594      -1.69240882       1.98610020
I        7.07769745      18.16994396      21.76619100       0.02219582       0.09202171      -0.01194338       0.68877900       0.12595818      -0.01253617
I       13.30478990      12.05085620      21.80755266       0.26534444      -0.07422971      -0.12595441      -0.14217894      -0.01021047      -0.56361614
I       17.13478292      22.19600174      16.46561488       0.04124804       0.10642522       0.04742751      -0.25573394       0.14226264       1.23616911
I       10.80466320      15.73809935      16.38857218       0.07729823       0.11948894       0.06202128       3.44504717       1.14602549      -0.16559039
I        3.46725644      16.10886873       2.89227009      -0.09602771      -0.05954582      -0.10817195      -1.74971400      -0.33164872       1.79645221
I        9.48339225      22.23918815       2.74550330       0.18814791       0.18213238      -0.01838667       1.52419381       0.76207558       1.63686707
I        7.25737912      18.76414203       3.90123692      -0.30756830      -0.10409854       0.03119400       1.43085423      -0.07619789       2.63266745
I       13.38712598      12.51122934       3.59742243      -0.01485050      -0.07410707      -0.01944981       1.12555501      -0.97627372       0.85492149
I       13.54740554      19.60729686      15.21025035       0.13891116      -0.00774258       0.06122187       1.18808532      -0.60630950      -1.58851858
I        7.06425801       0.43273429      15.09024107      -0.04805515       0.18002241      -0.02097437       0.41647863      -1.27388955      -0.46053830
I        3.66701426      24.81032379      25.45853728      -0.05617101       0.09197031       0.19661745       1.43929294      -2.28091124      -0.77786281
I        9.62081446      18.64344150       0.17362493       0.01271348      -0.00001657      -0.36840751      -1.44052450      -0.94161694       0.62458032
I       17.14959033      13.30613275      18.97002644      -0.03499484      -0.09688299      -0.10537014      -1.23913051       2.41900922       0.96004837
I       10.88840279      19.77715968      19.16008760      -0.00175464      -0.16433395      -0.01277450      -1.85214300      -0.90974478       1.35966669
I        3.27939332      18.57448499      19.06311036      -0.00591295      -0.02396463       0.29919767      -1.88104219       1.80579005       1.05343593
I        9.93600105      24.70813353      18.87280084      -0.03683961       0.06607735       0.35723727       0.51749024      -0.57328640      -1.01475218
I       17.06190033      19.37275485      25.42476616       0.05959880       0.00723039      -0.11922493       0.65904808      -0.87099626      -0.90860064
I       10.89847234      13.03203544      25.23201453      -0.02490237       0.01827287      -0.26133478       0.74343534       0.55505423       0.72254796
Cs       1.28271713       9.47731443       6.20177453      -0.04197864       0.03615468       0.03233004       0.15979880      -0.04815777       4.75255058
Cs      20.42682883       2.84929184       6.09372657      -0.06817172      -0.01238509      -0.02477409       0.26446382      -0.43542740      -0.24372769
Cs      18.89186127       3.64315869      12.45837224       0.15565787      -0.17854292       0.00212952      -1.70932666      -0.46014550      -1.31054610
Cs       0.32462884      10.07925323      12.50080169      -0.01397531      -0.12916004       0.12100889      -0.54197375      -1.53322666      -0.75908527
Cs       0.42642288       3.86679651      12.68922149       0.10686752      -0.02111765      -0.03896113      -0.58834192      -1.47091253      -2.59952271
Cs      19.37653962      10.17233469      12.63619767       0.09014590      -0.13237943      -0.02231279       0.24159332      -0.67673806      -0.65364821
Cs      19.98901730       8.84539141       6.40855182      -0.02935547       0.12506027      -0.11466173      -1.26772435       2.09618430      -0.48724902
Cs       0.83851009       2.62442106       6.52306517      -0.01268014       0.08692543      -0.05416986      -0.33948751      -1.12821099      -0.47804086
Pb      16.67313310      -0.15439163       9.23557237      -0.01030716       0.06646581       0.08386944       2.18377830       4.39647873       2.37836329
Pb      22.80150321       6.38921641       9.07304331       0.17464428      -0.04052974       0.35064774      -2.27261713       0.19737706      -0.30128474
Pb      16.48603346       6.19981418       9.43283400      -0.10041520       0.14235997      -0.00657682      -0.42829233       3.27676420      -1.92284813
Pb      22.90925707      -0.11905448       8.93941235      -0.21770144       0.06012732       0.10285095       0.99685562       2.67987035       0.02714160
Pb      16.35138996       0.31533470       3.02348235       0.15022113      -0.21590349      -0.14785003       2.16631377       0.81259627       0.33460633
Pb      22.98579308       6.44816081       2.77519084       0.09722220       0.33355894       0.01795977       1.24516172       1.38739181       0.03115181
Pb      16.77967115       6.55687065       3.23759714      -0.31380473       0.11803126      -0.22108918      -0.81978214      -0.59183278       0.71527662
Pb      22.75228650       0.28833100       2.55842980      -0.02464217      -0.45813224       0.10218523      -2.54227656      -2.65260739       0.05646452
I       16.20937133       3.11958638       9.65568359      -0.25044437      -0.08236310       0.15708853      -0.28550055      -0.91893391      -0.50854163
I       22.34531706       9.46696334       9.75499393      -0.12541099       0.20847082       0.08191289       0.16069884      -0.64906892       3.81078502
I        4.37932207       9.43544714       9.13609194       0.00203272       0.20580391      -0.08578359      -0.21703533       1.39350439       0.14368118
I       23.20476004       3.24460510       8.87803272       0.09536494      -0.26978020      -0.10654847      -1.65315996       1.11763302       0.39736343
I        0.62824070       6.97824491      10.17122584       0.03404386      -0.11456069      -0.11719226       1.74748909      -2.26256874       0.29875811
I       19.60570617      13.15733516       9.88700125       0.12430614       0.01317647       0.00501233       0.86570594      -1.69240882       1.98610020
I       19.63237514       5.57738555       8.82984778       0.02219582       0.09202171      -0.01194338       0.68877900       0.12595818      -0.01253617
I        0.58093210      24.94123336       9.33898961       0.26534444      -0.07422971      -0.12595441      -0.14217894      -0.01021047      -0.56361614
I        4.33336723       9.70999233       3.72114844       0.04124804       0.10642522       0.04742751      -0.25573394       0.14226264       1.23616911
I       23.35934089       3.14554094       3.45222896       0.07729823       0.11948894       0.06202128       3.44504717       1.14602549      -0.16559039
I       16.19111424       3.21849157      15.36083314      -0.09602771      -0.05954582      -0.10817195      -1.74971400      -0.33164872       1.79645221
I       22.20725005       9.34881099      15.21406635       0.18814791       0.18213238      -0.01838667       1.52419381       0.76207558       1.63686707
I       19.98123692       5.87376487      16.36979997      -0.30756830      -0.10409854       0.03119400       1.43085423      -0.07619789       2.63266745
I        0.83244829      25.10378775      16.53376565      -0.01485050      -0.07410707      -0.01944981       1.12555501      -0.97627372       0.85492149