320
Lattice="31.705123562890115 0.00098397742904671 0.8597404125717283 0.019921660697184568 29.971723771014627 -2.6265873698904523 -0.4087198441794399 1.5773423540450537 17.106165182112967" Properties=species:S:1:pos:R:3:forces:R:3:momenta:R:3 pbc="T T T"
Cs       1.48393535       2.45972501       4.50608935       0.00307076       0.00522595       0.03109694      -0.39228728      -0.15138282       1.58430669
Cs       4.59277143       4.29959040       8.52079824       0.03508143       0.07561016       0.04644637      -0.56046115       0.74827862      -1.17392250
Cs       1.53818258       8.74360951      -0.27664696      -0.04684377      -0.00332348      -0.02721453      -0.02333857       0.59527091      -0.72560874
Cs       4.64298466      12.06405325       4.30604446       0.15345889       0.11937835      -0.13452536       1.06162549       1.71424715      -2.02202870
Cs       9.21813329       2.38360665       5.19976677      -0.06328274      -0.01914242      -0.05585062       0.35192191      -2.05002663       1.67568952
Cs      12.79566030       4.79537342       8.93656266       0.00764752       0.03721570       0.05816502      -0.93577805      -1.51729887       1.65841863
Cs       9.35648158       9.23316263      -0.01890324      -0.03398647      -0.08368262      -0.05799348       0.91749672      -1.83758760       2.12717150
Cs      12.63033324      12.70397218       4.24247188       0.02121008      -0.11724102       0.00012704      -0.04077944       0.04676265       0.61314379
Pb       2.67677952      14.89220081       8.03897104       0.28120277      -0.07438924       0.04984344      -0.72430998      -1.78109213       0.97701153
Pb       6.78860393      14.85699346       8.15123289      -0.51946238      -0.01936691       0.17169231       3.23575168      -0.55240027       0.03200438
Pb       3.53225391       7.08272445       3.89281953       0.06276587      -0.00518555       0.27663029       1.77364364      -0.47046839      -0.43386166
Pb      31.29071698       7.19311345       4.91912641      -0.32692167      -0.02615902       0.19045197      -0.25825488      -3.74336003      -1.55621098
Pb      10.57295097      15.10292245       8.35033248       0.08333286      -0.03790340       0.17665909      -2.56245220      -1.81753737      -0.74420520
Pb      14.67818097      15.05542255       8.34111757      -0.27368194       0.01267467       0.26865724      -1.92959702       0.40924815       0.72778556
Pb      11.37024614       7.00053502       4.48752670       0.00722456       0.15916290      -0.10663633       1.76292899       1.90482756      -2.42158280
Pb       7.35663631       7.11395870       4.13901396       0.39937786      -0.06667481       0.17062595      -0.15678312      -0.96248838      -2.84371990
I        4.68509042       0.93179405       2.68830154       0.05119473      -0.04142270      -0.02890664      -0.64552414       0.90598651       1.98237465
I        1.28305696       5.76489812       1.85639251       0.29334873      -0.20862589      -0.08463216       2.85714533      -0.82635071      -1.10261882
I        4.79649475      30.48585559       4.23708137      -0.12824502       0.15103897       0.14145469       1.97832986      -1.74802298       1.40697719
I        1.87334324       5.92320517       6.43528380      -0.16543037       0.09777337      -0.28295079      -0.04609415       1.31183762      -1.84930712
I        5.43212828       4.59031691       4.76458142       0.07003377      -0.14820672      -0.03489327       3.27907296       1.51882498      -1.26571892
I        0.81005585       2.47679395       8.44665547      -0.12527025       0.09294102       0.10264207       0.59560683       0.04519621      -1.31267587
I        5.45693010       9.01495775       5.87380604      -0.06154035      -0.16263549      -0.14913981      -1.39670456       1.44714406      -1.49274569
I        0.70879166      13.14036036       6.24600291      -0.24734385      -0.11159374      -0.13179576       0.38379895       1.49571252      -1.76507066
I        5.68295463       7.30517947       1.40061171       0.01047770       0.13057215      -0.03767760       0.51174211       0.83776289      -0.95770996
I        0.77413589      13.55767000       1.98564015      -0.03446733       0.10685252      -0.10528785       0.89914718      -0.60709659      -1.06131692
I        4.52631732      12.30580845       8.66233381       0.02891401       0.17166370       0.01024068       0.20996177       0.00893761      -3.34560151
I        1.63200926       9.65852964       3.74602681       0.01445387       0.16399377      -0.06158951      -0.33907244      -0.73160599       0.53934000
I       12.52005661       0.99288332       3.17930906       0.24345353      -0.18701019      -0.28910334      -0.58997484      -1.66342588      -1.31079776
I        9.60177043       5.19669069       2.48629810      -0.05988681       0.12962872       0.06938293      -0.41162005      -2.11745462       1.03011653
I       12.58156208       1.15586088       7.32603093      -0.04121403      -0.00295870       0.09176664       0.37077853       0.18128178      -0.10401137
I        9.30895625       6.18728385       6.83411536      -0.00356725       0.05507160      -0.22688679       0.47424300      -1.55707377       1.00194972
I       13.56015786       4.60342477       5.05566804       0.01616379       0.00830087      -0.00374061      -0.59516214       0.39050783      -1.22844390
I        8.42742336       2.54383834       9.11382722       0.00134929       0.07279015      -0.06810647       0.87131340       1.21272254      -0.21498041
I       13.28363941       8.93109233       6.16252540       0.10632048       0.16765852       0.35032400      -0.84885388       0.73997197      -0.52327548
I        8.64123743      13.26132349       6.32622313       0.11424155      -0.07419312      -0.08531121       1.62414828       0.76122973       1.49747614
I       13.58447853       7.86356288       2.08004943      -0.03427144      -0.08622847      -0.03797403       0.59709962      -2.32298365       0.27004400
I        8.65585105      13.46877369       2.21418332       0.07477705       0.00806407      -0.06165702      -0.72203234       0.22364070       0.05541536
I       12.46079435      12.60578216       8.94502654       0.06329942       0.02000311      -0.10737064      -1.74015065      -0.25262090       1.08195352
I        9.49774709       9.69910975       3.96986387       0.02301510      -0.30967674      -0.02696286      -1.78410064      -0.62388794      -0.96740958
Cs       1.27957543       3.24839619      13.05917194       0.00307076       0.00522595       0.03109694      -0.39228728      -0.15138282       1.58430669
Cs       4.79713135       3.51091922      -0.03228435       0.03508143       0.07561016       0.04644637      -0.56046115       0.74827862      -1.17392250
Cs       1.33382266       9.53228069       8.27643563      -0.04684377      -0.00332348      -0.02721453      -0.02333857       0.59527091      -0.72560874
Cs       4.43862474      12.85272443      12.85912705       0.15345889       0.11937835      -0.13452536       1.06162549       1.71424715      -2.02202870
Cs       9.01377337       3.17227783      13.75284936      -0.06328274      -0.01914242      -0.05585062       0.35192191      -2.05002663       1.67568952
Cs      13.00002022       4.00670224       0.38348007       0.00764752       0.03721570       0.05816502      -0.93577805      -1.51729887       1.65841863
Cs       9.15212166      10.02183381       8.53417935      -0.03398647      -0.08368262      -0.05799348       0.91749672      -1.83758760       2.12717150
Cs      12.42597332      13.49264336      12.79555447       0.02121008      -0.11724102       0.00012704      -0.04077944       0.04676265       0.61314379
Pb       2.88113944      14.10352963      -0.51411155       0.28120277      -0.07438924       0.04984344      -0.72430998      -1.78109213       0.97701153
Pb       6.99296385      14.06832228      -0.40184970      -0.51946238      -0.01936691       0.17169231       3.23575168      -0.55240027       0.03200438
Pb       3.32789399       7.87139563      12.44590212       0.06276587      -0.00518555       0.27663029       1.77364364      -0.47046839      -0.43386166
Pb      31.08635706       7.98178462      13.47220900      -0.32692167      -0.02615902       0.19045197      -0.25825488      -3.74336003      -1.55621098
Pb      10.77731089      14.31425127      -0.20275011       0.08333286      -0.03790340       0.17665909      -2.56245220      -1.81753737      -0.74420520
Pb      14.88254089      14.26675137      -0.21196502      -0.27368194       0.01267467       0.26865724      -1.92959702       0.40924815       0.72778556
Pb      11.16588622       7.78920620      13.04060929       0.00722456       0.15916290      -0.10663633       1.76292899       1.90482756      -2.42158280
Pb       7.15227639       7.90262988      12.69209655       0.39937786      -0.06667481       0.17062595      -0.15678312      -0.96248838      -2.84371990
I        4.48073050       1.72046523      11.24138413       0.05119473      -0.04142270      -0.02890664      -0.64552414       0.90598651       1.98237465
I        1.07869704       6.55356930      10.40947510       0.29334873      -0.20862589      -0.08463216       2.85714533      -0.82635071      -1.10261882
I        4.59213483      31.27452677      12.79016396      -0.12824502       0.15103897       0.14145469       1.97832986      -1.74802298       1.40697719
I        1.66898332       6.71187635      14.98836639      -0.16543037       0.09777337      -0.28295079      -0.04609415       1.31183762      -1.84930712
I        5.22776836       5.37898809      13.31766401       0.07003377      -0.14820672      -0.03489327       3.27907296       1.51882498      -1.26571892
I        1.01441577       1.68812277      -0.10642712      -0.12527025       0.09294102       0.10264207       0.59560683       0.04519621      -1.31267587
I        5.25257018       9.80362893      14.42688863      -0.06154035      -0.16263549      -0.14913981      -1.39670456       1.44714406      -1.49274569
I        0.50443174      13.92903154      14.79908550      -0.24734385      -0.11159374      -0.13179576       0.38379895       1.49571252      -1.76507066
I        5.47859471       8.09385065       9.95369430       0.01047770       0.13057215      -0.03767760       0.51174211       0.83776289      -0.95770996
I        0.56977597      14.34634118      10.53872274      -0.03446733       0.10685252      -0.10528785       0.89914718      -0.60709659      -1.06131692
I        4.73067724      11.51713727       0.10925122       0.02891401       0.17166370       0.01024068       0.20996177       0.00893761      -3.34560151
I        1.42764934      10.44720082      12.29910940       0.01445387       0.16399377      -0.06158951      -0.33907244      -0.73160599       0.53934000
I       12.31569669       1.78155450      11.73239165       0.24345353      -0.18701019      -0.28910334      -0.58997484      -1.66342588      -1.31079776
I        9.39741051       5.98536187      11.03938069      -0.05988681       0.12962872       0.06938293      -0.41162005      -2.11745462       1.03011653
I       12.37720216       1.94453206      15.87911352      -0.04121403      -0.00295870       0.09176664       0.37077853       0.18128178      -0.10401137
I        9.10459633       6.97595503      15.38719795      -0.00356725       0.05507160      -0.22688679       0.47424300      -1.55707377       1.00194972
I       13.35579794       5.39209595      13.60875063       0.01616379       0.00830087      -0.00374061      -0.59516214       0.39050783      -1.22844390
I        8.63178328       1.75516716       0.56074463       0.00134929       0.07279015      -0.06810647       0.87131340       1.21272254      -0.21498041
I       13.07927949       9.71976351      14.71560799       0.10632048       0.16765852       0.35032400      -0.84885388       0.73997197      -0.52327548
I        8.43687751      14.04999467      14.87930572       0.11424155      -0.07419312      -0.08531121       1.62414828       0.76122973       1.49747614
I       13.38011861       8.65223406      10.63313202      -0.03427144      -0.08622847      -0.03797403       0.59709962      -2.32298365       0.27004400
I        8.45149113      14.25744487      10.76726591       0.07477705       0.00806407      -0.06165702      -0.72203234       0.22364070       0.05541536
I       12.66515427      11.81711098       0.39194395       0.06329942       0.02000311      -0.10737064      -1.74015065      -0.25262090       1.08195352
I        9.29338717      10.48778093      12.52294646       0.02301510      -0.30967674      -0.02696286      -1.78410064      -0.62388794      -0.96740958
Cs       1.49389618      17.44558690       3.19279567       0.00307076       0.00522595       0.03109694      -0.39228728      -0.15138282       1.58430669
Cs       4.60273226      19.28545229       7.20750456       0.03508143       0.07561016       0.04644637      -0.56046115       0.74827862      -1.17392250
Cs       1.54814341      23.72947140      -1.58994064      -0.04684377      -0.00332348      -0.02721453      -0.02333857       0.59527091      -0.72560874
Cs       4.65294549      27.04991514       2.99275078       0.15345889       0.11937835      -0.13452536       1.06162549       1.71424715      -2.02202870
Cs       9.22809412      17.36946854       3.88647309      -0.06328274      -0.01914242      -0.05585062       0.35192191      -2.05002663       1.67568952
Cs      12.80562113      19.78123531       7.62326898       0.00764752       0.03721570       0.05816502      -0.93577805      -1.51729887       1.65841863
Cs       9.36644241      24.21902452      -1.33219692      -0.03398647      -0.08368262      -0.05799348       0.91749672      -1.83758760       2.12717150
Cs      12.64029407      27.68983407       2.92917820       0.02121008      -0.11724102       0.00012704      -0.04077944       0.04676265       0.61314379
Pb       2.68674035      29.87806270       6.72567736       0.28120277      -0.07438924       0.04984344      -0.72430998      -1.78109213       0.97701153
Pb       6.79856476      29.84285535       6.83793921      -0.51946238      -0.01936691       0.17169231       3.23575168      -0.55240027       0.03200438
Pb       3.54221474      22.06858634       2.57952585       0.06276587      -0.00518555       0.27663029       1.77364364      -0.47046839      -0.43386166
Pb      31.30067781      22.17897533       3.60583273      -0.32692167      -0.02615902       0.19045197      -0.25825488      -3.74336003      -1.55621098
Pb      10.58291180      30.08878434       7.03703880       0.08333286      -0.03790340       0.17665909      -2.56245220      -1.81753737      -0.74420520
Pb      14.68814180      30.04128444       7.02782389      -0.27368194       0.01267467       0.26865724      -1.92959702       0.40924815       0.72778556
Pb      11.38020697      21.98639691       3.17423302       0.00722456       0.15916290      -0.10663633       1.76292899       1.90482756      -2.42158280
Pb       7.36659714      22.09982059       2.82572028       0.39937786      -0.06667481       0.17062595      -0.15678312      -0.96248838      -2.84371990
I        4.69505125      15.91765594       1.37500786       0.05119473      -0.04142270      -0.02890664      -0.64552414       0.90598651       1.98237465
I        1.29301779      20.75076001       0.54309883       0.29334873      -0.20862589      -0.08463216       2.85714533      -0.82635071      -1.10261882
I        4.78653392      15.49999371       5.55037506      -0.12824502       0.15103897       0.14145469       1.97832986      -1.74802298       1.40697719
I        1.88330407      20.90906706       5.12199012      -0.16543037       0.09777337      -0.28295079      -0.04609415       1.31183762      -1.84930712
I        5.44208911      19.57617880       3.45128774       0.07003377      -0.14820672      -0.03489327       3.27907296       1.51882498      -1.26571892
I        0.82001668      17.46265584       7.13336179      -0.12527025       0.09294102       0.10264207       0.59560683       0.04519621      -1.31267587
I        5.46689093      24.00081964       4.56051236      -0.06154035      -0.16263549      -0.14913981      -1.39670456       1.44714406      -1.49274569
I        0.71875249      28.12622225       4.93270923      -0.24734385      -0.11159374      -0.13179576       0.38379895       1.49571252      -1.76507066
I        5.69291546      22.29104136       0.08731803       0.01047770       0.13057215      -0.03767760       0.51174211       0.83776289      -0.95770996
I        0.78409672      28.54353189       0.67234647      -0.03446733       0.10685252      -0.10528785       0.89914718      -0.60709659      -1.06131692
I        4.53627815      27.29167034       7.34904013       0.02891401       0.17166370       0.01024068       0.20996177       0.00893761      -3.34560151
I        1.64197009      24.64439153       2.43273313       0.01445387       0.16399377      -0.06158951      -0.33907244      -0.73160599       0.53934000
I       12.53001744      15.97874521       1.86601538       0.24345353      -0.18701019      -0.28910334      -0.58997484      -1.66342588      -1.31079776
I        9.61173126      20.18255258       1.17300442      -0.05988681       0.12962872       0.06938293      -0.41162005      -2.11745462       1.03011653
I       12.59152291      16.14172277       6.01273725      -0.04121403      -0.00295870       0.09176664       0.37077853       0.18128178      -0.10401137
I        9.31891708      21.17314574       5.52082168      -0.00356725       0.05507160      -0.22688679       0.47424300      -1.55707377       1.00194972
I       13.57011869      19.58928666       3.74237436       0.01616379       0.00830087      -0.00374061      -0.59516214       0.39050783      -1.22844390
I        8.43738419      17.52970023       7.80053354       0.00134929       0.07279015      -0.06810647       0.87131340       1.21272254      -0.21498041
I       13.29360024      23.91695422       4.84923172       0.10632048       0.16765852       0.35032400      -0.84885388       0.73997197      -0.52327548
I        8.65119826      28.24718538       5.01292945       0.11424155      -0.07419312      -0.08531121       1.62414828       0.76122973       1.49747614
I       13.59443936      22.84942477       0.76675575      -0.03427144      -0.08622847      -0.03797403       0.59709962      -2.32298365       0.27004400
I        8.66581188      28.45463558       0.90088964       0.07477705       0.00806407      -0.06165702      -0.72203234       0.22364070       0.05541536
I       12.47075518      27.59164405       7.63173286       0.06329942       0.02000311      -0.10737064      -1.74015065      -0.25262090       1.08195352
I        9.50770792      24.68497164       2.65657019       0.02301510      -0.30967674      -0.02696286      -1.78410064      -0.62388794      -0.96740958
Cs       1.28953626      18.23425807      11.74587826       0.00307076       0.00522595       0.03109694      -0.39228728      -0.15138282       1.58430669
Cs       4.80709218      18.49678111      -1.34557804       0.03508143       0.07561016       0.04644637      -0.56046115       0.74827862      -1.17392250
Cs       1.34378349      24.51814257       6.96314195      -0.04684377      -0.00332348      -0.02721453      -0.02333857       0.59527091      -0.72560874
Cs       4.44858557      27.83858631      11.54583337       0.15345889       0.11937835      -0.13452536       1.06162549       1.71424715      -2.02202870
Cs       9.02373420      18.15813971      12.43955568      -0.06328274      -0.01914242      -0.05585062       0.35192191      -2.05002663       1.67568952
Cs      13.00998105      18.99256413      -0.92981362       0.00764752       0.03721570       0.05816502      -0.93577805      -1.51729887       1.65841863
Cs       9.16208249      25.00769569       7.22088567      -0.03398647      -0.08368262      -0.05799348       0.91749672      -1.83758760       2.12717150
Cs      12.43593415      28.47850524      11.48226079       0.02121008      -0.11724102       0.00012704      -0.04077944       0.04676265       0.61314379
Pb       2.89110027      29.08939152      -1.82740524       0.28120277      -0.07438924       0.04984344      -0.72430998      -1.78109213       0.97701153
Pb       7.00292468      29.05418417      -1.71514339      -0.51946238      -0.01936691       0.17169231       3.23575168      -0.55240027       0.03200438
Pb       3.33785482      22.85725751      11.13260844       0.06276587      -0.00518555       0.27663029       1.77364364      -0.47046839      -0.43386166
Pb      31.09631789      22.96764651      12.15891532      -0.32692167      -0.02615902       0.19045197      -0.25825488      -3.74336003      -1.55621098
Pb      10.78727172      29.30011316      -1.51604380       0.08333286      -0.03790340       0.17665909      -2.56245220      -1.81753737      -0.74420520
Pb      14.89250172      29.25261326      -1.52525871      -0.27368194       0.01267467       0.26865724      -1.92959702       0.40924815       0.72778556
Pb      11.17584705      22.77506808      11.72731561       0.00722456       0.15916290      -0.10663633       1.76292899       1.90482756      -2.42158280
Pb       7.16223722      22.88849176      11.37880287       0.39937786      -0.06667481       0.17062595      -0.15678312      -0.96248838      -2.84371990
I        4.49069133      16.70632711       9.92809045       0.05119473      -0.04142270      -0.02890664      -0.64552414       0.90598651       1.98237465
I        1.08865787      21.53943118       9.09618142       0.29334873      -0.20862589      -0.08463216       2.85714533      -0.82635071      -1.10261882
I        4.58217400      16.28866488      14.10345765      -0.12824502       0.15103897       0.14145469       1.97832986      -1.74802298       1.40697719
I        1.67894415      21.69773823      13.67507271      -0.16543037       0.09777337      -0.28295079      -0.04609415       1.31183762      -1.84930712
I        5.23772919      20.36484997      12.00437033       0.07003377      -0.14820672      -0.03489327       3.27907296       1.51882498      -1.26571892
I        1.02437660      16.67398466      -1.41972081      -0.12527025       0.09294102       0.10264207       0.59560683       0.04519621      -1.31267587
I        5.26253101      24.78949081      13.11359495      -0.06154035      -0.16263549      -0.14913981      -1.39670456       1.44714406      -1.49274569
I        0.51439257      28.91489342      13.48579182      -0.24734385      -0.11159374      -0.13179576       0.38379895       1.49571252      -1.76507066
I        5.48855554      23.07971253       8.64040062       0.01047770       0.13057215      -0.03767760       0.51174211       0.83776289      -0.95770996
I        0.57973680      29.33220306       9.22542906      -0.03446733       0.10685252      -0.10528785       0.89914718      -0.60709659      -1.06131692
I        4.74063807      26.50299916      -1.20404247       0.02891401       0.17166370       0.01024068       0.20996177       0.00893761      -3.34560151
I        1.43761017      25.43306270      10.98581572       0.01445387       0.16399377      -0.06158951      -0.33907244      -0.73160599       0.53934000
I       12.32565752      16.76741638      10.41909797       0.24345353      -0.18701019      -0.28910334      -0.58997484      -1.66342588      -1.31079776
I        9.40737134      20.97122375       9.72608701      -0.05988681       0.12962872       0.06938293      -0.41162005      -2.11745462       1.03011653
I       12.38716299      16.93039394      14.56581984      -0.04121403      -0.00295870       0.09176664       0.37077853       0.18128178      -0.10401137
I        9.11455716      21.96181691      14.07390427      -0.00356725       0.05507160      -0.22688679       0.47424300      -1.55707377       1.00194972
I       13.36575877      20.37795783      12.29545695       0.01616379       0.00830087      -0.00374061      -0.59516214       0.39050783      -1.22844390
I        8.64174411      16.74102905      -0.75254906       0.00134929       0.07279015      -0.06810647       0.87131340       1.21272254      -0.21498041
I       13.08924032      24.70562539      13.40231431       0.10632048       0.16765852       0.35032400      -0.84885388       0.73997197      -0.52327548
I        8.44683834      29.03585655      13.56601204       0.11424155      -0.07419312      -0.08531121       1.62414828       0.76122973       1.49747614
I       13.39007944      23.63809594       9.31983834      -0.03427144      -0.08622847      -0.03797403       0.59709962      -2.32298365       0.27004400
I        8.46145196      29.24330675       9.45397223       0.07477705       0.00806407      -0.06165702      -0.72203234       0.22364070       0.05541536
I       12.67511510      26.80297287      -0.92134974       0.06329942       0.02000311      -0.10737064      -1.74015065      -0.25262090       1.08195352
I        9.30334800      25.47364281      11.20965278       0.02301510      -0.30967674      -0.02696286      -1.78410064      -0.62388794      -0.96740958
Cs      17.33649713       2.46021700       4.93595956       0.00307076       0.00522595       0.03109694      -0.39228728      -0.15138282       1.58430669
Cs      20.44533321       4.30008239       8.95066845       0.03508143       0.07561016       0.04644637      -0.56046115       0.74827862      -1.17392250
Cs      17.39074436       8.74410150       0.15322325      -0.04684377      -0.00332348      -0.02721453      -0.02333857       0.59527091      -0.72560874
Cs      20.49554644      12.06454524       4.73591467       0.15345889       0.11937835      -0.13452536       1.06162549       1.71424715      -2.02202870
Cs      25.07069507       2.38409864       5.62963698      -0.06328274      -0.01914242      -0.05585062       0.35192191      -2.05002663       1.67568952
Cs      28.64822208       4.79586541       9.36643287       0.00764752       0.03721570       0.05816502      -0.93577805      -1.51729887       1.65841863
Cs      25.20904336       9.23365462       0.41096697      -0.03398647      -0.08368262      -0.05799348       0.91749672      -1.83758760       2.12717150
Cs      28.48289502      12.70446417       4.67234209       0.02121008      -0.11724102       0.00012704      -0.04077944       0.04676265       0.61314379
Pb      18.52934130      14.89269280       8.46884125       0.28120277      -0.07438924       0.04984344      -0.72430998      -1.78109213       0.97701153
Pb      22.64116571      14.85748545       8.58110310      -0.51946238      -0.01936691       0.17169231       3.23575168      -0.55240027       0.03200438
Pb      19.38481569       7.08321644       4.32268974       0.06276587      -0.00518555       0.27663029       1.77364364      -0.47046839      -0.43386166
Pb      15.43815520       7.19262146       4.48925621      -0.32692167      -0.02615902       0.19045197      -0.25825488      -3.74336003      -1.55621098
Pb      26.42551275      15.10341444       8.78020269       0.08333286      -0.03790340       0.17665909      -2.56245220      -1.81753737      -0.74420520
Pb      30.53074275      15.05591454       8.77098778      -0.27368194       0.01267467       0.26865724      -1.92959702       0.40924815       0.72778556
Pb      27.22280792       7.00102701       4.91739691       0.00722456       0.15916290      -0.10663633       1.76292899       1.90482756      -2.42158280
Pb      23.20919809       7.11445069       4.56888417       0.39937786      -0.06667481       0.17062595      -0.15678312      -0.96248838      -2.84371990
I       20.53765220       0.93228604       3.11817175       0.05119473      -0.04142270      -0.02890664      -0.64552414       0.90598651       1.98237465
I       17.13561874       5.76539011       2.28626272       0.29334873      -0.20862589      -0.08463216       2.85714533      -0.82635071      -1.10261882
I       20.64905653      30.48634758       4.66695158      -0.12824502       0.15103897       0.14145469       1.97832986      -1.74802298       1.40697719
I       17.72590502       5.92369716       6.86515401      -0.16543037       0.09777337      -0.28295079      -0.04609415       1.31183762      -1.84930712
I       21.28469006       4.59080890       5.19445163       0.07003377      -0.14820672      -0.03489327       3.27907296       1.51882498      -1.26571892
I       16.66261763       2.47728594       8.87652568      -0.12527025       0.09294102       0.10264207       0.59560683       0.04519621      -1.31267587
I       21.30949188       9.01544974       6.30367625      -0.06154035      -0.16263549      -0.14913981      -1.39670456       1.44714406      -1.49274569
I       16.56135344      13.14085235       6.67587312      -0.24734385      -0.11159374      -0.13179576       0.38379895       1.49571252      -1.76507066
I       21.53551641       7.30567146       1.83048192       0.01047770       0.13057215      -0.03767760       0.51174211       0.83776289      -0.95770996
I       16.62669767      13.55816199       2.41551036      -0.03446733       0.10685252      -0.10528785       0.89914718      -0.60709659      -1.06131692
I       20.37887910      12.30630044       9.09220402       0.02891401       0.17166370       0.01024068       0.20996177       0.00893761      -3.34560151
I       17.48457104       9.65902163       4.17589702       0.01445387       0.16399377      -0.06158951      -0.33907244      -0.73160599       0.53934000
I       28.37261839       0.99337531       3.60917927       0.24345353      -0.18701019      -0.28910334      -0.58997484      -1.66342588      -1.31079776
I       25.45433221       5.19718268       2.91616831      -0.05988681       0.12962872       0.06938293      -0.41162005      -2.11745462       1.03011653