320
Lattice="31.705123562890115 0.00098397742904671 0.8597404125717283 0.019921660697184568 29.971723771014627 -2.6265873698904523 -0.4087198441794399 1.5773423540450537 17.106165182112967" Properties=species:S:1:pos:R:3:forces:R:3:momenta:R:3 pbc="T T T"
Cs       0.54648971       4.24948563       4.20882744      -0.05161106       0.02192148       0.03165820      -0.25253634       0.48035134       0.34221451
Cs       4.69120996       7.31010369       8.74934287       0.00354397       0.04778965      -0.01875774      -0.19386895       0.52516526       0.53287024
Cs       0.93800605      11.17096587      -0.34902641       0.01082887      -0.01835985      -0.03572697       0.40598487       0.91378421       3.20142568
Cs       5.00927140      13.94431425       3.67646756      -0.02474891      -0.00447227      -0.00291930       0.73795261       0.01631723       0.87916647
Cs       8.35396109       4.77367011       4.51015918       0.17948746      -0.18568535       0.06138637      -0.26023902      -1.74454847      -0.05917440
Cs      12.33581401       7.10951048       8.84332294       0.03884984       0.01838754      -0.01558812       0.89943265       1.85919718       2.30234404
Cs       8.82769617      11.29123386      -0.20648181       0.02976384       0.00724282      -0.00529975      -1.33502649      -1.48188670      -0.31228203
Cs      12.13728369      14.66212773       3.97080775       0.04718816      -0.02138343       0.02128245      -0.75881631       0.14224363       1.16280145
Pb       2.03027273      16.97374713       7.50823122      -0.17155189       0.38716008       0.25978613      -2.07122915       1.30592448      -1.57830849
Pb       5.93687987      17.15950754       7.74919193       0.11032313       0.42037206       0.05974411       0.94552930       0.78681068       0.74828311
Pb       3.13851366       9.15909901       4.03866338      -0.08424950       0.43345152       0.13707728       3.04886866       3.47941887       2.04881420
Pb      30.92188804       9.37860466       4.96903277      -0.22191378       0.02625786       0.05008006      -0.56464992      -1.44053286      -0.57961638
Pb       9.92529191      17.29523217       8.04220526       0.18843682       0.33029043       0.08499476       1.54591041       0.42270406      -0.18181309
Pb      13.93267529      17.26601093       8.00898340      -0.32965621       0.03709014       0.19228694       0.43633246       2.09521629       0.31559179
Pb      11.07476430       9.52560311       4.10833079       0.30120107      -0.15886796       0.64826760      -1.55232504       2.30888605      -1.44986516
Pb       7.03490008       9.29969129       4.43043260       0.27456535       0.18776679      -0.16877639      -0.86599259       1.55648282       0.87491925
I        4.00798181       3.35185785       2.24874453      -0.07045115      -0.33650183      -0.40428310       0.65463258      -0.24025604       0.11612972
I        1.26378860       7.66415696       2.15232569       0.05977891      -0.14124053      -0.27335013       1.05837506       0.02489514       0.09270130
I        3.92170451       2.60124600       6.29015003       0.05483883      -0.04962235       0.32444888       1.21998626      -1.45675533      -0.10957283
I        1.30923021       8.07508628       6.46393568      -0.03901328       0.21369559      -0.21857212       0.26280885      -1.23373512       0.76579640
I        5.23470227       6.77338583       4.56274225      -0.14898265      -0.27949717       0.05973591       0.53989963      -1.11151352       1.20032496
I       -0.09042650       4.72677345       8.24749375       0.24775524      -0.22187985       0.04579832       1.25712705       0.37825465      -1.67560241
I        5.12293912      10.98833527       6.18398142      -0.07978763      -0.06521563       0.09666667      -1.38902211      -0.53907389      -0.03053207
I       31.51535383      15.16245621       6.77058255       0.14729085       0.04091310      -0.04753884       0.80901500      -0.64440112      -0.35488856
I        5.40122713      10.44656133       1.86892011      -0.16579827      -0.11047795      -0.01632487       0.85437059       1.05307227       1.24442914
I        0.01550434      15.64471820       1.55251996       0.21250008       0.01748882      -0.13285221      -0.12897429       2.25093912       0.63381590
I        4.09989368      14.64729820       8.28575266      -0.20919615      -0.12606140       0.00279808      -0.77301531       0.07012075      -0.93122287
I        1.28698429      11.86773990       3.58634473       0.17254247      -0.18844303       0.08746371      -0.48178141       0.26055229       1.88582633
I       12.09399686       3.18366111       2.90535643      -0.00339428      -0.09937482      -0.23956831      -0.95018172      -0.07807935       1.01723749
I        9.30541603       7.85101676       2.30636491      -0.12619448      -0.07044625      -0.16073829      -1.37185808       0.19480625      -0.72909995
I       11.80983068       3.24191935       6.94564548       0.01862669       0.02836417       0.02684272      -1.10372028      -0.10130906       1.76553000
I        9.04012454       8.31862811       6.66574662       0.21886283       0.09348824      -0.13613428      -1.31964959       0.95408739       0.31465692
I       13.03886146       6.84505856       4.65480223       0.04481571       0.12820710       0.02151400       1.64166155      -1.70903836       1.28738436
I        7.79632567       4.84549268       8.63271625      -0.09512541      -0.05771478       0.03102793       1.53270148       1.30778602      -1.28299936
I       13.27096012      11.12387424       6.43390993      -0.22069283      -0.12503115      -0.21982662       0.09154798       1.28025115       3.54728996
I        8.18786468      15.60251101       6.08832896      -0.16436484      -0.23267376      -0.21192750      -1.67136344       2.52784097       0.23615525
I       13.22191525      10.44325880       2.00185381       0.04443990      -0.14845999       0.13276925      -0.91666539      -0.26847356      -0.43422280
I        8.04273845      15.68252536       1.78209722      -0.23375351       0.04278422       0.03065049       0.35735620       2.05814393      -0.89297125
I       11.65284225      14.82382100       8.65955881       0.08931658      -0.16110590      -0.05331748       0.10027618       0.71518186       2.18675084
I        9.05194056      11.86051998       3.93045429      -0.05447073       0.31984364      -0.04477785       1.82926638       4.55732327      -2.73992683
Cs       0.34212979       5.03815681      12.76191003      -0.05161106       0.02192148       0.03165820      -0.25253634       0.48035134       0.34221451
Cs       4.89556988       6.52143251       0.19626028       0.00354397       0.04778965      -0.01875774      -0.19386895       0.52516526       0.53287024
Cs       0.73364613      11.95963705       8.20405618       0.01082887      -0.01835985      -0.03572697       0.40598487       0.91378421       3.20142568
Cs       4.80491148      14.73298543      12.22955015      -0.02474891      -0.00447227      -0.00291930       0.73795261       0.01631723       0.87916647
Cs       8.14960117       5.56234129      13.06324177       0.17948746      -0.18568535       0.06138637      -0.26023902      -1.74454847      -0.05917440
Cs      12.54017393       6.32083930       0.29024035       0.03884984       0.01838754      -0.01558812       0.89943265       1.85919718       2.30234404
Cs       8.62333625      12.07990504       8.34660078       0.02976384       0.00724282      -0.00529975      -1.33502649      -1.48188670      -0.31228203
Cs      11.93292377      15.45079891      12.52389034       0.04718816      -0.02138343       0.02128245      -0.75881631       0.14224363       1.16280145
Pb       2.23463265      16.18507595      -1.04485137      -0.17155189       0.38716008       0.25978613      -2.07122915       1.30592448      -1.57830849
Pb       6.14123979      16.37083636      -0.80389066       0.11032313       0.42037206       0.05974411       0.94552930       0.78681068       0.74828311
Pb       2.93415374       9.94777019      12.59174597      -0.08424950       0.43345152       0.13707728       3.04886866       3.47941887       2.04881420
Pb      30.71752812      10.16727583      13.52211536      -0.22191378       0.02625786       0.05008006      -0.56464992      -1.44053286      -0.57961638
Pb      10.12965183      16.50656099      -0.51087733       0.18843682       0.33029043       0.08499476       1.54591041       0.42270406      -0.18181309
Pb      14.13703521      16.47733975      -0.54409919      -0.32965621       0.03709014       0.19228694       0.43633246       2.09521629       0.31559179
Pb      10.87040438      10.31427429      12.66141338       0.30120107      -0.15886796       0.64826760      -1.55232504       2.30888605      -1.44986516
Pb       6.83054016      10.08836247      12.98351519       0.27456535       0.18776679      -0.16877639      -0.86599259       1.55648282       0.87491925
I        3.80362189       4.14052903      10.80182712      -0.07045115      -0.33650183      -0.40428310       0.65463258      -0.24025604       0.11612972
I        1.05942868       8.45282814      10.70540828       0.05977891      -0.14124053      -0.27335013       1.05837506       0.02489514       0.09270130
I        3.71734459       3.38991718      14.84323262       0.05483883      -0.04962235       0.32444888       1.21998626      -1.45675533      -0.10957283
I        1.10487029       8.86375746      15.01701827      -0.03901328       0.21369559      -0.21857212       0.26280885      -1.23373512       0.76579640
I        5.03034235       7.56205701      13.11582484      -0.14898265      -0.27949717       0.05973591       0.53989963      -1.11151352       1.20032496
I        0.11393342       3.93810227      -0.30558884       0.24775524      -0.22187985       0.04579832       1.25712705       0.37825465      -1.67560241
I        4.91857920      11.77700645      14.73706401      -0.07978763      -0.06521563       0.09666667      -1.38902211      -0.53907389      -0.03053207
I       31.31099391      15.95112738      15.32366514       0.14729085       0.04091310      -0.04753884       0.80901500      -0.64440112      -0.35488856
I        5.19686721      11.23523251      10.42200270      -0.16579827      -0.11047795      -0.01632487       0.85437059       1.05307227       1.24442914
I       -0.18885558      16.43338938      10.10560255       0.21250008       0.01748882      -0.13285221      -0.12897429       2.25093912       0.63381590
I        4.30425360      13.85862702      -0.26732993      -0.20919615      -0.12606140       0.00279808      -0.77301531       0.07012075      -0.93122287
I        1.08262437      12.65641108      12.13942732       0.17254247      -0.18844303       0.08746371      -0.48178141       0.26055229       1.88582633
I       11.88963694       3.97233229      11.45843902      -0.00339428      -0.09937482      -0.23956831      -0.95018172      -0.07807935       1.01723749
I        9.10105611       8.63968794      10.85944750      -0.12619448      -0.07044625      -0.16073829      -1.37185808       0.19480625      -0.72909995
I       11.60547076       4.03059053      15.49872807       0.01862669       0.02836417       0.02684272      -1.10372028      -0.10130906       1.76553000
I        8.83576462       9.10729929      15.21882921       0.21886283       0.09348824      -0.13613428      -1.31964959       0.95408739       0.31465692
I       12.83450154       7.63372974      13.20788482       0.04481571       0.12820710       0.02151400       1.64166155      -1.70903836       1.28738436
I        8.00068559       4.05682150       0.07963366      -0.09512541      -0.05771478       0.03102793       1.53270148       1.30778602      -1.28299936
I       13.06660020      11.91254542      14.98699252      -0.22069283      -0.12503115      -0.21982662       0.09154798       1.28025115       3.54728996
I        7.98350476      16.39118219      14.64141155      -0.16436484      -0.23267376      -0.21192750      -1.67136344       2.52784097       0.23615525
I       13.01755533      11.23192998      10.55493640       0.04443990      -0.14845999       0.13276925      -0.91666539      -0.26847356      -0.43422280
I        7.83837853      16.47119654      10.33517981      -0.23375351       0.04278422       0.03065049       0.35735620       2.05814393      -0.89297125
I       11.85720217      14.03514982       0.10647622       0.08931658      -0.16110590      -0.05331748       0.10027618       0.71518186       2.18675084
I        8.84758064      12.64919116      12.48353688      -0.05447073       0.31984364      -0.04477785       1.82926638       4.55732327      -2.73992683
Cs       0.55645054      19.23534752       2.89553376      -0.05161106       0.02192148       0.03165820      -0.25253634       0.48035134       0.34221451
Cs       4.70117079      22.29596558       7.43604919       0.00354397       0.04778965      -0.01875774      -0.19386895       0.52516526       0.53287024
Cs       0.94796688      26.15682776      -1.66232009       0.01082887      -0.01835985      -0.03572697       0.40598487       0.91378421       3.20142568
Cs       5.01923223      28.93017614       2.36317388      -0.02474891      -0.00447227      -0.00291930       0.73795261       0.01631723       0.87916647
Cs       8.36392192      19.75953200       3.19686550       0.17948746      -0.18568535       0.06138637      -0.26023902      -1.74454847      -0.05917440
Cs      12.34577484      22.09537237       7.53002926       0.03884984       0.01838754      -0.01558812       0.89943265       1.85919718       2.30234404
Cs       8.83765700      26.27709575      -1.51977549       0.02976384       0.00724282      -0.00529975      -1.33502649      -1.48188670      -0.31228203
Cs      12.14724452      29.64798962       2.65751407       0.04718816      -0.02138343       0.02128245      -0.75881631       0.14224363       1.16280145
Pb       2.02031190       1.98788524       8.82152490      -0.17155189       0.38716008       0.25978613      -2.07122915       1.30592448      -1.57830849
Pb       5.92691904       2.17364565       9.06248561       0.11032313       0.42037206       0.05974411       0.94552930       0.78681068       0.74828311
Pb       3.14847449      24.14496090       2.72536970      -0.08424950       0.43345152       0.13707728       3.04886866       3.47941887       2.04881420
Pb      30.93184887      24.36446654       3.65573909      -0.22191378       0.02625786       0.05008006      -0.56464992      -1.44053286      -0.57961638
Pb       9.91533108       2.30937028       9.35549894       0.18843682       0.33029043       0.08499476       1.54591041       0.42270406      -0.18181309
Pb      13.92271446       2.28014904       9.32227708      -0.32965621       0.03709014       0.19228694       0.43633246       2.09521629       0.31559179
Pb      11.08472513      24.51146500       2.79503711       0.30120107      -0.15886796       0.64826760      -1.55232504       2.30888605      -1.44986516
Pb       7.04486091      24.28555318       3.11713892       0.27456535       0.18776679      -0.16877639      -0.86599259       1.55648282       0.87491925
I        4.01794264      18.33771974       0.93545085      -0.07045115      -0.33650183      -0.40428310       0.65463258      -0.24025604       0.11612972
I        1.27374943      22.65001885       0.83903201       0.05977891      -0.14124053      -0.27335013       1.05837506       0.02489514       0.09270130
I        3.93166534      17.58710789       4.97685635       0.05483883      -0.04962235       0.32444888       1.21998626      -1.45675533      -0.10957283
I        1.31919104      23.06094817       5.15064200      -0.03901328       0.21369559      -0.21857212       0.26280885      -1.23373512       0.76579640
I        5.24466310      21.75924772       3.24944857      -0.14898265      -0.27949717       0.05973591       0.53989963      -1.11151352       1.20032496
I       -0.08046567      19.71263534       6.93420007       0.24775524      -0.22187985       0.04579832       1.25712705       0.37825465      -1.67560241
I        5.13289995      25.97419716       4.87068774      -0.07978763      -0.06521563       0.09666667      -1.38902211      -0.53907389      -0.03053207
I       31.52531466      30.14831809       5.45728887       0.14729085       0.04091310      -0.04753884       0.80901500      -0.64440112      -0.35488856
I        5.41118796      25.43242322       0.55562643      -0.16579827      -0.11047795      -0.01632487       0.85437059       1.05307227       1.24442914
I        0.00554351       0.65885631       2.86581364       0.21250008       0.01748882      -0.13285221      -0.12897429       2.25093912       0.63381590
I        4.10985451      29.63316009       6.97245898      -0.20919615      -0.12606140       0.00279808      -0.77301531       0.07012075      -0.93122287
I        1.29694512      26.85360179       2.27305105       0.17254247      -0.18844303       0.08746371      -0.48178141       0.26055229       1.88582633
I       12.10395769      18.16952300       1.59206275      -0.00339428      -0.09937482      -0.23956831      -0.95018172      -0.07807935       1.01723749
I        9.31537686      22.83687865       0.99307123      -0.12619448      -0.07044625      -0.16073829      -1.37185808       0.19480625      -0.72909995
I       11.81979151      18.22778124       5.63235180       0.01862669       0.02836417       0.02684272      -1.10372028      -0.10130906       1.76553000
I        9.05008537      23.30449000       5.35245294       0.21886283       0.09348824      -0.13613428      -1.31964959       0.95408739       0.31465692
I       13.04882229      21.83092045       3.34150855       0.04481571       0.12820710       0.02151400       1.64166155      -1.70903836       1.28738436
I        7.80628650      19.83135457       7.31942257      -0.09512541      -0.05771478       0.03102793       1.53270148       1.30778602      -1.28299936
I       13.28092095      26.10973613       5.12061625      -0.22069283      -0.12503115      -0.21982662       0.09154798       1.28025115       3.54728996
I        8.19782551      30.58837290       4.77503528      -0.16436484      -0.23267376      -0.21192750      -1.67136344       2.52784097       0.23615525
I       13.23187608      25.42912069       0.68856013       0.04443990      -0.14845999       0.13276925      -0.91666539      -0.26847356      -0.43422280
I        8.03277762       0.69666347       3.09539090      -0.23375351       0.04278422       0.03065049       0.35735620       2.05814393      -0.89297125
I       11.66280308      29.80968289       7.34626513       0.08931658      -0.16110590      -0.05331748       0.10027618       0.71518186       2.18675084
I        9.06190139      26.84638187       2.61716061      -0.05447073       0.31984364      -0.04477785       1.82926638       4.55732327      -2.73992683
Cs       0.35209062      20.02401869      11.44861635      -0.05161106       0.02192148       0.03165820      -0.25253634       0.48035134       0.34221451
Cs       4.90553071      21.50729440      -1.11703341       0.00354397       0.04778965      -0.01875774      -0.19386895       0.52516526       0.53287024
Cs       0.74360696      26.94549893       6.89076250       0.01082887      -0.01835985      -0.03572697       0.40598487       0.91378421       3.20142568
Cs       4.81487231      29.71884731      10.91625647      -0.02474891      -0.00447227      -0.00291930       0.73795261       0.01631723       0.87916647
Cs       8.15956200      20.54820317      11.74994809       0.17948746      -0.18568535       0.06138637      -0.26023902      -1.74454847      -0.05917440
Cs      12.55013476      21.30670119      -1.02305334       0.03884984       0.01838754      -0.01558812       0.89943265       1.85919718       2.30234404
Cs       8.63329708      27.06576692       7.03330710       0.02976384       0.00724282      -0.00529975      -1.33502649      -1.48188670      -0.31228203
Cs      11.94288460      30.43666079      11.21059666       0.04718816      -0.02138343       0.02128245      -0.75881631       0.14224363       1.16280145
Pb       2.22467182       1.19921407       0.26844231      -0.17155189       0.38716008       0.25978613      -2.07122915       1.30592448      -1.57830849
Pb       6.13127896       1.38497448       0.50940302       0.11032313       0.42037206       0.05974411       0.94552930       0.78681068       0.74828311
Pb       2.94411457      24.93363207      11.27845229      -0.08424950       0.43345152       0.13707728       3.04886866       3.47941887       2.04881420
Pb      30.72748895      25.15313772      12.20882168      -0.22191378       0.02625786       0.05008006      -0.56464992      -1.44053286      -0.57961638
Pb      10.11969100       1.52069911       0.80241635       0.18843682       0.33029043       0.08499476       1.54591041       0.42270406      -0.18181309
Pb      14.12707438       1.49147787       0.76919449      -0.32965621       0.03709014       0.19228694       0.43633246       2.09521629       0.31559179
Pb      10.88036521      25.30013617      11.34811970       0.30120107      -0.15886796       0.64826760      -1.55232504       2.30888605      -1.44986516
Pb       6.84050099      25.07422435      11.67022151       0.27456535       0.18776679      -0.16877639      -0.86599259       1.55648282       0.87491925
I        3.81358272      19.12639091       9.48853344      -0.07045115      -0.33650183      -0.40428310       0.65463258      -0.24025604       0.11612972
I        1.06938951      23.43869002       9.39211460       0.05977891      -0.14124053      -0.27335013       1.05837506       0.02489514       0.09270130
I        3.72730542      18.37577906      13.52993894       0.05483883      -0.04962235       0.32444888       1.21998626      -1.45675533      -0.10957283
I        1.11483112      23.84961934      13.70372459      -0.03901328       0.21369559      -0.21857212       0.26280885      -1.23373512       0.76579640
I        5.04030318      22.54791889      11.80253116      -0.14898265      -0.27949717       0.05973591       0.53989963      -1.11151352       1.20032496
I        0.12389425      18.92396416      -1.61888253       0.24775524      -0.22187985       0.04579832       1.25712705       0.37825465      -1.67560241
I        4.92854003      26.76286833      13.42377033      -0.07978763      -0.06521563       0.09666667      -1.38902211      -0.53907389      -0.03053207
I       31.32095474      30.93698927      14.01037146       0.14729085       0.04091310      -0.04753884       0.80901500      -0.64440112      -0.35488856
I        5.20682804      26.22109439       9.10870902      -0.16579827      -0.11047795      -0.01632487       0.85437059       1.05307227       1.24442914
I       -0.19881641       1.44752749      11.41889624       0.21250008       0.01748882      -0.13285221      -0.12897429       2.25093912       0.63381590
I        4.31421443      28.84448891      -1.58062362      -0.20919615      -0.12606140       0.00279808      -0.77301531       0.07012075      -0.93122287
I        1.09258520      27.64227296      10.82613364       0.17254247      -0.18844303       0.08746371      -0.48178141       0.26055229       1.88582633
I       11.89959777      18.95819417      10.14514534      -0.00339428      -0.09937482      -0.23956831      -0.95018172      -0.07807935       1.01723749
I        9.11101694      23.62554982       9.54615382      -0.12619448      -0.07044625      -0.16073829      -1.37185808       0.19480625      -0.72909995
I       11.61543159      19.01645241      14.18543439       0.01862669       0.02836417       0.02684272      -1.10372028      -0.10130906       1.76553000
I        8.84572545      24.09316117      13.90553553       0.21886283       0.09348824      -0.13613428      -1.31964959       0.95408739       0.31465692
I       12.84446237      22.61959162      11.89459114       0.04481571       0.12820710       0.02151400       1.64166155      -1.70903836       1.28738436
I        8.01064642      19.04268339      -1.23366003      -0.09512541      -0.05771478       0.03102793       1.53270148       1.30778602      -1.28299936
I       13.07656103      26.89840730      13.67369884      -0.22069283      -0.12503115      -0.21982662       0.09154798       1.28025115       3.54728996
I        7.99346559      31.37704407      13.32811787      -0.16436484      -0.23267376      -0.21192750      -1.67136344       2.52784097       0.23615525
I       13.02751616      26.21779186       9.24164272       0.04443990      -0.14845999       0.13276925      -0.91666539      -0.26847356      -0.43422280
I        7.82841770       1.48533465      11.64847350      -0.23375351       0.04278422       0.03065049       0.35735620       2.05814393      -0.89297125
I       11.86716300      29.02101171      -1.20681747       0.08931658      -0.16110590      -0.05331748       0.10027618       0.71518186       2.18675084
I        8.85754147      27.63505304      11.17024320      -0.05447073       0.31984364      -0.04477785       1.82926638       4.55732327      -2.73992683
Cs      16.39905149       4.24997762       4.63869765      -0.05161106       0.02192148       0.03165820      -0.25253634       0.48035134       0.34221451
Cs      20.54377174       7.31059568       9.17921308       0.00354397       0.04778965      -0.01875774      -0.19386895       0.52516526       0.53287024
Cs      16.79056783      11.17145786       0.08084380       0.01082887      -0.01835985      -0.03572697       0.40598487       0.91378421       3.20142568
Cs      20.86183318      13.94480624       4.10633777      -0.02474891      -0.00447227      -0.00291930       0.73795261       0.01631723       0.87916647
Cs      24.20652287       4.77416210       4.94002939       0.17948746      -0.18568535       0.06138637      -0.26023902      -1.74454847      -0.05917440
Cs      28.18837579       7.11000247       9.27319315       0.03884984       0.01838754      -0.01558812       0.89943265       1.85919718       2.30234404
Cs      24.68025795      11.29172585       0.22338840       0.02976384       0.00724282      -0.00529975      -1.33502649      -1.48188670      -0.31228203
Cs      27.98984547      14.66261972       4.40067796       0.04718816      -0.02138343       0.02128245      -0.75881631       0.14224363       1.16280145
Pb      17.88283451      16.97423912       7.93810143      -0.17155189       0.38716008       0.25978613      -2.07122915       1.30592448      -1.57830849
Pb      21.78944165      17.15999953       8.17906214       0.11032313       0.42037206       0.05974411       0.94552930       0.78681068       0.74828311
Pb      18.99107544       9.15959100       4.46853359      -0.08424950       0.43345152       0.13707728       3.04886866       3.47941887       2.04881420
Pb      15.06932626       9.37811267       4.53916257      -0.22191378       0.02625786       0.05008006      -0.56464992      -1.44053286      -0.57961638
Pb      25.77785369      17.29572416       8.47207547       0.18843682       0.33029043       0.08499476       1.54591041       0.42270406      -0.18181309
Pb      29.78523707      17.26650292       8.43885361      -0.32965621       0.03709014       0.19228694       0.43633246       2.09521629       0.31559179
Pb      26.92732608       9.52609510       4.53820100       0.30120107      -0.15886796       0.64826760      -1.55232504       2.30888605      -1.44986516
Pb      22.88746186       9.30018328       4.86030281       0.27456535       0.18776679      -0.16877639      -0.86599259       1.55648282       0.87491925
I       19.86054359       3.35234984       2.67861474      -0.07045115      -0.33650183      -0.40428310       0.65463258      -0.24025604       0.11612972
I       17.11635038       7.66464895       2.58219590       0.05977891      -0.14124053      -0.27335013       1.05837506       0.02489514       0.09270130
I       19.77426629       2.60173799       6.72002024       0.05483883      -0.04962235       0.32444888       1.21998626      -1.45675533      -0.10957283
I       17.16179199       8.07557827       6.89380589      -0.03901328       0.21369559      -0.21857212       0.26280885      -1.23373512       0.76579640
I       21.08726405       6.77387782       4.99261246      -0.14898265      -0.27949717       0.05973591       0.53989963      -1.11151352       1.20032496
I       15.76213528       4.72726544       8.67736396       0.24775524      -0.22187985       0.04579832       1.25712705       0.37825465      -1.67560241
I       20.97550090      10.98882726       6.61385163      -0.07978763      -0.06521563       0.09666667      -1.38902211      -0.53907389      -0.03053207
I       15.66279205      15.16196422       6.34071235       0.14729085       0.04091310      -0.04753884       0.80901500      -0.64440112      -0.35488856
I       21.25378891      10.44705332       2.29879032      -0.16579827      -0.11047795      -0.01632487       0.85437059       1.05307227       1.24442914
I       15.86806612      15.64521019       1.98239017       0.21250008       0.01748882      -0.13285221      -0.12897429       2.25093912       0.63381590
I       19.95245546      14.64779019       8.71562287      -0.20919615      -0.12606140       0.00279808      -0.77301531       0.07012075      -0.93122287
I       17.13954607      11.86823189       4.01621494       0.17254247      -0.18844303       0.08746371      -0.48178141       0.26055229       1.88582633
I       27.94655864       3.18415310       3.33522664      -0.00339428      -0.09937482      -0.23956831      -0.95018172      -0.07807935       1.01723749
I       25.15797781       7.85150875       2.73623512      -0.12619448      -0.07044625      -0.16073829      -1.37185808       0.19480625      -0.72909995