320
Lattice="36.61494431704515 0.8521064442996575 0.6472952383376436 -0.4899562435077865 21.43320960287554 0.4582089290160639 -0.349194964961731 -0.4123068262220005 19.635594233834194" Properties=species:S:1:pos:R:3:forces:R:3:momenta:R:3 energy=-967.1979473664011 stress="0.0 0.0 0.0 0.0 0.0 0.0 0.0 0.0 0.0" pbc="T T T"
Cs       8.38549332      19.83139514       1.11319440      -0.18491968      -0.21848886       0.05984848      -0.19292839       1.27193343       2.05213439
Cs      14.24081943       6.27997330      18.29337335      -0.09457838       0.30182805      -0.20953246       1.19326118      -0.31817024      -1.49043610
Cs       5.44334108       3.25017575       0.63468024       0.08158159      -0.08571562       0.18023690       4.55914905       2.23704355       2.84388632
Cs      17.44040671       1.46278313      18.16055620      -0.16092830      -0.12637932      -0.01917878       0.35321900      -2.67260224      -1.40956773
Cs       7.91226387      19.37964685       5.53351963      -0.03731830      -0.32469336       0.28152367      -1.82910586      -0.06301191      -0.64490425
Cs      14.21511970       6.93290466       3.25997549      -0.01284424       0.13495214       0.22708865       2.79014767       1.61852381       1.75699200
Cs       5.73380279       3.03725569       5.74943441      -0.38637405       0.04471216      -0.23260540       2.95607934       0.38634663      -0.63057733
Cs      17.04904576       2.09121270       3.11570155       0.19802320      -0.19611027       0.03610961       1.74695894      -1.51784568      -2.39737144
Pb       2.71778269      19.31231019      18.43157496       0.35992448       0.51339214      -0.39559408      -1.91951738       1.00723073       1.86883862
Pb      19.08046370       6.32669262       0.97818333       0.29000893      -0.08851344      -0.50398801       0.86184705       2.72353058      -1.12647460
Pb       9.85106806       4.27725857      18.41528638      -0.40687817      -0.77795576      -0.46189124      -5.04229702       6.55298457       2.97047365
Pb      12.13043063       0.72203255       1.15669030      -0.27415718       0.83058142       0.18036108       1.37534669       1.05077716      -1.48681768
Pb       2.94043244      19.88116908       3.30027151       0.38070125       0.24485485       0.70660919       3.94482426      -1.31223504      -9.25949751
Pb      19.31523322       5.96855765       5.63690596      -0.77195083      -0.13990438       0.91411030       1.30287880      -1.64225508       4.45771213
Pb      10.09685373       4.31776564       3.45297547      -0.47154092      -0.58225466       0.06129847       0.12919531       3.31024582       4.03376294
Pb      12.66694487       0.92739080       6.05139313       0.07079875       0.22815828      -0.54762770       2.02854283       1.53621784      10.01567482
I        2.63124177       0.31798455       0.75089072      -0.34088807       0.26655741      -0.46177188       2.66584596       1.50696506       1.11489409
I        2.56617847       3.71314302      18.10056130      -0.19133352      -0.41093787      -0.24231984      -1.05387423       3.51713175      -4.31404344
I       11.08645243       6.22720871       1.08237525       0.12227208       0.31549650       0.09468476      -2.44629079      -0.73968063      -3.68597059
I       10.85658933      20.03149180      18.66325034      -0.30116176      -0.28793043      -0.64463443      -0.03253227       1.98948187       5.25644295
I       18.08296841      18.49746973      18.31627217      -0.49824104       0.54385390       0.18010757      -2.43908495       0.73153122       2.33146771
I        3.72658087       7.42577758       1.00908650       0.21969982       0.23898541      -0.36255948      -1.44119763      -1.70552319       3.39241480
I       12.58514831       2.66514885      18.33453360       0.38856690       0.04353587       0.00753942      -1.39949036       3.13135658       1.03622957
I        8.91356009       2.09395006       0.75705362       0.27712527       0.60791776      -0.04273980       0.91521789       1.36684563       0.03354186
I        5.43269483      20.77436266      18.18232930       0.00954951       0.30822924      -0.03548671      -1.71244073       2.18493608       0.71487129
I       16.13819154       4.84573492       0.87416621       0.68284839       0.19393692      -0.05174658       1.89782664       0.94885587       0.25529165
I        6.89763440       5.51044469      18.10627550       0.13854022       0.00123657      -0.14247026      -2.10922180      -1.88106022      -2.19444484
I       14.16612323      21.10870078       1.78446083       1.09451465      -0.38138910      -0.62733978       3.30731683      -2.93339195       0.68819289
I        2.50891423       0.46877932       5.18942436      -0.22650226       0.23244227       0.20101478       1.63143617       4.74339621       0.87365750
I        2.13417791       3.95620933       2.82755949       0.30389857      -0.39117753       0.18321612      -3.37842740      -0.88002992       3.01652481
I       11.18463313       6.03635565       5.52186059       0.18400923       0.27982367       0.01824476       5.61057100       0.41496336      -2.38430236
I       11.07960586      20.41962261       3.99317673      -0.17924832      -0.18014770       0.06601260      -4.40376842      -2.59722519       3.60140550
I       18.24947774      19.20786041       3.26837104       0.01413822      -0.11531806       0.12043927       3.67361465       0.49121366       0.21589385
I        4.08591502       7.37870976       5.08761454      -0.07822492      -0.17826651       0.25396337       0.85925613       0.04240063      -2.11767738
I       13.15177497       3.01208811       3.30571849      -0.06228722       0.12966093      -0.01993042      -1.63431913      -3.07697282      -6.70306422
I        9.30978011       2.03130273       5.96462723       0.19841627      -0.00500159      -0.42975355      -1.47566897       1.30275968       4.09728114
I        5.72946717      21.49757050       3.72399171      -0.23638800      -0.07340384      -0.23511431       2.01023240       3.04428316       2.83931221
I       16.26504589       4.66175407       5.75347288       0.42600261       0.32585622      -0.10155503       3.45565922       4.45351811      -4.84348195
I        7.21434695       5.70823761       3.78380701       0.25954170      -0.16682700      -0.34338281      -1.72968293      -1.53409787      -4.23879219
I       15.02444040      21.14781965       5.66680209      -0.11339030      -0.20963894       0.34389715      -4.51363124      -0.79901779      -2.03619251
Cs       7.75385384      19.43958163      11.15817849       0.07418818      -0.24088072      -0.36808306      -2.00314471       1.89500049       1.85852826
Cs      14.94049113       7.34369079       8.43372954      -0.45717799      -0.22423925      -0.17171511       0.58688486       2.95307620       0.78277756
Cs       5.41621400       2.50518679      10.10531386      -0.02966829       0.15047574       0.25288751      -0.38819049       3.01470095      -3.03727973
Cs      17.25929914       1.61988922       7.96450863       0.06128094       0.08153605       0.13887156       1.27877808       2.16318461      -2.01654336
Cs       7.87054700      18.99630610      15.63842779      -0.09627278       0.05928306       0.19055197       3.26869250       3.18187065       3.20377800
Cs      14.02336119       7.19986866      12.99808386       0.16583863      -0.23668600       0.11015298       1.15349851       1.61546076      -0.58265992
Cs       5.41577453       3.21978683      15.26115569      -0.05383462      -0.39209821       0.10410019      -1.22960640       1.71097408      -1.33292671
Cs      16.74694647       1.98775843      12.84915890       0.12727059      -0.32013454       0.13262039       3.54464998      -1.07605392       4.23663758
Pb       2.96745090      20.24651390       8.16331086       0.03899835      -0.25802451       0.09054394      -6.56920847      -2.58256939       3.26754370
Pb      19.21440862       6.27769623      10.80469750      -0.55265000      -1.02979924      -0.11267597      -6.67521736      -1.31498404       3.15118265
Pb      10.05728253       4.21673721       7.96919273       0.19561022      -0.09714577       0.40757259       6.87695463       4.66315592      -5.95121129
Pb      12.44019284       0.99596059      10.15281401      -0.15702922      -0.14174304       0.44556433      -2.71357654      -3.05862118       0.39219954
Pb       2.54443968      19.51110730      13.60188589       0.48109778       0.26911499      -0.39745459       2.63424417      -0.15563450      -4.10009117
Pb      19.03536468       6.16639937      15.79130209       0.46454390      -0.39151406      -0.38233284      -1.19237254      -7.23512225      -0.40401826
Pb      10.01690870       3.90149434      13.33371731      -0.10968424      -0.12250071      -0.42493759       3.36746514       1.24281268       5.37373114
Pb      11.97353629       0.77578440      15.92848887       0.21194013       0.04630396      -0.63751284       1.23957711       0.78689939       3.42191400
I        2.57466007       0.33147570      10.53040010      -0.27725780      -0.15077284       0.17940643      -1.82122115      -0.27543103       4.94923870
I        2.05105659       3.78332250       7.95328050      -0.10292463       0.19522824       0.31914356      -6.32668649      -3.60686648      -0.80842840
I       10.80202893       5.75503561      10.84966685       0.38265172       0.14235102      -0.09343925       0.67031076      -2.60740431       2.06647564
I       11.28761775      20.08548960       8.13331546      -0.31303817      -0.05700321       0.38061727      -2.00197993      -4.50805356      -4.38115710
I       18.34465398      19.00251769       8.61719977      -0.40541886       0.01434706       0.12502367      -0.11173567       1.40190230      -3.19171763
I        3.82473433       7.09447133      10.38645299      -0.00916021      -0.46439201      -0.10396660       1.50267740       0.82541523      -0.25842521
I       13.39793934       3.32632586       8.17648899       0.01128722      -0.31035094      -0.06786019      -0.15759779      -4.63386185       0.25885417
I        9.46793722       1.98989264      10.27506042      -0.22886093       0.10268729       0.15653515       1.47641551      -4.69693129       1.74842966
I        5.84618327      21.55761256       8.25602472       0.05005997      -0.23268714       0.01448616       1.46354312      -0.09184623      -1.61941040
I       16.38506303       4.55480123      10.66233341       0.08770149       0.36437990       0.01677097      -2.72425558      -0.38340753       1.55124364
I        7.32945216       5.37956449       7.93710004      -0.33660766       0.18154805      -0.01488083       0.26458149       1.16479897       1.22876210
I       14.70164070      20.93360502      10.46654553       0.14180054      -0.07667688       0.28069049      -0.36759029      -0.47234214       1.02047614
I        1.92530795      -0.09670055      15.35088161       0.17763849       0.03962947       0.12425875       1.48447207      -4.29904369      -3.46983673
I        2.72940399       3.76992798      12.93305927      -0.44209143       0.10142227      -0.33957594      -3.16934013       5.17990108       1.79093350
I       11.25809882       5.83257178      15.61728995      -0.30056709      -0.09158941       0.05571037      -1.20646684       0.32194912       3.08074065
I       10.45474521      20.84900043      13.33616707       0.29364056      -0.23384704      -0.06538949       1.46918380      -0.27665190       0.05161171
I       18.43344880      19.22834705      13.08867310      -0.46262237      -0.30317365      -0.07204695      -1.64124412      -1.44795095       0.74024399
I        4.19529720       7.30233545      15.83124922      -0.01041310      -0.22187594      -0.13320064       0.66700747      -0.73392057      -0.18278953
I       12.92945981       2.70274023      12.85984171       0.13504124      -0.14327418       0.41386192      -5.81351366      -1.98734584       0.18043819
I        8.80052072       1.95547150      15.80956591       0.32458040       0.18447663       0.21946912       2.07795006       2.66041753      -4.54740661
I        5.53469420      20.84042084      13.51425100      -0.35670316       0.17373455       0.06113288      -1.44790966      -0.71753302      -3.48805799
I       16.52035135       4.31743790      15.74408913      -0.43926209       0.24108353       0.01432741      -0.93240268      -1.19234574       1.13783473
I        7.13019210       5.18711233      12.56110746      -0.06430224       0.07427979       0.34396585      -2.10671557      -2.76318321       5.91931004
I       14.38825748      20.87582784      16.13980381      -0.06575136      -0.01684719       0.04410420      -2.00115904      -2.74814516       0.88244531
Cs       7.71814321       8.29900933       0.76737472       0.00658939       0.24791616       0.15672083      -1.12982015      -0.88386111       0.40994461
Cs      13.44620865      17.15045674      18.28055219       0.35033484       0.27570940      -0.06208702       1.68322759       0.69681407      -0.91490394
Cs       4.73351935      13.70597730       0.99968987       0.30079783      -0.01310860      -0.19835979      -1.44407931      -0.73875603      -0.71810627
Cs      17.11017310      12.42201903      17.82658503      -0.11814526      -0.05494803       0.27471277       0.63701434       1.81577200       1.32909923
Cs       8.03030464       8.93045021       5.81056684       0.03064429      -0.19778195      -0.06140945       2.82229989      -3.41267475       2.00977233
Cs      14.63960392      17.84432914       3.35456207      -0.20226931      -0.14833389       0.21612833      -2.67269309      -1.49321334      -3.72524377
Cs       5.10239298      13.97884938       5.11488098       0.04673263      -0.17849582       0.51397089      -4.94849410       0.12885159      -6.13266304
Cs      16.88091213      12.01623744       3.38138662       0.19544133       0.58125285      -0.00269359       3.70744324       3.52053102       1.17986579
Pb       2.84480923       9.18031395      17.98087664       0.22718949      -0.15241851       0.20440535       1.65114659      -1.84173712      -0.56603006
Pb      19.21256988      17.08676823       1.08896144       0.04052081      -0.26270500      -0.04188655       4.91400785       4.43409028      -0.14079308
Pb       9.43981749      14.64001843      17.55481856       0.13949522       0.55362459       0.81997379      -3.08578357      -4.93064585       2.06193712
Pb      12.24487799      11.63305083       0.89045029      -0.39291614       0.07486256      -0.09337498       0.19609302      -3.44348494      -6.03743381
Pb       2.84773780       9.54902376       3.06422423       0.35090316      -0.01626453       0.35970876       3.70301354      -1.60155754      -4.03945001
Pb      19.17512605      17.15393018       5.97049888       0.02959651       0.27074502      -0.11264354      -3.84726294       9.60572777       1.12088310
Pb      10.08028963      14.70443192       3.04430175      -0.42549686       0.34124358      -0.12286408      -4.72634726      -0.74486825      -2.47588112
Pb      12.26579919      11.36063042       5.64422287      -0.23040605      -0.10935062       0.51805417       1.58393114       3.79094444      -0.26275288
I        1.68825640      11.49737591       0.78555166       0.10658380      -0.09480499      -0.32734707       1.58683839       2.72612796       2.79965177
I        1.89057897      14.25919586      17.85552781      -0.36026920       0.38726115       0.17837103       1.94943101       1.05863346      -4.89361615
I       11.52512357      16.93590394       0.84643532      -0.55020491      -0.71918041       0.01947640       2.68206789      -1.84572731       1.22763039
I       10.98643096       9.30865156      18.03298162      -0.15800306      -0.26862075       0.06177937      -4.60434295      -0.09029706      -3.20565779
I       18.13434630       8.00485050      18.12841015      -0.24691738       0.25360645       0.45437818       0.26092831      -1.46912966       1.58530215
I        4.12861013      18.19854281       1.13269350       0.00826061      -0.73973733      -0.26349250      -2.50069193       1.62039995       1.91856680
I       12.63644497      13.08800309      17.96480979       0.08553057       0.27582611      -0.23193893      -3.40557741       2.08218979      -0.37628853
I        9.04253223      12.91403965       0.07818795       0.19078068       0.29306000       0.23746410      -2.69617995       0.84497115      -4.00875291
I        5.72759066      10.49984446      17.98789869      -0.30924028       0.01044039       0.00733735      -2.97065884       2.33673978      -1.60553317
I       16.35835827      15.56681048       0.72362675       0.05021307      -0.14990593       0.22663787      -2.57340893       4.32565627      -1.59666376
I        6.80860871      16.32233987      18.43060225       0.15472513      -0.32840031      -0.27003786      -2.60557578      -1.35459877      -1.72870771
I       14.90762424      10.36032212       1.18977718       0.43841188      -0.34681486      -0.36579770       1.34007578       5.99541588       0.49668279
I        1.74460443      11.27316577       5.75963149       0.08826930      -0.17126713      -0.00997416      -1.38883597       0.68362923       4.65897804
I        2.26289821      14.56472538       3.42751187      -0.35323751       0.41812701      -0.21644997      -2.35148722       0.41534028      -2.79854444
I       11.19494795      16.42170579       5.47397777      -0.26672670      -0.11326214       0.15179752      -0.91346772       1.66382554      -0.21187796
I       10.97458419       9.85730298       3.23002271       0.06834957      -0.22933975       0.02894826       2.75188366      -0.66213247      -1.18161975
I       18.31911432       8.31393083       3.55129417      -0.05102768      -0.01354711      -0.40064532       1.86363534      -4.60228075      -4.88398715
I        3.80690071      18.05288341       5.94421780       0.14345468      -0.16371517       0.02281534      -2.23242770      -7.09128257      -3.40175711
I       13.17379567      13.54314195       3.35279332      -0.02721028       0.00481680       0.05682924       4.47309991      -0.58412992       0.87405883
I        9.11432463      12.52908624       5.65098056       0.19315101       0.44181143       0.02965217       0.01735275       0.03365092       1.35512866
I        6.00184642      10.64081123       3.51898723      -0.32448599       0.12620571      -0.40374878      -5.63655872       3.60603797      -3.96086447
I       16.48037642      15.70894516       6.29391946      -0.44358004      -0.17718621      -0.36204484      -1.70817622      -0.34236372       1.59050354
I        7.08201965      16.08689635       2.96545046       0.56268857       0.06215078       0.07914134      -1.93221265       0.99700195       0.44014206
I       15.25940534      10.21909256       5.64974482      -0.24142391      -0.04901231       0.16888125       1.29356264       1.94472403       4.04407689
Cs       8.07776421       7.83170579      10.43353939      -0.09690784       0.29512172      -0.03506272       0.48842208      -0.38222737       2.54008154
Cs      13.93720572      17.93193100       8.53960703       0.14658133      -0.02826870      -0.31868301      -1.59662831       3.22853529       0.66241724
Cs       5.00531208      13.45373164      10.48691945       0.18823369       0.08033792      -0.06460080       1.65921108       2.36008011       3.08903056
Cs      16.84770841      13.24252297       8.32460853       0.00854614      -0.30430413       0.07795601      -1.88526031       0.92681546       1.50072981
Cs       7.88112553       8.46986300      15.28949350       0.03202648      -0.19201155       0.04112570      -0.34201042       4.27149913      -0.72621036
Cs      14.12629229      18.09401671      13.22719842      -0.03480186       0.11469874       0.12085280       1.15329139      -0.76763696      -0.05437175
Cs       4.84985882      13.67089732      15.26480586       0.12999355      -0.05172851       0.27678511      -1.76763837      -0.20764797      -2.46520926
Cs      16.60915530      12.61396122      13.19876137       0.07258312      -0.23714608       0.06156382      -0.67099218      -2.97100453       5.34445264
Pb       3.11971926       8.95858790       7.77753693      -0.59152961       0.04544595       0.07593564      -4.88484411       7.55374399      -0.09247558
Pb      19.33766975      16.83162696      10.82311584       0.12062655       0.61640997       0.21040322      -5.83172891      -1.57425663       0.41987585
Pb       9.68290016      14.72066120       8.25810075       0.03955201       0.15176374      -0.28686413       0.88494763      -1.39352053      -0.42310931
Pb      12.08653507      11.33756552      10.53172470      -0.36447786      -0.43098955      -0.10186032       2.24735584      -2.19877050       3.46544145
Pb       3.23171825       8.77546648      12.97290109      -0.20542019       0.25450643      -0.36324251      -1.61359469      -0.84892301      -4.49911585
Pb      18.90959739      17.03453002      15.52147231      -0.06359372      -0.33782819       0.10703171      -3.05871028      -0.47973031       0.40941497
Pb       9.89346934      14.66933831      13.21993602       0.30665308      -0.14884912      -0.53961718       4.74681420       2.14996193       2.49414874
Pb      11.86955489      11.15398880      15.78095319       0.28437671      -0.45900569      -0.60969907       2.42065164       8.39494649      -4.62229325
I        2.23855382      10.91863431      10.47781896      -0.24908527      -0.28612926       0.18731261      -0.50028045      -3.84065874       0.35816649
I        2.11413366      14.62384209       8.18636027      -0.11729615      -0.05398702       0.20675979       2.27185322       1.36427554       0.66438392
I       11.32907544      16.40976739      10.78417855      -0.44993612       0.10650330       0.00839192       1.88732322       3.20663931      -5.08163189
I       10.90111634       9.02781817       7.96792755       0.61347467       0.77784004       0.08565535       1.71421770      -1.48663826      -3.16778526
I       17.94808156       8.11965446       8.53153513       0.36397866      -0.28803666      -0.60641341      -2.50565898       0.48046071       2.60677593
I        3.52996718      17.97445790      10.63348574       0.43450585       0.02490624       0.09924500       0.00666526      -4.50085369       0.15690169
I       12.63525071      13.53224988       8.46489834       0.43790659      -0.07975966      -0.49080048       1.80844713      -1.63058159       1.87035732
I        9.16989236      12.56131526      10.48624375      -0.37023825       0.10456646      -0.05773640       2.08662576       0.28889521      -1.14493933
I        5.62627977      10.21912628       7.96084471       0.52784874       0.61341984       0.07693772       0.90187501      -1.20501838      -3.14320889
I       16.34269238      16.14101954      11.02420621      -0.28326334      -0.50281656      -0.09476706      -4.23097855       0.08210680       1.19303321
I        6.86370904      16.12642649       8.20959672       0.16874091       0.13740217       0.07055466       1.89190400       2.75629846      -7.45102636
I       14.99449375      10.08417685      10.35283071       0.20475376       0.14762278       0.27689845       0.76247841       1.98454109       1.62645905
I        2.14925849      10.80198846      15.20123514      -0.35998118       0.27895423       0.30100029      -0.60247028       0.11093846       2.12382924
I        2.02820486      14.61002631      12.75456828      -0.28539924      -0.12277662       0.38979803      -1.02743676      -1.96086162      -0.20123256
I       10.96877437      16.77954803      14.98145503      -0.07293099      -0.16106526       0.70545790       2.21649575      -0.65687758       1.29358934
I       10.78751653       9.28581427      12.64298477       0.23448793       0.33532973       0.80502387      -0.09630549      -2.16869482      -1.84400802
I       18.29462916       7.93156851      13.11105043      -0.61348857       0.51750822       0.08642213       2.44864000       1.79909654       0.31265002
I        3.48976415      17.11222785      15.95761895      -0.01199985       0.43930268      -0.24627682       2.57649920      -2.14007536       0.47244470
I       12.85741850      13.21261624      13.12089674       0.16523597      -0.21936162       0.07122956      -2.73556335      -0.05514276      -0.09835179
I        8.51303321      12.59698346      15.53699485       0.39198027      -0.04930760       0.06478089       0.92660543      -0.52167756       0.90989409
I        5.77597732      10.28753346      12.75571953       0.42345990       0.31979813       0.11108697       3.05430628       1.58268099       0.80093345
I       16.12989021      15.36668009      15.64997762      -0.02525656       0.25728076      -0.05713556       2.26655030      -4.40974674       0.49559886
I        7.30845314      16.09430939      13.39740831      -0.62073712       0.06987873      -0.29843472       6.01985973       0.09975025       1.67229735
I       14.74451129       9.66097667      16.17185668      -0.37622510       0.32879546      -0.36023859       1.34869448      -0.67211400       2.06415900
Cs      26.49924969      20.16639690       1.33019309      -0.11464907      -0.20684401      -0.25875809      -0.52069800      -3.47001063      -1.25673588
Cs      32.41060996       7.29347871      18.27175830       0.02192460      -0.38574651       0.22487747      -0.52601541       3.06263415      -1.44323268
Cs      23.89081499       3.71253834       0.93505786      -0.07775505      -0.21960526      -0.30661908       2.86714750      -1.10964677       4.18206207
Cs      35.83093890       1.38536629      18.25265639      -0.10771019       0.23259863       0.10634750      -1.64235855       2.40023395       2.82660451
Cs      26.34810443      20.04798961       6.48261296      -0.14598079      -0.11989999      -0.13091430       5.10880981      -2.50214805       1.17848192
Cs      32.40595891       7.33990170       3.58626035       0.31610360       0.07300336      -0.01271248      -0.62272236      -3.72186536       4.33792513
Cs      23.59608156       3.42639222       5.61128804      -0.08717866      -0.04291992       0.16295234       1.68435888       3.08230646       1.77327429
Cs      35.88711012       1.67142588       3.77781312      -0.00370374       0.17288106      -0.08543461       2.24261209       3.37572614       4.02354201
Pb      20.86561048      20.21396895      18.07560708       0.77194824       0.32431298       0.58728515       1.91885228       1.22643885       2.04576879
Pb       0.82309865       5.64423821       0.78926878       0.36057059      -0.09729874       0.04342242       3.43848816       1.98136971       1.89363112
Pb      28.25868197       3.63690154      17.99122568      -0.32436332       0.64760562       0.44331166       4.74304541      -0.30677018      -4.18216010
Pb      31.17785852       1.09476650       1.19194356      -0.18986023      -0.09061052       0.10931383       5.74526965       2.35877323      -5.32540339
Pb      21.43943929      20.45850295       4.00818565      -0.54895556       0.17473632      -0.36468273      -5.37272397       1.80076342      -0.52290434
Pb       1.10473128       5.53274614       5.59933312       0.04187115      -0.04045191      -0.24970661      -9.55686446      -3.40069865      -1.75130118
Pb      28.62043136       4.45588953       3.26819466       0.37123115      -0.26659979       0.08888155       3.36924057      -1.31141132       2.50634670
Pb      30.63500131       1.20931536       5.94834911       0.55123358      -0.55199325      -0.17630877       3.09977343       2.03291035       0.42943729
I       20.96862098       0.94084078       0.70865434      -0.16587556      -0.01086587       0.29077850      -0.25863813       1.23572088      -2.23864448
I       20.67090347       4.43430635      17.89752339      -0.47605033       0.03737323       0.62301214      -1.53519206      -3.56204004       0.94210186
I       29.69356247       6.19336464       1.12685854       0.03983031       0.16147140      -0.75367945      -4.94905601      -0.43290956      -2.41224751
I       29.65666385      20.10587336      18.56811885      -0.04861273       0.39571055       0.13834499      -1.57316013       3.01362927      -1.73382980
I       -0.04489231      18.11127552      18.15420473      -0.54846958      -0.22251764      -0.13311688      -0.89446742      -0.68886083       1.92817813
I       22.42615436       7.83045258       0.97403284      -0.45881234      -0.29237885       0.50920533      -3.02563670       0.53285546      -2.44695580
I       31.22476769       2.84321952      18.34142016       0.58163208       0.00791578      -0.26192993      -3.14651318       1.88917480      -2.88259310
I       27.73747067       2.36475799       1.07027711       0.19834055      -0.28436370      -0.31244295      -5.65622920      -2.70443700      -1.94187453
I       23.91305279      21.61433421      17.80641162      -0.44941072      -0.15792761       0.24890282       1.66180005      -6.34520281      -4.00202338
I       34.80878275       4.93349977       1.22259816      -0.17496087      -0.10477213      -0.14395896       0.54176240       1.84749806      -1.79057863
I       25.50528800       5.30370645      17.99232095       0.12725631       0.16042548       0.08307229       3.45980928       0.25077476       3.48096459
I       33.43690904      21.15905644       1.81886369      -0.05773085       0.01516333      -0.24503766      -2.30794242      -0.39405045       4.41670723
I       20.23472451       1.10173975       5.89196225       0.26531456      -0.24660535      -0.19679148       4.93219774      -0.65896282       1.63287939
I       19.89640455       4.13719656       3.14104750       0.31563500       0.15080258       0.21996371       2.40679140      -6.48150501      -0.14385733