320
Lattice="25.356093371687486 -0.1065490082268892 -0.19187677835240669 0.07755788227136919 25.376386568457004 0.27590338859444424 0.1691801122122475 -0.29781874292918886 25.404906270035514" Properties=species:S:1:pos:R:3:forces:R:3:momenta:R:3 pbc="T T T"
Cs      14.03419035       8.51347841       5.95682745      -0.00494340      -0.10442448      -0.00783564      -0.19965354      -0.83154060       1.27624446
Cs       7.19932085       1.50449185       5.82525732       0.05480071       0.15964492       0.16611830      -0.33667080       1.38095239      -0.39296684
Cs       6.77725475       2.36439544      12.31864804      -0.03942881       0.07339510      -0.09053699       0.17431115       0.93521037      -1.05297794
Cs      12.27489161       8.64121582      12.72885512       0.16948446       0.08890274      -0.04599474       1.18069869       1.53264117      -1.96110470
Cs      13.31154062       2.50146109      12.38454738      -0.06859660       0.03676707      -0.07236512       0.27286253      -1.82690097       1.60492368
Cs       6.53503789       9.02637302      12.14341077       0.01448369       0.09713611       0.11201430      -0.80323247      -0.68366172       2.42282760
Cs       7.37343519       8.04487986       6.15541644      -0.03146228      -0.05697963      -0.12766994       0.42837938      -2.11079872       1.36767565
Cs      13.62881830       2.25051474       5.98485298      -0.00725632      -0.13026199      -0.03695263      -0.16822201       0.02378154       0.10282827
Pb       3.95841750      24.52256939       9.53740057       0.02878528      -0.00484263      -0.11533540      -1.27059766      -0.28529642       0.99362443
Pb      10.18007496       5.37870708       9.09176443      -0.04251636      -0.12727310       0.00736481       3.51687593       0.39039152      -0.77504261
Pb       3.78887499       5.58425162       9.18008669       0.20215831      -0.12417544       0.27181157       1.59162468      -0.68475827      -0.94709357
Pb      10.45118673      24.26834832       9.15850491      -0.18501120       0.22494963       0.11772977       2.16981578      -2.93732716      -1.36953534
Pb       3.82066671      24.29528564       3.09842162      -0.25273442       0.09424181      -0.08661911      -2.39202324      -1.13977620      -2.60333179
Pb      10.19230052       5.39713493       2.80359534      -0.21088507      -0.06082911       0.09870927      -3.80261530       1.24140091      -0.32419155
Pb       3.87465365       5.29916468       2.84320221       0.22326750       0.04653466      -0.12641622       2.92808540       0.02548212      -1.93790336
Pb      10.03167382      24.51043097       2.80701522       0.24426124      -0.10162125       0.19448092       0.35937868      -1.91588516      -3.63105452
I        3.24360949       2.27550058       9.55887280       0.03921827      -0.10062619      -0.01842930      -1.05711053       0.22187171       0.89035643
I        9.23677305       8.60704891       9.60802891       0.19214558      -0.13890945       0.02159480       1.63560641      -1.91810905      -0.05503899
I       17.36126640       8.44855973       8.54877498      -0.10026058       0.32064182       0.10026966       2.24142034      -2.06887353       0.80179771
I       11.10739521       2.22624170       8.94219812      -0.18003106       0.01986888      -0.11374820       0.52771145       2.23770139       0.92997938
I       13.36906987       6.22633040       9.69949567      -0.04540220      -0.04446602      -0.00777735       2.78077109       0.82867543      -0.65255026
I        7.06589986      12.38332701       9.44249752       0.14389930       0.00727468       0.05493055       3.02283890      -0.01752867      -1.68258420
I        6.97889422       4.76864659       8.54977133       0.18889355      -0.07167782       0.03223368      -1.25792681       2.35118169      -0.11392706
I       13.55133995      23.77393279       8.87746853      -0.29083055      -0.03167601       0.00130368      -0.00473668       1.30574052      -1.85394552
I       17.11968136       8.53360712       2.96968772       0.07164217      -0.07840428       0.15915028       0.87731493      -0.01603557      -0.01921451
I       10.71287667       2.15599625       3.26274285      -0.05990575       0.03683018       0.01163530       0.74742081      -1.90727395       0.08543719
I        3.57594918       2.04357784      14.91734544      -0.02946945       0.17307314       0.09347080       0.14592945       0.11655197      -3.23319905
I        9.48262088       8.36817095      15.03486333       0.01145751       0.12308311      -0.04566660      -0.77713986      -0.16085361       0.93079892
I        7.13606658       4.75604679      16.53092561       0.11061515      -0.01917988      -0.19151142      -3.02319549      -0.01785069       0.20540785
I       13.36800539      23.75026143      16.20762990      -0.08278015       0.06030962      -0.11870978       0.46121938      -2.27540609       0.41160864
I       13.43027317       5.75738430       2.45083256      -0.14874436       0.06140267      -0.04227950       0.25896675      -0.04038165      -0.89404247
I        6.88054751      12.48401939       2.50850992       0.16010093      -0.08283613      -0.02641253       1.01026816      -1.97605299       1.10676804
I        3.17855606      11.35012149      12.35585047       0.00712480      -0.14913495       0.00951543      -0.95860417       0.42728907      -2.18211861
I        9.93991213       4.74361747      12.35875641      -0.01272773       0.06119030       0.01336478       0.83648121       0.50833405      -0.38725093
I       16.61012746      24.86553658       6.00717221       0.06358661      -0.01909309       0.19638869      -0.56016907      -0.41381907       0.00433585
I       10.78798394       5.92989281       6.01505157       0.06761175       0.02557703      -0.02063798       1.54045308      -0.28859652       1.55766682
I        3.45715039       5.13498280       6.10052606      -0.08678566       0.00857982      -0.02408102       0.24280597      -1.23775976       0.65115017
I        9.67693786      11.17049034       6.11992577       0.04957583       0.07362179      -0.36380720      -0.52120292       0.39907312      -0.79992629
I       17.39471622       5.77922692      12.39675213      -0.11079634      -0.19031137      -0.17310549      -2.99699944      -1.70309476      -0.31145777
I       10.65930016      25.02463622      12.48985069      -0.05254436      -0.15630225       0.19380555      -1.76871543       1.69652864      -0.32461893
Cs      14.11878041       8.36456904      18.65928059      -0.00494340      -0.10442448      -0.00783564      -0.19965354      -0.83154060       1.27624446
Cs       7.28391091       1.35558248      18.52771046       0.05480071       0.15964492       0.16611830      -0.33667080       1.38095239      -0.39296684
Cs       6.86184481       2.21548607      25.02110118      -0.03942881       0.07339510      -0.09053699       0.17431115       0.93521037      -1.05297794
Cs      12.19030155       8.79012519       0.02640198       0.16948446       0.08890274      -0.04599474       1.18069869       1.53264117      -1.96110470
Cs      13.39613068       2.35255172      25.08700052      -0.06859660       0.03676707      -0.07236512       0.27286253      -1.82690097       1.60492368
Cs       6.61962795       8.87746365      24.84586391       0.01448369       0.09713611       0.11201430      -0.80323247      -0.68366172       2.42282760
Cs       7.45802525       7.89597049      18.85786958      -0.03146228      -0.05697963      -0.12766994       0.42837938      -2.11079872       1.36767565
Cs      13.71340836       2.10160537      18.68730612      -0.00725632      -0.13026199      -0.03695263      -0.16822201       0.02378154       0.10282827
Pb       4.04300756      24.37366002      22.23985370       0.02878528      -0.00484263      -0.11533540      -1.27059766      -0.28529642       0.99362443
Pb      10.26466502       5.22979771      21.79421757      -0.04251636      -0.12727310       0.00736481       3.51687593       0.39039152      -0.77504261
Pb       3.87346505       5.43534225      21.88253983       0.20215831      -0.12417544       0.27181157       1.59162468      -0.68475827      -0.94709357
Pb      10.53577679      24.11943895      21.86095804      -0.18501120       0.22494963       0.11772977       2.16981578      -2.93732716      -1.36953534
Pb       3.90525677      24.14637627      15.80087475      -0.25273442       0.09424181      -0.08661911      -2.39202324      -1.13977620      -2.60333179
Pb      10.27689058       5.24822556      15.50604848      -0.21088507      -0.06082911       0.09870927      -3.80261530       1.24140091      -0.32419155
Pb       3.95924371       5.15025531      15.54565535       0.22326750       0.04653466      -0.12641622       2.92808540       0.02548212      -1.93790336
Pb      10.11626388      24.36152160      15.50946835       0.24426124      -0.10162125       0.19448092       0.35937868      -1.91588516      -3.63105452
I        3.32819955       2.12659121      22.26132594       0.03921827      -0.10062619      -0.01842930      -1.05711053       0.22187171       0.89035643
I        9.32136311       8.45813954      22.31048205       0.19214558      -0.13890945       0.02159480       1.63560641      -1.91810905      -0.05503899
I       17.44585646       8.29965036      21.25122812      -0.10026058       0.32064182       0.10026966       2.24142034      -2.06887353       0.80179771
I       11.19198527       2.07733233      21.64465126      -0.18003106       0.01986888      -0.11374820       0.52771145       2.23770139       0.92997938
I       13.45365993       6.07742103      22.40194881      -0.04540220      -0.04446602      -0.00777735       2.78077109       0.82867543      -0.65255026
I        7.15048992      12.23441764      22.14495066       0.14389930       0.00727468       0.05493055       3.02283890      -0.01752867      -1.68258420
I        7.06348428       4.61973722      21.25222447       0.18889355      -0.07167782       0.03223368      -1.25792681       2.35118169      -0.11392706
I       13.63593001      23.62502342      21.57992166      -0.29083055      -0.03167601       0.00130368      -0.00473668       1.30574052      -1.85394552
I       17.20427142       8.38469775      15.67214086       0.07164217      -0.07840428       0.15915028       0.87731493      -0.01603557      -0.01921451
I       10.79746673       2.00708688      15.96519599      -0.05990575       0.03683018       0.01163530       0.74742081      -1.90727395       0.08543719
I        3.49135912       2.19248721       2.21489230      -0.02946945       0.17307314       0.09347080       0.14592945       0.11655197      -3.23319905
I        9.39803082       8.51708032       2.33241019       0.01145751       0.12308311      -0.04566660      -0.77713986      -0.16085361       0.93079892
I        7.05147652       4.90495616       3.82847247       0.11061515      -0.01917988      -0.19151142      -3.02319549      -0.01785069       0.20540785
I       13.28341534      23.89917080       3.50517676      -0.08278015       0.06030962      -0.11870978       0.46121938      -2.27540609       0.41160864
I       13.51486323       5.60847493      15.15328570      -0.14874436       0.06140267      -0.04227950       0.25896675      -0.04038165      -0.89404247
I        6.96513757      12.33511002      15.21096306       0.16010093      -0.08283613      -0.02641253       1.01026816      -1.97605299       1.10676804
I        3.26314612      11.20121212      25.05830361       0.00712480      -0.14913495       0.00951543      -0.95860417       0.42728907      -2.18211861
I       10.02450219       4.59470810      25.06120955      -0.01272773       0.06119030       0.01336478       0.83648121       0.50833405      -0.38725093
I       16.69471752      24.71662721      18.70962534       0.06358661      -0.01909309       0.19638869      -0.56016907      -0.41381907       0.00433585
I       10.87257400       5.78098344      18.71750471       0.06761175       0.02557703      -0.02063798       1.54045308      -0.28859652       1.55766682
I        3.54174045       4.98607343      18.80297920      -0.08678566       0.00857982      -0.02408102       0.24280597      -1.23775976       0.65115017
I        9.76152792      11.02158097      18.82237891       0.04957583       0.07362179      -0.36380720      -0.52120292       0.39907312      -0.79992629
I       17.47930628       5.63031755      25.09920527      -0.11079634      -0.19031137      -0.17310549      -2.99699944      -1.70309476      -0.31145777
I       10.74389022      24.87572685      25.19230382      -0.05254436      -0.15630225       0.19380555      -1.76871543       1.69652864      -0.32461893
Cs      14.07296929      21.20167169       6.09477914      -0.00494340      -0.10442448      -0.00783564      -0.19965354      -0.83154060       1.27624446
Cs       7.23809979      14.19268513       5.96320901       0.05480071       0.15964492       0.16611830      -0.33667080       1.38095239      -0.39296684
Cs       6.81603369      15.05258872      12.45659973      -0.03942881       0.07339510      -0.09053699       0.17431115       0.93521037      -1.05297794
Cs      12.31367055      21.32940910      12.86680681       0.16948446       0.08890274      -0.04599474       1.18069869       1.53264117      -1.96110470
Cs      13.35031956      15.18965437      12.52249907      -0.06859660       0.03676707      -0.07236512       0.27286253      -1.82690097       1.60492368
Cs       6.57381683      21.71456630      12.28136246       0.01448369       0.09713611       0.11201430      -0.80323247      -0.68366172       2.42282760
Cs       7.41221413      20.73307314       6.29336813      -0.03146228      -0.05697963      -0.12766994       0.42837938      -2.11079872       1.36767565
Cs      13.66759724      14.93870802       6.12280467      -0.00725632      -0.13026199      -0.03695263      -0.16822201       0.02378154       0.10282827
Pb       3.91963856      11.83437610       9.39944887       0.02878528      -0.00484263      -0.11533540      -1.27059766      -0.28529642       0.99362443
Pb      10.21885390      18.06690036       9.22971612      -0.04251636      -0.12727310       0.00736481       3.51687593       0.39039152      -0.77504261
Pb       3.82765393      18.27244490       9.31803838       0.20215831      -0.12417544       0.27181157       1.59162468      -0.68475827      -0.94709357
Pb      10.41240779      11.58015503       9.02055321      -0.18501120       0.22494963       0.11772977       2.16981578      -2.93732716      -1.36953534
Pb       3.78188777      11.60709235       2.96046992      -0.25273442       0.09424181      -0.08661911      -2.39202324      -1.13977620      -2.60333179
Pb      10.23107946      18.08532821       2.94154703      -0.21088507      -0.06082911       0.09870927      -3.80261530       1.24140091      -0.32419155
Pb       3.91343259      17.98735796       2.98115390       0.22326750       0.04653466      -0.12641622       2.92808540       0.02548212      -1.93790336
Pb       9.99289488      11.82223768       2.66906352       0.24426124      -0.10162125       0.19448092       0.35937868      -1.91588516      -3.63105452
I        3.28238843      14.96369386       9.69682449       0.03921827      -0.10062619      -0.01842930      -1.05711053       0.22187171       0.89035643
I        9.27555199      21.29524219       9.74598060       0.19214558      -0.13890945       0.02159480       1.63560641      -1.91810905      -0.05503899
I       17.40004534      21.13675301       8.68672667      -0.10026058       0.32064182       0.10026966       2.24142034      -2.06887353       0.80179771
I       11.14617415      14.91443498       9.08014981      -0.18003106       0.01986888      -0.11374820       0.52771145       2.23770139       0.92997938
I       13.40784881      18.91452368       9.83744736      -0.04540220      -0.04446602      -0.00777735       2.78077109       0.82867543      -0.65255026
I        7.10467880      25.07152029       9.58044921       0.14389930       0.00727468       0.05493055       3.02283890      -0.01752867      -1.68258420
I        7.01767316      17.45683987       8.68772302       0.18889355      -0.07167782       0.03223368      -1.25792681       2.35118169      -0.11392706
I       13.51256101      11.08573950       8.73951683      -0.29083055      -0.03167601       0.00130368      -0.00473668       1.30574052      -1.85394552
I       17.15846030      21.22180040       3.10763941       0.07164217      -0.07840428       0.15915028       0.87731493      -0.01603557      -0.01921451
I       10.75165561      14.84418953       3.40069454      -0.05990575       0.03683018       0.01163530       0.74742081      -1.90727395       0.08543719
I        3.61472812      14.73177112      15.05529713      -0.02946945       0.17307314       0.09347080       0.14592945       0.11655197      -3.23319905
I        9.52139982      21.05636423      15.17281502       0.01145751       0.12308311      -0.04566660      -0.77713986      -0.16085361       0.93079892
I        7.17484552      17.44424007      16.66887730       0.11061515      -0.01917988      -0.19151142      -3.02319549      -0.01785069       0.20540785
I       13.32922645      11.06206814      16.06967820      -0.08278015       0.06030962      -0.11870978       0.46121938      -2.27540609       0.41160864
I       13.46905211      18.44557758       2.58878425      -0.14874436       0.06140267      -0.04227950       0.25896675      -0.04038165      -0.89404247
I        6.91932645      25.17221267       2.64646161       0.16010093      -0.08283613      -0.02641253       1.01026816      -1.97605299       1.10676804
I        3.21733500      24.03831477      12.49380216       0.00712480      -0.14913495       0.00951543      -0.95860417       0.42728907      -2.18211861
I        9.97869107      17.43181075      12.49670810      -0.01272773       0.06119030       0.01336478       0.83648121       0.50833405      -0.38725093
I       16.57134852      12.17734329       5.86922051       0.06358661      -0.01909309       0.19638869      -0.56016907      -0.41381907       0.00433585
I       10.82676288      18.61808609       6.15300326       0.06761175       0.02557703      -0.02063798       1.54045308      -0.28859652       1.55766682
I        3.49592933      17.82317608       6.23847775      -0.08678566       0.00857982      -0.02408102       0.24280597      -1.23775976       0.65115017
I        9.71571680      23.85868362       6.25787746       0.04957583       0.07362179      -0.36380720      -0.52120292       0.39907312      -0.79992629
I       17.43349516      18.46742020      12.53470382      -0.11079634      -0.19031137      -0.17310549      -2.99699944      -1.70309476      -0.31145777
I       10.62052122      12.33644293      12.35189899      -0.05254436      -0.15630225       0.19380555      -1.76871543       1.69652864      -0.32461893
Cs      14.15755935      21.05276232      18.79723228      -0.00494340      -0.10442448      -0.00783564      -0.19965354      -0.83154060       1.27624446
Cs       7.32268985      14.04377576      18.66566215       0.05480071       0.15964492       0.16611830      -0.33667080       1.38095239      -0.39296684
Cs       6.90062375      14.90367935      25.15905287      -0.03942881       0.07339510      -0.09053699       0.17431115       0.93521037      -1.05297794
Cs      12.22908050      21.47831848       0.16435368       0.16948446       0.08890274      -0.04599474       1.18069869       1.53264117      -1.96110470
Cs      13.43490962      15.04074500      25.22495221      -0.06859660       0.03676707      -0.07236512       0.27286253      -1.82690097       1.60492368
Cs       6.65840689      21.56565693      24.98381560       0.01448369       0.09713611       0.11201430      -0.80323247      -0.68366172       2.42282760
Cs       7.49680419      20.58416377      18.99582127      -0.03146228      -0.05697963      -0.12766994       0.42837938      -2.11079872       1.36767565
Cs      13.75218730      14.78979865      18.82525781      -0.00725632      -0.13026199      -0.03695263      -0.16822201       0.02378154       0.10282827
Pb       4.00422862      11.68546673      22.10190201       0.02878528      -0.00484263      -0.11533540      -1.27059766      -0.28529642       0.99362443
Pb      10.30344396      17.91799099      21.93216926      -0.04251636      -0.12727310       0.00736481       3.51687593       0.39039152      -0.77504261
Pb       3.91224399      18.12353553      22.02049152       0.20215831      -0.12417544       0.27181157       1.59162468      -0.68475827      -0.94709357
Pb      10.49699785      11.43124566      21.72300635      -0.18501120       0.22494963       0.11772977       2.16981578      -2.93732716      -1.36953534
Pb       3.86647783      11.45818298      15.66292306      -0.25273442       0.09424181      -0.08661911      -2.39202324      -1.13977620      -2.60333179
Pb      10.31566952      17.93641884      15.64400017      -0.21088507      -0.06082911       0.09870927      -3.80261530       1.24140091      -0.32419155
Pb       3.99802265      17.83844859      15.68360704       0.22326750       0.04653466      -0.12641622       2.92808540       0.02548212      -1.93790336
Pb      10.07748494      11.67332831      15.37151666       0.24426124      -0.10162125       0.19448092       0.35937868      -1.91588516      -3.63105452
I        3.36697849      14.81478449      22.39927763       0.03921827      -0.10062619      -0.01842930      -1.05711053       0.22187171       0.89035643
I        9.36014205      21.14633282      22.44843374       0.19214558      -0.13890945       0.02159480       1.63560641      -1.91810905      -0.05503899
I       17.48463540      20.98784364      21.38917981      -0.10026058       0.32064182       0.10026966       2.24142034      -2.06887353       0.80179771
I       11.23076421      14.76552561      21.78260295      -0.18003106       0.01986888      -0.11374820       0.52771145       2.23770139       0.92997938
I       13.49243887      18.76561431      22.53990050      -0.04540220      -0.04446602      -0.00777735       2.78077109       0.82867543      -0.65255026
I        7.18926886      24.92261092      22.28290235       0.14389930       0.00727468       0.05493055       3.02283890      -0.01752867      -1.68258420
I        7.10226322      17.30793050      21.39017616       0.18889355      -0.07167782       0.03223368      -1.25792681       2.35118169      -0.11392706
I       13.59715107      10.93683013      21.44196997      -0.29083055      -0.03167601       0.00130368      -0.00473668       1.30574052      -1.85394552
I       17.24305036      21.07289103      15.81009255       0.07164217      -0.07840428       0.15915028       0.87731493      -0.01603557      -0.01921451
I       10.83624567      14.69528016      16.10314768      -0.05990575       0.03683018       0.01163530       0.74742081      -1.90727395       0.08543719
I        3.53013807      14.88068050       2.35284400      -0.02946945       0.17307314       0.09347080       0.14592945       0.11655197      -3.23319905
I        9.43680977      21.20527361       2.47036189       0.01145751       0.12308311      -0.04566660      -0.77713986      -0.16085361       0.93079892
I        7.09025547      17.59314945       3.96642417       0.11061515      -0.01917988      -0.19151142      -3.02319549      -0.01785069       0.20540785
I       13.24463640      11.21097752       3.36722507      -0.08278015       0.06030962      -0.11870978       0.46121938      -2.27540609       0.41160864
I       13.55364217      18.29666821      15.29123739      -0.14874436       0.06140267      -0.04227950       0.25896675      -0.04038165      -0.89404247
I        7.00391651      25.02330330      15.34891475       0.16010093      -0.08283613      -0.02641253       1.01026816      -1.97605299       1.10676804
I        3.30192506      23.88940540      25.19625530       0.00712480      -0.14913495       0.00951543      -0.95860417       0.42728907      -2.18211861
I       10.06328113      17.28290138      25.19916124      -0.01272773       0.06119030       0.01336478       0.83648121       0.50833405      -0.38725093
I       16.65593858      12.02843392      18.57167365       0.06358661      -0.01909309       0.19638869      -0.56016907      -0.41381907       0.00433585
I       10.91135294      18.46917672      18.85545640       0.06761175       0.02557703      -0.02063798       1.54045308      -0.28859652       1.55766682
I        3.58051939      17.67426671      18.94093089      -0.08678566       0.00857982      -0.02408102       0.24280597      -1.23775976       0.65115017
I        9.80030686      23.70977425      18.96033060       0.04957583       0.07362179      -0.36380720      -0.52120292       0.39907312      -0.79992629
I       17.51808522      18.31851083      25.23715696      -0.11079634      -0.19031137      -0.17310549      -2.99699944      -1.70309476      -0.31145777
I       10.70511128      12.18753356      25.05435213      -0.05254436      -0.15630225       0.19380555      -1.76871543       1.69652864      -0.32461893
Cs       1.35614366       8.56675291       6.05276584      -0.00494340      -0.10442448      -0.00783564      -0.19965354      -0.83154060       1.27624446
Cs      19.87736754       1.45121735       5.72931893       0.05480071       0.15964492       0.16611830      -0.33667080       1.38095239      -0.39296684
Cs      19.45530144       2.31112094      12.22270965      -0.03942881       0.07339510      -0.09053699       0.17431115       0.93521037      -1.05297794
Cs      24.95293830       8.58794132      12.63291673       0.16948446       0.08890274      -0.04599474       1.18069869       1.53264117      -1.96110470
Cs       0.63349393       2.55473559      12.48048577      -0.06859660       0.03676707      -0.07236512       0.27286253      -1.82690097       1.60492368
Cs      19.21308458       8.97309852      12.04747238       0.01448369       0.09713611       0.11201430      -0.80323247      -0.68366172       2.42282760
Cs      20.05148188       7.99160536       6.05947805      -0.03146228      -0.05697963      -0.12766994       0.42837938      -2.11079872       1.36767565
Cs       0.95077161       2.30378924       6.08079137      -0.00725632      -0.13026199      -0.03695263      -0.16822201       0.02378154       0.10282827
Pb      16.63646419      24.46929488       9.44146218       0.02878528      -0.00484263      -0.11533540      -1.27059766      -0.28529642       0.99362443
Pb      22.85812165       5.32543258       8.99582604      -0.04251636      -0.12727310       0.00736481       3.51687593       0.39039152      -0.77504261
Pb      16.46692168       5.53097712       9.08414830       0.20215831      -0.12417544       0.27181157       1.59162468      -0.68475827      -0.94709357
Pb      23.12923342      24.21507381       9.06256652      -0.18501120       0.22494963       0.11772977       2.16981578      -2.93732716      -1.36953534
Pb      16.49871340      24.24201113       3.00248323      -0.25273442       0.09424181      -0.08661911      -2.39202324      -1.13977620      -2.60333179
Pb      22.87034721       5.34386043       2.70765695      -0.21088507      -0.06082911       0.09870927      -3.80261530       1.24140091      -0.32419155
Pb      16.55270034       5.24589018       2.74726382       0.22326750       0.04653466      -0.12641622       2.92808540       0.02548212      -1.93790336
Pb      22.70972051      24.45715646       2.71107683       0.24426124      -0.10162125       0.19448092       0.35937868      -1.91588516      -3.63105452
I       15.92165618       2.22222608       9.46293441       0.03921827      -0.10062619      -0.01842930      -1.05711053       0.22187171       0.89035643
I       21.91481974       8.55377441       9.51209052       0.19214558      -0.13890945       0.02159480       1.63560641      -1.91810905      -0.05503899
I        4.68321971       8.50183423       8.64471337      -0.10026058       0.32064182       0.10026966       2.24142034      -2.06887353       0.80179771
I       23.78544190       2.17296720       8.84625973      -0.18003106       0.01986888      -0.11374820       0.52771145       2.23770139       0.92997938
I        0.69102318       6.27960490       9.79543406      -0.04540220      -0.04446602      -0.00777735       2.78077109       0.82867543      -0.65255026
I       19.74394655      12.33005251       9.34655913       0.14389930       0.00727468       0.05493055       3.02283890      -0.01752867      -1.68258420
I       19.65694091       4.71537209       8.45383294       0.18889355      -0.07167782       0.03223368      -1.25792681       2.35118169      -0.11392706
I        0.87329327      23.82720729       8.97340692      -0.29083055      -0.03167601       0.00130368      -0.00473668       1.30574052      -1.85394552
I        4.44163467       8.58688162       3.06562611       0.07164217      -0.07840428       0.15915028       0.87731493      -0.01603557      -0.01921451
I       23.39092336       2.10272175       3.16680446      -0.05990575       0.03683018       0.01163530       0.74742081      -1.90727395       0.08543719
I       16.25399587       1.99030334      14.82140705      -0.02946945       0.17307314       0.09347080       0.14592945       0.11655197      -3.23319905
I       22.16066757       8.31489645      14.93892494       0.01145751       0.12308311      -0.04566660      -0.77713986      -0.16085361       0.93079892
I       19.81411327       4.70277229      16.43498722       0.11061515      -0.01917988      -0.19151142      -3.02319549      -0.01785069       0.20540785
I        0.68995871      23.80353593      16.30356829      -0.08278015       0.06030962      -0.11870978       0.46121938      -2.27540609       0.41160864