320
Lattice="25.356093371687486 -0.1065490082268892 -0.19187677835240669 0.07755788227136919 25.376386568457004 0.27590338859444424 0.1691801122122475 -0.29781874292918886 25.404906270035514" Properties=species:S:1:pos:R:3:forces:R:3:momenta:R:3 pbc="T T T"
Cs      13.41979755      10.61140953       5.54040157       0.01091466      -0.04083464       0.12501932       0.08960767      -0.04180666       1.27607803
Cs       7.15135031       4.16950707       5.98694169      -0.06927700       0.08128928      -0.03955900      -0.97787738       0.50750212       0.44603365
Cs       6.03021761       4.62419338      12.23124291       0.00390925      -0.02173922      -0.06200790       0.02553250       0.49489015       2.80177650
Cs      12.53238268      10.85189493      12.13910127      -0.02634901       0.06305538      -0.00387112       0.32118311       0.94409437       0.66680097
Cs      12.54706078       5.03293828      11.82555958       0.08846710      -0.13695664       0.12536703      -0.26556786      -1.48946890       0.41392604
Cs       6.10259247      10.94460681      12.31167849      -0.00599361       0.06286850      -0.03912386       1.02701617       1.73805675       2.13217556
Cs       7.00075307      10.48533372       5.82295197      -0.01115872      -0.04254158       0.04004190      -1.14110104      -1.73418172      -0.33743933
Cs      12.97097692       3.94765112       5.71440269       0.05426573       0.00578957       0.01562593      -0.63864034       0.13961548       1.63874046
Pb       3.29524214       1.05084633       8.74986790      -0.09180257      -0.01478139       0.16944698      -2.30510762       0.26371435      -2.79528203
Pb       9.72892793       7.60544860       9.14392301       0.06546478       0.06212207      -0.21714986      -0.37469497      -0.34032433      -0.72963708
Pb       3.31839340       7.39956262       8.90180318      -0.05843815       0.20653636      -0.25241733       1.98942459       0.51509249       0.05421363
Pb       9.63008939       1.20204294       9.19541693       0.10775351      -0.10568850      -0.14679781       2.06076297      -2.70869369      -1.43972822
Pb       3.28215360       1.48657334       2.49509914      -0.03508458       0.14204499      -0.09412059      -0.14864569      -0.76111178       0.06678570
Pb       9.77158596       7.89407213       2.68529291      -0.32371934      -0.36075441       0.20069350       0.69907399       0.92273888       0.22492865
Pb       3.36148750       7.97005960       2.52060248       0.27966621      -0.32065417       0.43340148      -0.54901301       2.10754851      -1.36562839
Pb       9.59271718       1.32313211       2.76012166       0.08015391       0.24510015      -0.22771500      -1.55562364       1.09765560       1.68728505
I        2.79248499       4.48542727       9.36379175      -0.00406621      -0.36357340      -0.00920958       0.33502971      -0.24715157       1.89598140
I        8.93892726      10.64117178       9.58376634       0.04382730      -0.00844339      -0.01018427       0.45790482       0.40925790       1.41011569
I       16.44855300      10.61976498       8.08595874       0.08685892       0.25260847       0.15134654       1.17812358      -0.48867517       0.18384712
I       10.30658015       4.24630438       8.72394490      -0.00649178       0.24065100      -0.03375753       0.83650749      -0.25076489       1.11221546
I       13.01994265       8.43590988       9.24250154      -0.29310270      -0.15502358       0.08070195       0.18446936       1.57779204       1.10016223
I        6.47684835      14.36359762       9.44985855       0.08852993       0.04818134       0.08005660       0.85433946       1.88746392      -1.13197534
I        6.59066575       7.27718000       8.62354794       0.12779793      -0.14610115      -0.06434606       1.02021173      -0.45545864      -0.37041563
I       12.81097380       0.40179047       8.61207799      -0.05166596       0.06381230      -0.12833020      -1.48492956      -0.10611881      -0.55475831
I       16.67306618      11.09628600       3.15431158      -0.01575623      -0.13249496      -0.07532588       1.80222522       0.06725039       0.63027300
I       10.17971074       4.60833824       2.96758961      -0.03740458      -0.12946930      -0.02525636      -1.33241106       1.93929657       0.53291342
I        3.11494959       4.69903518      14.69278555      -0.14992346      -0.26024274      -0.01684365      -0.12406236       0.36217132      -1.38514608
I        9.12226854      10.77876750      14.94390513       0.01826646       0.00445657      -0.03042243      -0.38405688       0.78438322       0.80049824
I        6.66892216       7.07295266      16.04968412      -0.07094424       0.10083233      -0.09578995      -2.18410869       1.20311271       1.46987046
I       12.88558972       0.76632679      15.77378866      -0.06334296       0.00226429      -0.07643679      -0.94303195       1.98958855       0.45949893
I       12.85280581       8.12909778       2.05000799       0.03166947       0.15544239      -0.02146114       0.16251020       0.34327746       1.29614299
I        6.43041108      14.59069871       2.21751114       0.18941701      -0.03390436       0.00513122      -0.93553139       0.24556570       0.08504815
I        2.87516812      13.30706143      12.14033094       0.12356753       0.04425601       0.11805922       1.29619542      -1.05414348      -0.24760547
I        9.23388228       6.98549029      12.15445870       0.02251518       0.08089929       0.17003455       0.99726599       1.67615813      -1.31938538
I       16.45950887       1.74815449       5.61019751      -0.04368126       0.10652831      -0.06567505       1.37568022       0.57309995       4.18462069
I       10.33250442       8.15068384       5.88731539      -0.09648896      -0.04259430      -0.13030318      -1.25425448       2.78655328       1.60622666
I        2.78846282       7.20620354       5.81959878      -0.01326518      -0.00714307       0.09050674      -1.57814952       0.77633751      -1.09813261
I        9.46592322      13.62245461       5.80265831      -0.07480087      -0.03440272       0.11454189       1.45050504       1.76819885      -0.27778171
I       16.36887243       7.75321220      12.20986638       0.11877851       0.20832252      -0.34524161       0.18721611       1.93660948       0.31243266
I       10.34627648       1.33151372      11.98284912       0.00093396       0.18028238       0.29137129       2.09414240       2.09702773      -0.07531499
Cs      13.50438761      10.46250016      18.24285471       0.01091466      -0.04083464       0.12501932       0.08960767      -0.04180666       1.27607803
Cs       7.23594037       4.02059770      18.68939483      -0.06927700       0.08128928      -0.03955900      -0.97787738       0.50750212       0.44603365
Cs       6.11480767       4.47528401      24.93369605       0.00390925      -0.02173922      -0.06200790       0.02553250       0.49489015       2.80177650
Cs      12.61697274      10.70298556      24.84155441      -0.02634901       0.06305538      -0.00387112       0.32118311       0.94409437       0.66680097
Cs      12.63165084       4.88402891      24.52801272       0.08846710      -0.13695664       0.12536703      -0.26556786      -1.48946890       0.41392604
Cs       6.18718253      10.79569744      25.01413163      -0.00599361       0.06286850      -0.03912386       1.02701617       1.73805675       2.13217556
Cs       7.08534313      10.33642435      18.52540511      -0.01115872      -0.04254158       0.04004190      -1.14110104      -1.73418172      -0.33743933
Cs      13.05556698       3.79874175      18.41685583       0.05426573       0.00578957       0.01562593      -0.63864034       0.13961548       1.63874046
Pb       3.37983220       0.90193696      21.45232104      -0.09180257      -0.01478139       0.16944698      -2.30510762       0.26371435      -2.79528203
Pb       9.81351799       7.45653923      21.84637615       0.06546478       0.06212207      -0.21714986      -0.37469497      -0.34032433      -0.72963708
Pb       3.40298346       7.25065325      21.60425632      -0.05843815       0.20653636      -0.25241733       1.98942459       0.51509249       0.05421363
Pb       9.71467945       1.05313357      21.89787007       0.10775351      -0.10568850      -0.14679781       2.06076297      -2.70869369      -1.43972822
Pb       3.36674366       1.33766397      15.19755228      -0.03508458       0.14204499      -0.09412059      -0.14864569      -0.76111178       0.06678570
Pb       9.85617602       7.74516276      15.38774605      -0.32371934      -0.36075441       0.20069350       0.69907399       0.92273888       0.22492865
Pb       3.44607756       7.82115023      15.22305562       0.27966621      -0.32065417       0.43340148      -0.54901301       2.10754851      -1.36562839
Pb       9.67730724       1.17422274      15.46257480       0.08015391       0.24510015      -0.22771500      -1.55562364       1.09765560       1.68728505
I        2.87707505       4.33651790      22.06624489      -0.00406621      -0.36357340      -0.00920958       0.33502971      -0.24715157       1.89598140
I        9.02351732      10.49226241      22.28621948       0.04382730      -0.00844339      -0.01018427       0.45790482       0.40925790       1.41011569
I       16.53314306      10.47085561      20.78841188       0.08685892       0.25260847       0.15134654       1.17812358      -0.48867517       0.18384712
I       10.39117021       4.09739501      21.42639804      -0.00649178       0.24065100      -0.03375753       0.83650749      -0.25076489       1.11221546
I       13.10453271       8.28700051      21.94495468      -0.29310270      -0.15502358       0.08070195       0.18446936       1.57779204       1.10016223
I        6.56143841      14.21468825      22.15231169       0.08852993       0.04818134       0.08005660       0.85433946       1.88746392      -1.13197534
I        6.67525581       7.12827063      21.32600108       0.12779793      -0.14610115      -0.06434606       1.02021173      -0.45545864      -0.37041563
I       12.89556386       0.25288110      21.31453113      -0.05166596       0.06381230      -0.12833020      -1.48492956      -0.10611881      -0.55475831
I       16.75765624      10.94737663      15.85676472      -0.01575623      -0.13249496      -0.07532588       1.80222522       0.06725039       0.63027300
I       10.26430080       4.45942887      15.67004275      -0.03740458      -0.12946930      -0.02525636      -1.33241106       1.93929657       0.53291342
I        3.03035953       4.84794455       1.99033241      -0.14992346      -0.26024274      -0.01684365      -0.12406236       0.36217132      -1.38514608
I        9.03767848      10.92767687       2.24145199       0.01826646       0.00445657      -0.03042243      -0.38405688       0.78438322       0.80049824
I        6.58433210       7.22186203       3.34723098      -0.07094424       0.10083233      -0.09578995      -2.18410869       1.20311271       1.46987046
I       12.80099966       0.91523616       3.07133552      -0.06334296       0.00226429      -0.07643679      -0.94303195       1.98958855       0.45949893
I       12.93739587       7.98018841      14.75246113       0.03166947       0.15544239      -0.02146114       0.16251020       0.34327746       1.29614299
I        6.51500114      14.44178934      14.91996428       0.18941701      -0.03390436       0.00513122      -0.93553139       0.24556570       0.08504815
I        2.95975818      13.15815206      24.84278408       0.12356753       0.04425601       0.11805922       1.29619542      -1.05414348      -0.24760547
I        9.31847234       6.83658092      24.85691184       0.02251518       0.08089929       0.17003455       0.99726599       1.67615813      -1.31938538
I       16.54409893       1.59924512      18.31265065      -0.04368126       0.10652831      -0.06567505       1.37568022       0.57309995       4.18462069
I       10.41709448       8.00177447      18.58976853      -0.09648896      -0.04259430      -0.13030318      -1.25425448       2.78655328       1.60622666
I        2.87305288       7.05729417      18.52205192      -0.01326518      -0.00714307       0.09050674      -1.57814952       0.77633751      -1.09813261
I        9.55051328      13.47354524      18.50511145      -0.07480087      -0.03440272       0.11454189       1.45050504       1.76819885      -0.27778171
I       16.45346249       7.60430283      24.91231952       0.11877851       0.20832252      -0.34524161       0.18721611       1.93660948       0.31243266
I       10.43086654       1.18260435      24.68530226       0.00093396       0.18028238       0.29137129       2.09414240       2.09702773      -0.07531499
Cs      13.45857649      23.29960281       5.67835326       0.01091466      -0.04083464       0.12501932       0.08960767      -0.04180666       1.27607803
Cs       7.19012925      16.85770035       6.12489338      -0.06927700       0.08128928      -0.03955900      -0.97787738       0.50750212       0.44603365
Cs       6.06899655      17.31238666      12.36919460       0.00390925      -0.02173922      -0.06200790       0.02553250       0.49489015       2.80177650
Cs      12.57116162      23.54008821      12.27705296      -0.02634901       0.06305538      -0.00387112       0.32118311       0.94409437       0.66680097
Cs      12.58583972      17.72113156      11.96351127       0.08846710      -0.13695664       0.12536703      -0.26556786      -1.48946890       0.41392604
Cs       6.14137141      23.63280009      12.44963018      -0.00599361       0.06286850      -0.03912386       1.02701617       1.73805675       2.13217556
Cs       7.03953201      23.17352700       5.96090366      -0.01115872      -0.04254158       0.04004190      -1.14110104      -1.73418172      -0.33743933
Cs      13.00975586      16.63584440       5.85235438       0.05426573       0.00578957       0.01562593      -0.63864034       0.13961548       1.63874046
Pb       3.33402108      13.73903961       8.88781959      -0.09180257      -0.01478139       0.16944698      -2.30510762       0.26371435      -2.79528203
Pb       9.76770687      20.29364188       9.28187470       0.06546478       0.06212207      -0.21714986      -0.37469497      -0.34032433      -0.72963708
Pb       3.35717234      20.08775590       9.03975487      -0.05843815       0.20653636      -0.25241733       1.98942459       0.51509249       0.05421363
Pb       9.66886833      13.89023622       9.33336862       0.10775351      -0.10568850      -0.14679781       2.06076297      -2.70869369      -1.43972822
Pb       3.32093254      14.17476662       2.63305083      -0.03508458       0.14204499      -0.09412059      -0.14864569      -0.76111178       0.06678570
Pb       9.81036490      20.58226541       2.82324460      -0.32371934      -0.36075441       0.20069350       0.69907399       0.92273888       0.22492865
Pb       3.40026644      20.65825288       2.65855417       0.27966621      -0.32065417       0.43340148      -0.54901301       2.10754851      -1.36562839
Pb       9.63149612      14.01132539       2.89807335       0.08015391       0.24510015      -0.22771500      -1.55562364       1.09765560       1.68728505
I        2.83126393      17.17362055       9.50174344      -0.00406621      -0.36357340      -0.00920958       0.33502971      -0.24715157       1.89598140
I        8.97770620      23.32936506       9.72171803       0.04382730      -0.00844339      -0.01018427       0.45790482       0.40925790       1.41011569
I       16.48733194      23.30795826       8.22391043       0.08685892       0.25260847       0.15134654       1.17812358      -0.48867517       0.18384712
I       10.34535909      16.93449766       8.86189659      -0.00649178       0.24065100      -0.03375753       0.83650749      -0.25076489       1.11221546
I       13.05872159      21.12410316       9.38045323      -0.29310270      -0.15502358       0.08070195       0.18446936       1.57779204       1.10016223
I        6.43806941       1.67540434       9.31190686       0.08852993       0.04818134       0.08005660       0.85433946       1.88746392      -1.13197534
I        6.62944469      19.96537328       8.76149963       0.12779793      -0.14610115      -0.06434606       1.02021173      -0.45545864      -0.37041563
I       12.84975274      13.08998375       8.75002968      -0.05166596       0.06381230      -0.12833020      -1.48492956      -0.10611881      -0.55475831
I       16.71184512      23.78447928       3.29226327      -0.01575623      -0.13249496      -0.07532588       1.80222522       0.06725039       0.63027300
I       10.21848968      17.29653152       3.10554130      -0.03740458      -0.12946930      -0.02525636      -1.33241106       1.93929657       0.53291342
I        3.15372853      17.38722846      14.83073724      -0.14992346      -0.26024274      -0.01684365      -0.12406236       0.36217132      -1.38514608
I        9.16104748      23.46696078      15.08185682       0.01826646       0.00445657      -0.03042243      -0.38405688       0.78438322       0.80049824
I        6.70770110      19.76114594      16.18763581      -0.07094424       0.10083233      -0.09578995      -2.18410869       1.20311271       1.46987046
I       12.92436866      13.45452007      15.91174035      -0.06334296       0.00226429      -0.07643679      -0.94303195       1.98958855       0.45949893
I       12.89158475      20.81729106       2.18795968       0.03166947       0.15544239      -0.02146114       0.16251020       0.34327746       1.29614299
I        6.39163214       1.90250543       2.07955945       0.18941701      -0.03390436       0.00513122      -0.93553139       0.24556570       0.08504815
I        2.83638918       0.61886815      12.00237925       0.12356753       0.04425601       0.11805922       1.29619542      -1.05414348      -0.24760547
I        9.27266122      19.67368357      12.29241039       0.02251518       0.08089929       0.17003455       0.99726599       1.67615813      -1.31938538
I       16.49828781      14.43634777       5.74814920      -0.04368126       0.10652831      -0.06567505       1.37568022       0.57309995       4.18462069
I       10.37128336      20.83887712       6.02526708      -0.09648896      -0.04259430      -0.13030318      -1.25425448       2.78655328       1.60622666
I        2.82724176      19.89439682       5.95755047      -0.01326518      -0.00714307       0.09050674      -1.57814952       0.77633751      -1.09813261
I        9.42714428       0.93426133       5.66470662      -0.07480087      -0.03440272       0.11454189       1.45050504       1.76819885      -0.27778171
I       16.40765137      20.44140548      12.34781807       0.11877851       0.20832252      -0.34524161       0.18721611       1.93660948       0.31243266
I       10.38505542      14.01970700      12.12080081       0.00093396       0.18028238       0.29137129       2.09414240       2.09702773      -0.07531499
Cs      13.54316655      23.15069344      18.38080640       0.01091466      -0.04083464       0.12501932       0.08960767      -0.04180666       1.27607803
Cs       7.27471931      16.70879098      18.82734652      -0.06927700       0.08128928      -0.03955900      -0.97787738       0.50750212       0.44603365
Cs       6.15358661      17.16347729      25.07164774       0.00390925      -0.02173922      -0.06200790       0.02553250       0.49489015       2.80177650
Cs      12.65575168      23.39117884      24.97950610      -0.02634901       0.06305538      -0.00387112       0.32118311       0.94409437       0.66680097
Cs      12.67042978      17.57222219      24.66596441       0.08846710      -0.13695664       0.12536703      -0.26556786      -1.48946890       0.41392604
Cs       6.22596147      23.48389072      25.15208332      -0.00599361       0.06286850      -0.03912386       1.02701617       1.73805675       2.13217556
Cs       7.12412207      23.02461763      18.66335680      -0.01115872      -0.04254158       0.04004190      -1.14110104      -1.73418172      -0.33743933
Cs      13.09434592      16.48693503      18.55480752       0.05426573       0.00578957       0.01562593      -0.63864034       0.13961548       1.63874046
Pb       3.41861114      13.59013024      21.59027273      -0.09180257      -0.01478139       0.16944698      -2.30510762       0.26371435      -2.79528203
Pb       9.85229693      20.14473251      21.98432784       0.06546478       0.06212207      -0.21714986      -0.37469497      -0.34032433      -0.72963708
Pb       3.44176240      19.93884653      21.74220801      -0.05843815       0.20653636      -0.25241733       1.98942459       0.51509249       0.05421363
Pb       9.75345839      13.74132685      22.03582176       0.10775351      -0.10568850      -0.14679781       2.06076297      -2.70869369      -1.43972822
Pb       3.40552260      14.02585725      15.33550397      -0.03508458       0.14204499      -0.09412059      -0.14864569      -0.76111178       0.06678570
Pb       9.89495496      20.43335604      15.52569774      -0.32371934      -0.36075441       0.20069350       0.69907399       0.92273888       0.22492865
Pb       3.48485650      20.50934351      15.36100731       0.27966621      -0.32065417       0.43340148      -0.54901301       2.10754851      -1.36562839
Pb       9.71608618      13.86241602      15.60052649       0.08015391       0.24510015      -0.22771500      -1.55562364       1.09765560       1.68728505
I        2.91585399      17.02471118      22.20419658      -0.00406621      -0.36357340      -0.00920958       0.33502971      -0.24715157       1.89598140
I        9.06229626      23.18045569      22.42417117       0.04382730      -0.00844339      -0.01018427       0.45790482       0.40925790       1.41011569
I       16.57192200      23.15904889      20.92636357       0.08685892       0.25260847       0.15134654       1.17812358      -0.48867517       0.18384712
I       10.42994915      16.78558829      21.56434973      -0.00649178       0.24065100      -0.03375753       0.83650749      -0.25076489       1.11221546
I       13.14331165      20.97519379      22.08290637      -0.29310270      -0.15502358       0.08070195       0.18446936       1.57779204       1.10016223
I        6.52265946       1.52649496      22.01435999       0.08852993       0.04818134       0.08005660       0.85433946       1.88746392      -1.13197534
I        6.71403475      19.81646391      21.46395277       0.12779793      -0.14610115      -0.06434606       1.02021173      -0.45545864      -0.37041563
I       12.93434280      12.94107438      21.45248282      -0.05166596       0.06381230      -0.12833020      -1.48492956      -0.10611881      -0.55475831
I       16.79643518      23.63556991      15.99471641      -0.01575623      -0.13249496      -0.07532588       1.80222522       0.06725039       0.63027300
I       10.30307974      17.14762215      15.80799444      -0.03740458      -0.12946930      -0.02525636      -1.33241106       1.93929657       0.53291342
I        3.06913848      17.53613784       2.12828411      -0.14992346      -0.26024274      -0.01684365      -0.12406236       0.36217132      -1.38514608
I        9.07645743      23.61587016       2.37940369       0.01826646       0.00445657      -0.03042243      -0.38405688       0.78438322       0.80049824
I        6.62311105      19.91005532       3.48518268      -0.07094424       0.10083233      -0.09578995      -2.18410869       1.20311271       1.46987046
I       12.83977861      13.60342945       3.20928722      -0.06334296       0.00226429      -0.07643679      -0.94303195       1.98958855       0.45949893
I       12.97617481      20.66838169      14.89041282       0.03166947       0.15544239      -0.02146114       0.16251020       0.34327746       1.29614299
I        6.47622219       1.75359605      14.78201258       0.18941701      -0.03390436       0.00513122      -0.93553139       0.24556570       0.08504815
I        2.92097923       0.46995877      24.70483238       0.12356753       0.04425601       0.11805922       1.29619542      -1.05414348      -0.24760547
I        9.35725128      19.52477420      24.99486353       0.02251518       0.08089929       0.17003455       0.99726599       1.67615813      -1.31938538
I       16.58287787      14.28743840      18.45060234      -0.04368126       0.10652831      -0.06567505       1.37568022       0.57309995       4.18462069
I       10.45587342      20.68996775      18.72772022      -0.09648896      -0.04259430      -0.13030318      -1.25425448       2.78655328       1.60622666
I        2.91183182      19.74548745      18.66000361      -0.01326518      -0.00714307       0.09050674      -1.57814952       0.77633751      -1.09813261
I        9.51173433       0.78535195      18.36715975      -0.07480087      -0.03440272       0.11454189       1.45050504       1.76819885      -0.27778171
I       16.49224143      20.29249611      25.05027121       0.11877851       0.20832252      -0.34524161       0.18721611       1.93660948       0.31243266
I       10.46964548      13.87079763      24.82325395       0.00093396       0.18028238       0.29137129       2.09414240       2.09702773      -0.07531499
Cs       0.74175086      10.66468403       5.63633996       0.01091466      -0.04083464       0.12501932       0.08960767      -0.04180666       1.27607803
Cs      19.82939700       4.11623257       5.89100330      -0.06927700       0.08128928      -0.03955900      -0.97787738       0.50750212       0.44603365
Cs      18.70826430       4.57091888      12.13530452       0.00390925      -0.02173922      -0.06200790       0.02553250       0.49489015       2.80177650
Cs      25.21042937      10.79862043      12.04316288      -0.02634901       0.06305538      -0.00387112       0.32118311       0.94409437       0.66680097
Cs      25.22510747       4.97966378      11.72962119       0.08846710      -0.13695664       0.12536703      -0.26556786      -1.48946890       0.41392604
Cs      18.78063916      10.89133231      12.21574010      -0.00599361       0.06286850      -0.03912386       1.02701617       1.73805675       2.13217556
Cs      19.67879976      10.43205922       5.72701358      -0.01115872      -0.04254158       0.04004190      -1.14110104      -1.73418172      -0.33743933
Cs       0.29293023       4.00092562       5.81034108       0.05426573       0.00578957       0.01562593      -0.63864034       0.13961548       1.63874046
Pb      15.97328883       0.99757183       8.65392951      -0.09180257      -0.01478139       0.16944698      -2.30510762       0.26371435      -2.79528203
Pb      22.40697462       7.55217410       9.04798462       0.06546478       0.06212207      -0.21714986      -0.37469497      -0.34032433      -0.72963708
Pb      15.99644009       7.34628812       8.80586479      -0.05843815       0.20653636      -0.25241733       1.98942459       0.51509249       0.05421363
Pb      22.30813608       1.14876844       9.09947854       0.10775351      -0.10568850      -0.14679781       2.06076297      -2.70869369      -1.43972822
Pb      15.96020029       1.43329884       2.39916075      -0.03508458       0.14204499      -0.09412059      -0.14864569      -0.76111178       0.06678570
Pb      22.44963265       7.84079763       2.58935452      -0.32371934      -0.36075441       0.20069350       0.69907399       0.92273888       0.22492865
Pb      16.03953419       7.91678510       2.42466409       0.27966621      -0.32065417       0.43340148      -0.54901301       2.10754851      -1.36562839
Pb      22.27076387       1.26985761       2.66418327       0.08015391       0.24510015      -0.22771500      -1.55562364       1.09765560       1.68728505
I       15.47053168       4.43215277       9.26785336      -0.00406621      -0.36357340      -0.00920958       0.33502971      -0.24715157       1.89598140
I       21.61697395      10.58789728       9.48782795       0.04382730      -0.00844339      -0.01018427       0.45790482       0.40925790       1.41011569
I        3.77050631      10.67303948       8.18189713       0.08685892       0.25260847       0.15134654       1.17812358      -0.48867517       0.18384712
I       22.98462684       4.19302988       8.62800651      -0.00649178       0.24065100      -0.03375753       0.83650749      -0.25076489       1.11221546
I        0.34189596       8.48918438       9.33843993      -0.29310270      -0.15502358       0.08070195       0.18446936       1.57779204       1.10016223
I       19.15489504      14.31032312       9.35392016       0.08852993       0.04818134       0.08005660       0.85433946       1.88746392      -1.13197534
I       19.26871244       7.22390550       8.52760955       0.12779793      -0.14610115      -0.06434606       1.02021173      -0.45545864      -0.37041563
I        0.13292711       0.45506497       8.70801638      -0.05166596       0.06381230      -0.12833020      -1.48492956      -0.10611881      -0.55475831
I        3.99501949      11.14956050       3.25024997      -0.01575623      -0.13249496      -0.07532588       1.80222522       0.06725039       0.63027300
I       22.85775743       4.55506374       2.87165122      -0.03740458      -0.12946930      -0.02525636      -1.33241106       1.93929657       0.53291342
I       15.79299628       4.64576068      14.59684716      -0.14992346      -0.26024274      -0.01684365      -0.12406236       0.36217132      -1.38514608
I       21.80031523      10.72549300      14.84796674       0.01826646       0.00445657      -0.03042243      -0.38405688       0.78438322       0.80049824
I       19.34696885       7.01967816      15.95374573      -0.07094424       0.10083233      -0.09578995      -2.18410869       1.20311271       1.46987046
I        0.20754303       0.81960129      15.86972705      -0.06334296       0.00226429      -0.07643679      -0.94303195       1.98958855       0.45949893