320
Lattice="31.705123562890115 0.00098397742904671 0.8597404125717283 0.019921660697184568 29.971723771014627 -2.6265873698904523 -0.4087198441794399 1.5773423540450537 17.106165182112967" Properties=species:S:1:pos:R:3:forces:R:3:momenta:R:3 pbc="T T T"
Cs       1.50035253       2.48360452       4.50729459       0.00301819       0.00510955       0.03140604      -0.39423357      -0.15389775       1.58565217
Cs       4.59405137       4.29336033       8.51574296       0.03455910       0.07634936       0.04560150      -0.56569151       0.75104116      -1.17784641
Cs       1.55582940       8.71757947      -0.27413523      -0.04720287      -0.00365346      -0.02723548      -0.02587933       0.59349625      -0.72662007
Cs       4.64116409      12.06875852       4.31136464       0.15413580       0.11880691      -0.13402826       1.06818133       1.71444562      -2.02126055
Cs       9.22209973       2.38861238       5.20000994      -0.06323655      -0.01903790      -0.05570364       0.35186394      -2.04727610       1.67702780
Cs      12.79685689       4.79509024       8.93260813       0.00760809       0.03686111       0.05801419      -0.93550747      -1.51982582       1.65744869
Cs       9.35995225       9.22931551      -0.02081142      -0.03433270      -0.08416403      -0.05814247       0.91460599      -1.83939351       2.12619553
Cs      12.63741184      12.70154715       4.24953398       0.02123087      -0.11704950       0.00010481      -0.04049124       0.04614560       0.61231096
Pb       2.67334373      14.89233230       8.04674130       0.28050936      -0.07499583       0.04883770      -0.73079701      -1.78014029       0.97472783
Pb       6.78741741      14.85645364       8.15503537      -0.51982610      -0.01974339       0.17149593       3.23491219      -0.55327612       0.03033409
Pb       3.53289265       7.08389934       3.88320259       0.06287849      -0.00480797       0.27693703       1.77514025      -0.46448444      -0.43159563
Pb      31.28896812       7.19354301       4.91355366      -0.32711423      -0.02590998       0.19001670      -0.25802355      -3.74352365      -1.55927074
Pb      10.57121963      15.10202374       8.35274356       0.08374428      -0.03782470       0.17705183      -2.56269361      -1.81799649      -0.74336376
Pb      14.67681430      15.05517943       8.34863124      -0.27324417       0.01263765       0.26870444      -1.92796715       0.41361929       0.72990159
Pb      11.36969557       7.00057496       4.48552202       0.00747355       0.15970243      -0.10688207       1.76458142       1.90630019      -2.42477404
Pb       7.35560007       7.11465359       4.13444408       0.40027686      -0.06646168       0.17077028      -0.15141399      -0.96197298      -2.84430425
I        4.68564931       0.93780432       2.68822857       0.05195700      -0.04169933      -0.02818354      -0.64702222       0.90377806       1.98187359
I        1.28077229       5.78038869       1.83516005       0.29342658      -0.20865060      -0.08496641       2.85709069      -0.82520695      -1.10060921
I        4.79245009      30.48333833       4.24099793      -0.12820624       0.15077041       0.14124083       1.97981341      -1.74993950       1.40361226
I        1.87626382       5.90143677       6.41904199      -0.16511494       0.09750536      -0.28270697      -0.04427459       1.30739040      -1.84848396
I        5.43028174       4.59017259       4.75634130       0.06946853      -0.14901137      -0.03445480       3.27588598       1.51638513      -1.25833164
I        0.80770266       2.47598489       8.44377237      -0.12527516       0.09305235       0.10265669       0.59568809       0.04566595      -1.31294978
I        5.45268611       9.01574696       5.86785050      -0.06174627      -0.16132724      -0.14972380      -1.39821220       1.45228621      -1.49552735
I        0.70762388      13.12647738       6.26672769      -0.24728325      -0.11124172      -0.13217354       0.38431438       1.49816182      -1.76688458
I        5.68485385       7.30382175       1.39233916       0.01058726       0.13036431      -0.03735136       0.51482309       0.83671826      -0.95955876
I        0.77245820      13.57974611       2.00188713      -0.03441617       0.10685700      -0.10538122       0.90112065      -0.60822913      -1.06300671
I        4.52372827      12.30740020       8.67296011       0.02939873       0.17206982       0.01039402       0.21228535       0.00917788      -3.34325533
I        1.63023178       9.66052762       3.74883464       0.01459661       0.16394008      -0.06150929      -0.33822109      -0.72984131       0.54037196
I       12.51528881       0.99756148       3.17733284       0.24358776      -0.18687947      -0.28836735      -0.58630924      -1.66560677      -1.30865829
I        9.60174605       5.20062967       2.48098936      -0.05988455       0.12942866       0.06917834      -0.41276838      -2.11984194       1.02746068
I       12.58201362       1.15008483       7.32857941      -0.04141931      -0.00241753       0.09193583       0.36883004       0.18660153      -0.10237480
I        9.30641878       6.18168040       6.82876169      -0.00406864       0.05546852      -0.22734979       0.47283316      -1.55689595       0.99986449
I       13.55967793       4.60221320       5.04764176       0.01629746       0.00809962      -0.00369501      -0.59369937       0.38771956      -1.22743290
I        8.42599174       2.54277819       9.11094444       0.00127238       0.07303552      -0.06789846       0.87113015       1.21335109      -0.21334774
I       13.28543836       8.92557062       6.16528578       0.10621049       0.16746414       0.35060916      -0.84660673       0.74026846      -0.52081791
I        8.63769006      13.25641383       6.33260140       0.11329410      -0.07410968      -0.08533215       1.62319978       0.76256432       1.49876179
I       13.58253997       7.86806636       2.07876370      -0.03413378      -0.08669589      -0.03795226       0.59683562      -2.32718831       0.27052862
I        8.65334190      13.47500351       2.21974572       0.07465846       0.00796006      -0.06176611      -0.72488391       0.22311713       0.05544226
I       12.45825376      12.60674875       8.95458395       0.06300993       0.02005372      -0.10732230      -1.74144606      -0.25296646       1.08260469
I        9.49732446       9.69958271       3.97122107       0.02330504      -0.30985530      -0.02682901      -1.78456854      -0.62550400      -0.96549032
Cs       1.29599261       3.27227570      13.06037718       0.00301819       0.00510955       0.03140604      -0.39423357      -0.15389775       1.58565217
Cs       4.79841129       3.50468915      -0.03733963       0.03455910       0.07634936       0.04560150      -0.56569151       0.75104116      -1.17784641
Cs       1.35146948       9.50625065       8.27894736      -0.04720287      -0.00365346      -0.02723548      -0.02587933       0.59349625      -0.72662007
Cs       4.43680417      12.85742970      12.86444723       0.15413580       0.11880691      -0.13402826       1.06818133       1.71444562      -2.02126055
Cs       9.01773981       3.17728356      13.75309253      -0.06323655      -0.01903790      -0.05570364       0.35186394      -2.04727610       1.67702780
Cs      13.00121681       4.00641906       0.37952554       0.00760809       0.03686111       0.05801419      -0.93550747      -1.51982582       1.65744869
Cs       9.15559233      10.01798669       8.53227117      -0.03433270      -0.08416403      -0.05814247       0.91460599      -1.83939351       2.12619553
Cs      12.43305192      13.49021833      12.80261657       0.02123087      -0.11704950       0.00010481      -0.04049124       0.04614560       0.61231096
Pb       2.87770365      14.10366112      -0.50634129       0.28050936      -0.07499583       0.04883770      -0.73079701      -1.78014029       0.97472783
Pb       6.99177733      14.06778246      -0.39804722      -0.51982610      -0.01974339       0.17149593       3.23491219      -0.55327612       0.03033409
Pb       3.32853273       7.87257052      12.43628518       0.06287849      -0.00480797       0.27693703       1.77514025      -0.46448444      -0.43159563
Pb      31.08460820       7.98221418      13.46663625      -0.32711423      -0.02590998       0.19001670      -0.25802355      -3.74352365      -1.55927074
Pb      10.77557955      14.31335256      -0.20033903       0.08374428      -0.03782470       0.17705183      -2.56269361      -1.81799649      -0.74336376
Pb      14.88117422      14.26650825      -0.20445135      -0.27324417       0.01263765       0.26870444      -1.92796715       0.41361929       0.72990159
Pb      11.16533565       7.78924614      13.03860461       0.00747355       0.15970243      -0.10688207       1.76458142       1.90630019      -2.42477404
Pb       7.15124015       7.90332477      12.68752667       0.40027686      -0.06646168       0.17077028      -0.15141399      -0.96197298      -2.84430425
I        4.48128939       1.72647550      11.24131116       0.05195700      -0.04169933      -0.02818354      -0.64702222       0.90377806       1.98187359
I        1.07641237       6.56905987      10.38824264       0.29342658      -0.20865060      -0.08496641       2.85709069      -0.82520695      -1.10060921
I        4.58809017      31.27200951      12.79408052      -0.12820624       0.15077041       0.14124083       1.97981341      -1.74993950       1.40361226
I        1.67190390       6.69010795      14.97212458      -0.16511494       0.09750536      -0.28270697      -0.04427459       1.30739040      -1.84848396
I        5.22592182       5.37884377      13.30942389       0.06946853      -0.14901137      -0.03445480       3.27588598       1.51638513      -1.25833164
I        1.01206258       1.68731371      -0.10931022      -0.12527516       0.09305235       0.10265669       0.59568809       0.04566595      -1.31294978
I        5.24832619       9.80441814      14.42093309      -0.06174627      -0.16132724      -0.14972380      -1.39821220       1.45228621      -1.49552735
I        0.50326396      13.91514856      14.81981028      -0.24728325      -0.11124172      -0.13217354       0.38431438       1.49816182      -1.76688458
I        5.48049393       8.09249293       9.94542175       0.01058726       0.13036431      -0.03735136       0.51482309       0.83671826      -0.95955876
I        0.56809828      14.36841729      10.55496972      -0.03441617       0.10685700      -0.10538122       0.90112065      -0.60822913      -1.06300671
I        4.72808819      11.51872902       0.11987752       0.02939873       0.17206982       0.01039402       0.21228535       0.00917788      -3.34325533
I        1.42587186      10.44919880      12.30191723       0.01459661       0.16394008      -0.06150929      -0.33822109      -0.72984131       0.54037196
I       12.31092889       1.78623266      11.73041543       0.24358776      -0.18687947      -0.28836735      -0.58630924      -1.66560677      -1.30865829
I        9.39738613       5.98930085      11.03407195      -0.05988455       0.12942866       0.06917834      -0.41276838      -2.11984194       1.02746068
I       12.37765370       1.93875601      15.88166200      -0.04141931      -0.00241753       0.09193583       0.36883004       0.18660153      -0.10237480
I        9.10205886       6.97035158      15.38184428      -0.00406864       0.05546852      -0.22734979       0.47283316      -1.55689595       0.99986449
I       13.35531801       5.39088438      13.60072435       0.01629746       0.00809962      -0.00369501      -0.59369937       0.38771956      -1.22743290
I        8.63035166       1.75410701       0.55786185       0.00127238       0.07303552      -0.06789846       0.87113015       1.21335109      -0.21334774
I       13.08107844       9.71424180      14.71836837       0.10621049       0.16746414       0.35060916      -0.84660673       0.74026846      -0.52081791
I        8.43333014      14.04508501      14.88568399       0.11329410      -0.07410968      -0.08533215       1.62319978       0.76256432       1.49876179
I       13.37818005       8.65673754      10.63184629      -0.03413378      -0.08669589      -0.03795226       0.59683562      -2.32718831       0.27052862
I        8.44898198      14.26367469      10.77282831       0.07465846       0.00796006      -0.06176611      -0.72488391       0.22311713       0.05544226
I       12.66261368      11.81807757       0.40150136       0.06300993       0.02005372      -0.10732230      -1.74144606      -0.25296646       1.08260469
I        9.29296454      10.48825389      12.52430366       0.02330504      -0.30985530      -0.02682901      -1.78456854      -0.62550400      -0.96549032
Cs       1.51031336      17.46946641       3.19400091       0.00301819       0.00510955       0.03140604      -0.39423357      -0.15389775       1.58565217
Cs       4.60401220      19.27922222       7.20244928       0.03455910       0.07634936       0.04560150      -0.56569151       0.75104116      -1.17784641
Cs       1.56579023      23.70344136      -1.58742891      -0.04720287      -0.00365346      -0.02723548      -0.02587933       0.59349625      -0.72662007
Cs       4.65112492      27.05462041       2.99807096       0.15413580       0.11880691      -0.13402826       1.06818133       1.71444562      -2.02126055
Cs       9.23206056      17.37447427       3.88671626      -0.06323655      -0.01903790      -0.05570364       0.35186394      -2.04727610       1.67702780
Cs      12.80681772      19.78095213       7.61931445       0.00760809       0.03686111       0.05801419      -0.93550747      -1.51982582       1.65744869
Cs       9.36991308      24.21517740      -1.33410510      -0.03433270      -0.08416403      -0.05814247       0.91460599      -1.83939351       2.12619553
Cs      12.64737267      27.68740904       2.93624030       0.02123087      -0.11704950       0.00010481      -0.04049124       0.04614560       0.61231096
Pb       2.68330456      29.87819419       6.73344762       0.28050936      -0.07499583       0.04883770      -0.73079701      -1.78014029       0.97472783
Pb       6.79737824      29.84231553       6.84174169      -0.51982610      -0.01974339       0.17149593       3.23491219      -0.55327612       0.03033409
Pb       3.54285348      22.06976123       2.56990891       0.06287849      -0.00480797       0.27693703       1.77514025      -0.46448444      -0.43159563
Pb      31.29892895      22.17940489       3.60025998      -0.32711423      -0.02590998       0.19001670      -0.25802355      -3.74352365      -1.55927074
Pb      10.58118046      30.08788563       7.03944988       0.08374428      -0.03782470       0.17705183      -2.56269361      -1.81799649      -0.74336376
Pb      14.68677513      30.04104132       7.03533756      -0.27324417       0.01263765       0.26870444      -1.92796715       0.41361929       0.72990159
Pb      11.37965640      21.98643685       3.17222834       0.00747355       0.15970243      -0.10688207       1.76458142       1.90630019      -2.42477404
Pb       7.36556090      22.10051548       2.82115040       0.40027686      -0.06646168       0.17077028      -0.15141399      -0.96197298      -2.84430425
I        4.69561014      15.92366621       1.37493489       0.05195700      -0.04169933      -0.02818354      -0.64702222       0.90377806       1.98187359
I        1.29073312      20.76625058       0.52186637       0.29342658      -0.20865060      -0.08496641       2.85709069      -0.82520695      -1.10060921
I        4.78248926      15.49747645       5.55429162      -0.12820624       0.15077041       0.14124083       1.97981341      -1.74993950       1.40361226
I        1.88622465      20.88729866       5.10574831      -0.16511494       0.09750536      -0.28270697      -0.04427459       1.30739040      -1.84848396
I        5.44024257      19.57603448       3.44304762       0.06946853      -0.14901137      -0.03445480       3.27588598       1.51638513      -1.25833164
I        0.81766349      17.46184678       7.13047869      -0.12527516       0.09305235       0.10265669       0.59568809       0.04566595      -1.31294978
I        5.46264694      24.00160885       4.55455682      -0.06174627      -0.16132724      -0.14972380      -1.39821220       1.45228621      -1.49552735
I        0.71758471      28.11233927       4.95343401      -0.24728325      -0.11124172      -0.13217354       0.38431438       1.49816182      -1.76688458
I        5.69481468      22.28968364       0.07904548       0.01058726       0.13036431      -0.03735136       0.51482309       0.83671826      -0.95955876
I        0.78241903      28.56560800       0.68859345      -0.03441617       0.10685700      -0.10538122       0.90112065      -0.60822913      -1.06300671
I        4.53368910      27.29326209       7.35966643       0.02939873       0.17206982       0.01039402       0.21228535       0.00917788      -3.34325533
I        1.64019261      24.64638951       2.43554096       0.01459661       0.16394008      -0.06150929      -0.33822109      -0.72984131       0.54037196
I       12.52524964      15.98342337       1.86403916       0.24358776      -0.18687947      -0.28836735      -0.58630924      -1.66560677      -1.30865829
I        9.61170688      20.18649156       1.16769568      -0.05988455       0.12942866       0.06917834      -0.41276838      -2.11984194       1.02746068
I       12.59197445      16.13594672       6.01528573      -0.04141931      -0.00241753       0.09193583       0.36883004       0.18660153      -0.10237480
I        9.31637961      21.16754229       5.51546801      -0.00406864       0.05546852      -0.22734979       0.47283316      -1.55689595       0.99986449
I       13.56963876      19.58807509       3.73434808       0.01629746       0.00809962      -0.00369501      -0.59369937       0.38771956      -1.22743290
I        8.43595257      17.52864008       7.79765076       0.00127238       0.07303552      -0.06789846       0.87113015       1.21335109      -0.21334774
I       13.29539919      23.91143251       4.85199210       0.10621049       0.16746414       0.35060916      -0.84660673       0.74026846      -0.52081791
I        8.64765089      28.24227572       5.01930772       0.11329410      -0.07410968      -0.08533215       1.62319978       0.76256432       1.49876179
I       13.59250080      22.85392825       0.76547002      -0.03413378      -0.08669589      -0.03795226       0.59683562      -2.32718831       0.27052862
I        8.66330273      28.46086540       0.90645204       0.07465846       0.00796006      -0.06176611      -0.72488391       0.22311713       0.05544226
I       12.46821459      27.59261064       7.64129027       0.06300993       0.02005372      -0.10732230      -1.74144606      -0.25296646       1.08260469
I        9.50728529      24.68544460       2.65792739       0.02330504      -0.30985530      -0.02682901      -1.78456854      -0.62550400      -0.96549032
Cs       1.30595344      18.25813758      11.74708350       0.00301819       0.00510955       0.03140604      -0.39423357      -0.15389775       1.58565217
Cs       4.80837212      18.49055104      -1.35063332       0.03455910       0.07634936       0.04560150      -0.56569151       0.75104116      -1.17784641
Cs       1.36143031      24.49211253       6.96565368      -0.04720287      -0.00365346      -0.02723548      -0.02587933       0.59349625      -0.72662007
Cs       4.44676500      27.84329158      11.55115355       0.15413580       0.11880691      -0.13402826       1.06818133       1.71444562      -2.02126055
Cs       9.02770064      18.16314544      12.43979885      -0.06323655      -0.01903790      -0.05570364       0.35186394      -2.04727610       1.67702780
Cs      13.01117764      18.99228095      -0.93376815       0.00760809       0.03686111       0.05801419      -0.93550747      -1.51982582       1.65744869
Cs       9.16555316      25.00384857       7.21897749      -0.03433270      -0.08416403      -0.05814247       0.91460599      -1.83939351       2.12619553
Cs      12.44301275      28.47608021      11.48932289       0.02123087      -0.11704950       0.00010481      -0.04049124       0.04614560       0.61231096
Pb       2.88766448      29.08952301      -1.81963498       0.28050936      -0.07499583       0.04883770      -0.73079701      -1.78014029       0.97472783
Pb       7.00173816      29.05364435      -1.71134091      -0.51982610      -0.01974339       0.17149593       3.23491219      -0.55327612       0.03033409
Pb       3.33849356      22.85843240      11.12299150       0.06287849      -0.00480797       0.27693703       1.77514025      -0.46448444      -0.43159563
Pb      31.09456903      22.96807607      12.15334257      -0.32711423      -0.02590998       0.19001670      -0.25802355      -3.74352365      -1.55927074
Pb      10.78554038      29.29921445      -1.51363272       0.08374428      -0.03782470       0.17705183      -2.56269361      -1.81799649      -0.74336376
Pb      14.89113505      29.25237014      -1.51774504      -0.27324417       0.01263765       0.26870444      -1.92796715       0.41361929       0.72990159
Pb      11.17529648      22.77510802      11.72531093       0.00747355       0.15970243      -0.10688207       1.76458142       1.90630019      -2.42477404
Pb       7.16120098      22.88918665      11.37423299       0.40027686      -0.06646168       0.17077028      -0.15141399      -0.96197298      -2.84430425
I        4.49125022      16.71233738       9.92801748       0.05195700      -0.04169933      -0.02818354      -0.64702222       0.90377806       1.98187359
I        1.08637320      21.55492175       9.07494896       0.29342658      -0.20865060      -0.08496641       2.85709069      -0.82520695      -1.10060921
I        4.57812934      16.28614762      14.10737421      -0.12820624       0.15077041       0.14124083       1.97981341      -1.74993950       1.40361226
I        1.68186473      21.67596983      13.65883090      -0.16511494       0.09750536      -0.28270697      -0.04427459       1.30739040      -1.84848396
I        5.23588265      20.36470565      11.99613021       0.06946853      -0.14901137      -0.03445480       3.27588598       1.51638513      -1.25833164
I        1.02202341      16.67317560      -1.42260391      -0.12527516       0.09305235       0.10265669       0.59568809       0.04566595      -1.31294978
I        5.25828702      24.79028002      13.10763941      -0.06174627      -0.16132724      -0.14972380      -1.39821220       1.45228621      -1.49552735
I        0.51322479      28.90101044      13.50651660      -0.24728325      -0.11124172      -0.13217354       0.38431438       1.49816182      -1.76688458
I        5.49045476      23.07835481       8.63212807       0.01058726       0.13036431      -0.03735136       0.51482309       0.83671826      -0.95955876
I        0.57805911      29.35427917       9.24167604      -0.03441617       0.10685700      -0.10538122       0.90112065      -0.60822913      -1.06300671
I        4.73804902      26.50459091      -1.19341617       0.02939873       0.17206982       0.01039402       0.21228535       0.00917788      -3.34325533
I        1.43583269      25.43506068      10.98862355       0.01459661       0.16394008      -0.06150929      -0.33822109      -0.72984131       0.54037196
I       12.32088972      16.77209454      10.41712175       0.24358776      -0.18687947      -0.28836735      -0.58630924      -1.66560677      -1.30865829
I        9.40734696      20.97516273       9.72077827      -0.05988455       0.12942866       0.06917834      -0.41276838      -2.11984194       1.02746068
I       12.38761453      16.92461789      14.56836832      -0.04141931      -0.00241753       0.09193583       0.36883004       0.18660153      -0.10237480
I        9.11201969      21.95621346      14.06855060      -0.00406864       0.05546852      -0.22734979       0.47283316      -1.55689595       0.99986449
I       13.36527884      20.37674626      12.28743067       0.01629746       0.00809962      -0.00369501      -0.59369937       0.38771956      -1.22743290
I        8.64031249      16.73996890      -0.75543184       0.00127238       0.07303552      -0.06789846       0.87113015       1.21335109      -0.21334774
I       13.09103927      24.70010368      13.40507469       0.10621049       0.16746414       0.35060916      -0.84660673       0.74026846      -0.52081791
I        8.44329097      29.03094689      13.57239031       0.11329410      -0.07410968      -0.08533215       1.62319978       0.76256432       1.49876179
I       13.38814088      23.64259942       9.31855261      -0.03413378      -0.08669589      -0.03795226       0.59683562      -2.32718831       0.27052862
I        8.45894281      29.24953657       9.45953463       0.07465846       0.00796006      -0.06176611      -0.72488391       0.22311713       0.05544226
I       12.67257451      26.80393946      -0.91179233       0.06300993       0.02005372      -0.10732230      -1.74144606      -0.25296646       1.08260469
I        9.30292537      25.47411577      11.21100998       0.02330504      -0.30985530      -0.02682901      -1.78456854      -0.62550400      -0.96549032
Cs      17.35291431       2.48409651       4.93716480       0.00301819       0.00510955       0.03140604      -0.39423357      -0.15389775       1.58565217
Cs      20.44661315       4.29385232       8.94561317       0.03455910       0.07634936       0.04560150      -0.56569151       0.75104116      -1.17784641
Cs      17.40839118       8.71807146       0.15573498      -0.04720287      -0.00365346      -0.02723548      -0.02587933       0.59349625      -0.72662007
Cs      20.49372587      12.06925051       4.74123485       0.15413580       0.11880691      -0.13402826       1.06818133       1.71444562      -2.02126055
Cs      25.07466151       2.38910437       5.62988015      -0.06323655      -0.01903790      -0.05570364       0.35186394      -2.04727610       1.67702780
Cs      28.64941867       4.79558223       9.36247834       0.00760809       0.03686111       0.05801419      -0.93550747      -1.51982582       1.65744869
Cs      25.21251403       9.22980750       0.40905879      -0.03433270      -0.08416403      -0.05814247       0.91460599      -1.83939351       2.12619553
Cs      28.48997362      12.70203914       4.67940419       0.02123087      -0.11704950       0.00010481      -0.04049124       0.04614560       0.61231096
Pb      18.52590551      14.89282429       8.47661151       0.28050936      -0.07499583       0.04883770      -0.73079701      -1.78014029       0.97472783
Pb      22.63997919      14.85694563       8.58490558      -0.51982610      -0.01974339       0.17149593       3.23491219      -0.55327612       0.03033409
Pb      19.38545443       7.08439133       4.31307280       0.06287849      -0.00480797       0.27693703       1.77514025      -0.46448444      -0.43159563
Pb      15.43640634       7.19305102       4.48368346      -0.32711423      -0.02590998       0.19001670      -0.25802355      -3.74352365      -1.55927074
Pb      26.42378141      15.10251573       8.78261377       0.08374428      -0.03782470       0.17705183      -2.56269361      -1.81799649      -0.74336376
Pb      30.52937608      15.05567142       8.77850145      -0.27324417       0.01263765       0.26870444      -1.92796715       0.41361929       0.72990159
Pb      27.22225735       7.00106695       4.91539223       0.00747355       0.15970243      -0.10688207       1.76458142       1.90630019      -2.42477404
Pb      23.20816185       7.11514558       4.56431429       0.40027686      -0.06646168       0.17077028      -0.15141399      -0.96197298      -2.84430425
I       20.53821109       0.93829631       3.11809878       0.05195700      -0.04169933      -0.02818354      -0.64702222       0.90377806       1.98187359
I       17.13333407       5.78088068       2.26503026       0.29342658      -0.20865060      -0.08496641       2.85709069      -0.82520695      -1.10060921
I       20.64501187      30.48383032       4.67086814      -0.12820624       0.15077041       0.14124083       1.97981341      -1.74993950       1.40361226
I       17.72882560       5.90192876       6.84891220      -0.16511494       0.09750536      -0.28270697      -0.04427459       1.30739040      -1.84848396
I       21.28284352       4.59066458       5.18621151       0.06946853      -0.14901137      -0.03445480       3.27588598       1.51638513      -1.25833164
I       16.66026444       2.47647688       8.87364258      -0.12527516       0.09305235       0.10265669       0.59568809       0.04566595      -1.31294978
I       21.30524789       9.01623895       6.29772071      -0.06174627      -0.16132724      -0.14972380      -1.39821220       1.45228621      -1.49552735
I       16.56018566      13.12696937       6.69659790      -0.24728325      -0.11124172      -0.13217354       0.38431438       1.49816182      -1.76688458
I       21.53741563       7.30431374       1.82220937       0.01058726       0.13036431      -0.03735136       0.51482309       0.83671826      -0.95955876
I       16.62501998      13.58023810       2.43175734      -0.03441617       0.10685700      -0.10538122       0.90112065      -0.60822913      -1.06300671
I       20.37629005      12.30789219       9.10283032       0.02939873       0.17206982       0.01039402       0.21228535       0.00917788      -3.34325533
I       17.48279356       9.66101961       4.17870485       0.01459661       0.16394008      -0.06150929      -0.33822109      -0.72984131       0.54037196
I       28.36785059       0.99805347       3.60720305       0.24358776      -0.18687947      -0.28836735      -0.58630924      -1.66560677      -1.30865829
I       25.45430783       5.20112166       2.91085957      -0.05988455       0.12942866       0.06917834      -0.41276838      -2.11984194       1.02746068