320
Lattice="25.356093371687486 -0.1065490082268892 -0.19187677835240669 0.07755788227136919 25.376386568457004 0.27590338859444424 0.1691801122122475 -0.29781874292918886 25.404906270035514" Properties=species:S:1:pos:R:3:forces:R:3:momenta:R:3 pbc="T T T"
Cs      13.40863084      10.61373237       5.53013946       0.01073076      -0.04041016       0.12452770       0.08871549      -0.04342120       1.27469162
Cs       7.13979298       4.17218387       5.97597832      -0.06928986       0.08135514      -0.03977249      -0.97641531       0.50827414       0.44379962
Cs       6.01961214       4.62696646      12.21991287       0.00421077      -0.02146456      -0.06199576       0.02768983       0.49609886       2.80114664
Cs      12.52120235      10.85484382      12.12864503      -0.02619168       0.06300375      -0.00398660       0.32143312       0.94371499       0.66714765
Cs      12.53617003       5.03535299      11.81414087       0.08833394      -0.13637332       0.12581016      -0.26818352      -1.48379673       0.41592914
Cs       6.09144079      10.94770156      12.30030553      -0.00573628       0.06292021      -0.03889616       1.02834433       1.74028719       2.13142175
Cs       6.98911255      10.48837314       5.81221849      -0.01112498      -0.04280334       0.03982887      -1.14149182      -1.73508213      -0.33896925
Cs      12.96015576       3.95072433       5.70308625       0.05391300       0.00590027       0.01553345      -0.64117837       0.14162206       1.63695905
Pb       3.28404738       1.05379627       8.73890217      -0.09206235      -0.01530968       0.16839451      -2.30503820       0.26131980      -2.79827027
Pb       9.71741000       7.60827705       9.13270060       0.06589466       0.06206969      -0.21751083      -0.36963649      -0.33906900      -0.72979277
Pb       3.30729852       7.40288980       8.89204184      -0.05815585       0.20812282      -0.25346774       1.98599415       0.52475311       0.04387245
Pb       9.61847140       1.20449679       9.18272665       0.10786575      -0.10554834      -0.14756697       2.05235114      -2.71132894      -1.46684819
Pb       3.27052726       1.48881612       2.48384348      -0.03464603       0.14196711      -0.09297167      -0.14620779      -0.75990872       0.06581783
Pb       9.76043225       7.89693463       2.67425169      -0.32404167      -0.36085879       0.20100879       0.70054423       0.92027649       0.22438044
Pb       3.34985274       7.97209840       2.51064205       0.27974085      -0.31943160       0.43499612      -0.55424855       2.11437579      -1.35394946
Pb       9.58118133       1.32626431       2.74818306       0.08057339       0.24560529      -0.23027937      -1.55240545       1.10004003       1.67998997
I        2.78141061       4.48817066       9.35240606      -0.00451847      -0.36410037      -0.00879674       0.33349914      -0.25409091       1.89770597
I        8.92836375      10.64430450       9.57278400       0.04375445      -0.00805315      -0.01015118       0.45817469       0.41309478       1.41091645
I       16.43754244      10.62272231       8.07513095       0.08721435       0.25259731       0.15099235       1.18092810      -0.48442811       0.18069185
I       10.29548044       4.24951054       8.71269418      -0.00677612       0.23998989      -0.03400613       0.83589660      -0.25188088       1.11072257
I       13.00911308       8.43887563       9.23125754      -0.29322411      -0.15532326       0.08085842       0.18195417       1.57538103       1.09974369
I        6.46529548      14.36664301       9.43867892       0.08932047       0.04805246       0.08000964       0.85701992       1.88688064      -1.13079268
I        6.57979633       7.28000295       8.61225724       0.12713548      -0.14603710      -0.06434995       1.01596241      -0.45689733      -0.37105865
I       12.79967544       0.40476145       8.60066687      -0.05219617       0.06396378      -0.12824302      -1.48622562      -0.10429739      -0.55503192
I       16.66241278      11.09916676       3.14279459      -0.01613904      -0.13360591      -0.07552167       1.79999528       0.06272241       0.62606040
I       10.16853316       4.61145766       2.95606517      -0.03721555      -0.12868592      -0.02452273      -1.33112816       1.94051849       0.53681956
I        3.10359350       4.70166170      14.68223029      -0.15021636      -0.26008171      -0.01614012      -0.12257210       0.35599274      -1.37832899
I        9.11069849      10.78226054      14.93292507       0.01815851       0.00350121      -0.03045341      -0.38509187       0.78484279       0.79945822
I        6.65774350       7.07545790      16.03892082      -0.07098079       0.10116595      -0.09613048      -2.18243142       1.20420820       1.46859513
I       12.87434935       0.76927971      15.76239266      -0.06308632       0.00172742      -0.07599704      -0.94104787       1.98871614       0.45962591
I       12.84162447       8.13209722       2.03879755       0.03198507       0.15495350      -0.02130376       0.16334437       0.34007986       1.29634835
I        6.41914056      14.59386229       2.20647079       0.18918470      -0.03378586       0.00527550      -0.93900829       0.24700413       0.08662219
I        2.86434711      13.31058927      12.12940073       0.12320569       0.04389206       0.11802714       1.29642329      -1.05808060      -0.24594348
I        9.22236967       6.98907655      12.14352667       0.02281400       0.08059104       0.16976506       0.99944721       1.67323390      -1.31751447
I       16.44824772       1.75066863       5.59933158      -0.04363644       0.10656546      -0.06594975       1.37569637       0.57404274       4.18926992
I       10.32130181       8.15390487       5.87608957      -0.09660135      -0.04238403      -0.12998043      -1.25419274       2.78657585       1.60551012
I        2.77710773       7.20912739       5.80773168      -0.01304303      -0.00740033       0.09060183      -1.57524075       0.77598893      -1.09114031
I        9.45459416      13.62541786       5.79210782      -0.07515320      -0.03484416       0.11902174       1.44768026       1.76550938      -0.26249543
I       16.35797600       7.75614198      12.19739262       0.11896413       0.20832762      -0.34578368       0.18978199       1.93771174       0.30710780
I       10.33537475       1.33436835      11.97402567       0.00103568       0.18022963       0.28912642       2.09898854       2.09516953      -0.05985765
Cs      13.49322090      10.46482300      18.23259260       0.01073076      -0.04041016       0.12452770       0.08871549      -0.04342120       1.27469162
Cs       7.22438304       4.02327450      18.67843146      -0.06928986       0.08135514      -0.03977249      -0.97641531       0.50827414       0.44379962
Cs       6.10420220       4.47805709      24.92236601       0.00421077      -0.02146456      -0.06199576       0.02768983       0.49609886       2.80114664
Cs      12.60579241      10.70593445      24.83109817      -0.02619168       0.06300375      -0.00398660       0.32143312       0.94371499       0.66714765
Cs      12.62076009       4.88644362      24.51659401       0.08833394      -0.13637332       0.12581016      -0.26818352      -1.48379673       0.41592914
Cs       6.17603085      10.79879219      25.00275867      -0.00573628       0.06292021      -0.03889616       1.02834433       1.74028719       2.13142175
Cs       7.07370261      10.33946377      18.51467163      -0.01112498      -0.04280334       0.03982887      -1.14149182      -1.73508213      -0.33896925
Cs      13.04474582       3.80181496      18.40553939       0.05391300       0.00590027       0.01553345      -0.64117837       0.14162206       1.63695905
Pb       3.36863744       0.90488690      21.44135531      -0.09206235      -0.01530968       0.16839451      -2.30503820       0.26131980      -2.79827027
Pb       9.80200006       7.45936768      21.83515374       0.06589466       0.06206969      -0.21751083      -0.36963649      -0.33906900      -0.72979277
Pb       3.39188858       7.25398043      21.59449498      -0.05815585       0.20812282      -0.25346774       1.98599415       0.52475311       0.04387245
Pb       9.70306146       1.05558742      21.88517979       0.10786575      -0.10554834      -0.14756697       2.05235114      -2.71132894      -1.46684819
Pb       3.35511732       1.33990675      15.18629662      -0.03464603       0.14196711      -0.09297167      -0.14620779      -0.75990872       0.06581783
Pb       9.84502231       7.74802526      15.37670483      -0.32404167      -0.36085879       0.20100879       0.70054423       0.92027649       0.22438044
Pb       3.43444280       7.82318903      15.21309519       0.27974085      -0.31943160       0.43499612      -0.55424855       2.11437579      -1.35394946
Pb       9.66577139       1.17735494      15.45063620       0.08057339       0.24560529      -0.23027937      -1.55240545       1.10004003       1.67998997
I        2.86600067       4.33926129      22.05485920      -0.00451847      -0.36410037      -0.00879674       0.33349914      -0.25409091       1.89770597
I        9.01295381      10.49539513      22.27523714       0.04375445      -0.00805315      -0.01015118       0.45817469       0.41309478       1.41091645
I       16.52213250      10.47381294      20.77758409       0.08721435       0.25259731       0.15099235       1.18092810      -0.48442811       0.18069185
I       10.38007050       4.10060117      21.41514732      -0.00677612       0.23998989      -0.03400613       0.83589660      -0.25188088       1.11072257
I       13.09370314       8.28996626      21.93371068      -0.29322411      -0.15532326       0.08085842       0.18195417       1.57538103       1.09974369
I        6.54988554      14.21773364      22.14113206       0.08932047       0.04805246       0.08000964       0.85701992       1.88688064      -1.13079268
I        6.66438639       7.13109358      21.31471038       0.12713548      -0.14603710      -0.06434995       1.01596241      -0.45689733      -0.37105865
I       12.88426550       0.25585208      21.30312001      -0.05219617       0.06396378      -0.12824302      -1.48622562      -0.10429739      -0.55503192
I       16.74700284      10.95025739      15.84524773      -0.01613904      -0.13360591      -0.07552167       1.79999528       0.06272241       0.62606040
I       10.25312322       4.46254829      15.65851831      -0.03721555      -0.12868592      -0.02452273      -1.33112816       1.94051849       0.53681956
I        3.01900344       4.85057107       1.97977715      -0.15021636      -0.26008171      -0.01614012      -0.12257210       0.35599274      -1.37832899
I        9.02610843      10.93116991       2.23047193       0.01815851       0.00350121      -0.03045341      -0.38509187       0.78484279       0.79945822
I        6.57315344       7.22436727       3.33646768      -0.07098079       0.10116595      -0.09613048      -2.18243142       1.20420820       1.46859513
I       12.78975929       0.91818908       3.05993952      -0.06308632       0.00172742      -0.07599704      -0.94104787       1.98871614       0.45962591
I       12.92621453       7.98318785      14.74125069       0.03198507       0.15495350      -0.02130376       0.16334437       0.34007986       1.29634835
I        6.50373062      14.44495292      14.90892393       0.18918470      -0.03378586       0.00527550      -0.93900829       0.24700413       0.08662219
I        2.94893717      13.16167990      24.83185387       0.12320569       0.04389206       0.11802714       1.29642329      -1.05808060      -0.24594348
I        9.30695973       6.84016718      24.84597981       0.02281400       0.08059104       0.16976506       0.99944721       1.67323390      -1.31751447
I       16.53283778       1.60175926      18.30178472      -0.04363644       0.10656546      -0.06594975       1.37569637       0.57404274       4.18926992
I       10.40589187       8.00499550      18.57854271      -0.09660135      -0.04238403      -0.12998043      -1.25419274       2.78657585       1.60551012
I        2.86169779       7.06021802      18.51018482      -0.01304303      -0.00740033       0.09060183      -1.57524075       0.77598893      -1.09114031
I        9.53918422      13.47650849      18.49456096      -0.07515320      -0.03484416       0.11902174       1.44768026       1.76550938      -0.26249543
I       16.44256606       7.60723261      24.89984576       0.11896413       0.20832762      -0.34578368       0.18978199       1.93771174       0.30710780
I       10.41996481       1.18545898      24.67647881       0.00103568       0.18022963       0.28912642       2.09898854       2.09516953      -0.05985765
Cs      13.44740978      23.30192565       5.66809115       0.01073076      -0.04041016       0.12452770       0.08871549      -0.04342120       1.27469162
Cs       7.17857192      16.86037715       6.11393001      -0.06928986       0.08135514      -0.03977249      -0.97641531       0.50827414       0.44379962
Cs       6.05839108      17.31515974      12.35786456       0.00421077      -0.02146456      -0.06199576       0.02768983       0.49609886       2.80114664
Cs      12.55998129      23.54303710      12.26659672      -0.02619168       0.06300375      -0.00398660       0.32143312       0.94371499       0.66714765
Cs      12.57494897      17.72354627      11.95209256       0.08833394      -0.13637332       0.12581016      -0.26818352      -1.48379673       0.41592914
Cs       6.13021973      23.63589484      12.43825722      -0.00573628       0.06292021      -0.03889616       1.02834433       1.74028719       2.13142175
Cs       7.02789149      23.17656642       5.95017018      -0.01112498      -0.04280334       0.03982887      -1.14149182      -1.73508213      -0.33896925
Cs      12.99893470      16.63891761       5.84103794       0.05391300       0.00590027       0.01553345      -0.64117837       0.14162206       1.63695905
Pb       3.32282632      13.74198955       8.87685386      -0.09206235      -0.01530968       0.16839451      -2.30503820       0.26131980      -2.79827027
Pb       9.75618894      20.29647033       9.27065229       0.06589466       0.06206969      -0.21751083      -0.36963649      -0.33906900      -0.72979277
Pb       3.34607746      20.09108308       9.02999353      -0.05815585       0.20812282      -0.25346774       1.98599415       0.52475311       0.04387245
Pb       9.65725034      13.89269007       9.32067834       0.10786575      -0.10554834      -0.14756697       2.05235114      -2.71132894      -1.46684819
Pb       3.30930620      14.17700940       2.62179517      -0.03464603       0.14196711      -0.09297167      -0.14620779      -0.75990872       0.06581783
Pb       9.79921119      20.58512791       2.81220338      -0.32404167      -0.36085879       0.20100879       0.70054423       0.92027649       0.22438044
Pb       3.38863168      20.66029168       2.64859374       0.27974085      -0.31943160       0.43499612      -0.55424855       2.11437579      -1.35394946
Pb       9.61996027      14.01445759       2.88613475       0.08057339       0.24560529      -0.23027937      -1.55240545       1.10004003       1.67998997
I        2.82018955      17.17636394       9.49035775      -0.00451847      -0.36410037      -0.00879674       0.33349914      -0.25409091       1.89770597
I        8.96714269      23.33249778       9.71073569       0.04375445      -0.00805315      -0.01015118       0.45817469       0.41309478       1.41091645
I       16.47632138      23.31091559       8.21308264       0.08721435       0.25259731       0.15099235       1.18092810      -0.48442811       0.18069185
I       10.33425938      16.93770382       8.85064587      -0.00677612       0.23998989      -0.03400613       0.83589660      -0.25188088       1.11072257
I       13.04789202      21.12706891       9.36920923      -0.29322411      -0.15532326       0.08085842       0.18195417       1.57538103       1.09974369
I        6.42651654       1.67844973       9.30072723       0.08932047       0.04805246       0.08000964       0.85701992       1.88688064      -1.13079268
I        6.61857527      19.96819623       8.75020893       0.12713548      -0.14603710      -0.06434995       1.01596241      -0.45689733      -0.37105865
I       12.83845438      13.09295473       8.73861856      -0.05219617       0.06396378      -0.12824302      -1.48622562      -0.10429739      -0.55503192
I       16.70119172      23.78736004       3.28074628      -0.01613904      -0.13360591      -0.07552167       1.79999528       0.06272241       0.62606040
I       10.20731210      17.29965094       3.09401686      -0.03721555      -0.12868592      -0.02452273      -1.33112816       1.94051849       0.53681956
I        3.14237244      17.38985498      14.82018198      -0.15021636      -0.26008171      -0.01614012      -0.12257210       0.35599274      -1.37832899
I        9.14947743      23.47045382      15.07087676       0.01815851       0.00350121      -0.03045341      -0.38509187       0.78484279       0.79945822
I        6.69652244      19.76365118      16.17687251      -0.07098079       0.10116595      -0.09613048      -2.18243142       1.20420820       1.46859513
I       12.91312829      13.45747299      15.90034435      -0.06308632       0.00172742      -0.07599704      -0.94104787       1.98871614       0.45962591
I       12.88040341      20.82029050       2.17674924       0.03198507       0.15495350      -0.02130376       0.16334437       0.34007986       1.29634835
I        6.38036162       1.90566901       2.06851910       0.18918470      -0.03378586       0.00527550      -0.93900829       0.24700413       0.08662219
I        2.82556817       0.62239599      11.99144904       0.12320569       0.04389206       0.11802714       1.29642329      -1.05808060      -0.24594348
I        9.26114861      19.67726983      12.28147836       0.02281400       0.08059104       0.16976506       0.99944721       1.67323390      -1.31751447
I       16.48702666      14.43886191       5.73728327      -0.04363644       0.10656546      -0.06594975       1.37569637       0.57404274       4.18926992
I       10.36008075      20.84209815       6.01404126      -0.09660135      -0.04238403      -0.12998043      -1.25419274       2.78657585       1.60551012
I        2.81588667      19.89732067       5.94568337      -0.01304303      -0.00740033       0.09060183      -1.57524075       0.77598893      -1.09114031
I        9.41581522       0.93722458       5.65415613      -0.07515320      -0.03484416       0.11902174       1.44768026       1.76550938      -0.26249543
I       16.39675494      20.44433526      12.33534431       0.11896413       0.20832762      -0.34578368       0.18978199       1.93771174       0.30710780
I       10.37415369      14.02256163      12.11197736       0.00103568       0.18022963       0.28912642       2.09898854       2.09516953      -0.05985765
Cs      13.53199984      23.15301628      18.37054429       0.01073076      -0.04041016       0.12452770       0.08871549      -0.04342120       1.27469162
Cs       7.26316198      16.71146778      18.81638315      -0.06928986       0.08135514      -0.03977249      -0.97641531       0.50827414       0.44379962
Cs       6.14298114      17.16625037      25.06031770       0.00421077      -0.02146456      -0.06199576       0.02768983       0.49609886       2.80114664
Cs      12.64457135      23.39412773      24.96904986      -0.02619168       0.06300375      -0.00398660       0.32143312       0.94371499       0.66714765
Cs      12.65953903      17.57463690      24.65454570       0.08833394      -0.13637332       0.12581016      -0.26818352      -1.48379673       0.41592914
Cs       6.21480979      23.48698547      25.14071036      -0.00573628       0.06292021      -0.03889616       1.02834433       1.74028719       2.13142175
Cs       7.11248155      23.02765705      18.65262332      -0.01112498      -0.04280334       0.03982887      -1.14149182      -1.73508213      -0.33896925
Cs      13.08352476      16.49000824      18.54349108       0.05391300       0.00590027       0.01553345      -0.64117837       0.14162206       1.63695905
Pb       3.40741638      13.59308018      21.57930700      -0.09206235      -0.01530968       0.16839451      -2.30503820       0.26131980      -2.79827027
Pb       9.84077900      20.14756096      21.97310543       0.06589466       0.06206969      -0.21751083      -0.36963649      -0.33906900      -0.72979277
Pb       3.43066752      19.94217371      21.73244667      -0.05815585       0.20812282      -0.25346774       1.98599415       0.52475311       0.04387245
Pb       9.74184040      13.74378070      22.02313148       0.10786575      -0.10554834      -0.14756697       2.05235114      -2.71132894      -1.46684819
Pb       3.39389626      14.02810003      15.32424831      -0.03464603       0.14196711      -0.09297167      -0.14620779      -0.75990872       0.06581783
Pb       9.88380125      20.43621854      15.51465652      -0.32404167      -0.36085879       0.20100879       0.70054423       0.92027649       0.22438044
Pb       3.47322174      20.51138231      15.35104688       0.27974085      -0.31943160       0.43499612      -0.55424855       2.11437579      -1.35394946
Pb       9.70455033      13.86554822      15.58858789       0.08057339       0.24560529      -0.23027937      -1.55240545       1.10004003       1.67998997
I        2.90477961      17.02745457      22.19281089      -0.00451847      -0.36410037      -0.00879674       0.33349914      -0.25409091       1.89770597
I        9.05173275      23.18358841      22.41318883       0.04375445      -0.00805315      -0.01015118       0.45817469       0.41309478       1.41091645
I       16.56091144      23.16200622      20.91553578       0.08721435       0.25259731       0.15099235       1.18092810      -0.48442811       0.18069185
I       10.41884944      16.78879445      21.55309901      -0.00677612       0.23998989      -0.03400613       0.83589660      -0.25188088       1.11072257
I       13.13248208      20.97815954      22.07166237      -0.29322411      -0.15532326       0.08085842       0.18195417       1.57538103       1.09974369
I        6.51110659       1.52954035      22.00318036       0.08932047       0.04805246       0.08000964       0.85701992       1.88688064      -1.13079268
I        6.70316533      19.81928686      21.45266207       0.12713548      -0.14603710      -0.06434995       1.01596241      -0.45689733      -0.37105865
I       12.92304444      12.94404536      21.44107170      -0.05219617       0.06396378      -0.12824302      -1.48622562      -0.10429739      -0.55503192
I       16.78578178      23.63845067      15.98319942      -0.01613904      -0.13360591      -0.07552167       1.79999528       0.06272241       0.62606040
I       10.29190216      17.15074157      15.79647000      -0.03721555      -0.12868592      -0.02452273      -1.33112816       1.94051849       0.53681956
I        3.05778239      17.53876436       2.11772885      -0.15021636      -0.26008171      -0.01614012      -0.12257210       0.35599274      -1.37832899
I        9.06488738      23.61936320       2.36842363       0.01815851       0.00350121      -0.03045341      -0.38509187       0.78484279       0.79945822
I        6.61193239      19.91256056       3.47441938      -0.07098079       0.10116595      -0.09613048      -2.18243142       1.20420820       1.46859513
I       12.82853824      13.60638237       3.19789122      -0.06308632       0.00172742      -0.07599704      -0.94104787       1.98871614       0.45962591
I       12.96499347      20.67138113      14.87920238       0.03198507       0.15495350      -0.02130376       0.16334437       0.34007986       1.29634835
I        6.46495167       1.75675963      14.77097223       0.18918470      -0.03378586       0.00527550      -0.93900829       0.24700413       0.08662219
I        2.91015822       0.47348661      24.69390217       0.12320569       0.04389206       0.11802714       1.29642329      -1.05808060      -0.24594348
I        9.34573867      19.52836046      24.98393150       0.02281400       0.08059104       0.16976506       0.99944721       1.67323390      -1.31751447
I       16.57161672      14.28995254      18.43973641      -0.04363644       0.10656546      -0.06594975       1.37569637       0.57404274       4.18926992
I       10.44467081      20.69318878      18.71649440      -0.09660135      -0.04238403      -0.12998043      -1.25419274       2.78657585       1.60551012
I        2.90047673      19.74841130      18.64813651      -0.01304303      -0.00740033       0.09060183      -1.57524075       0.77598893      -1.09114031
I        9.50040527       0.78831520      18.35660926      -0.07515320      -0.03484416       0.11902174       1.44768026       1.76550938      -0.26249543
I       16.48134500      20.29542589      25.03779745       0.11896413       0.20832762      -0.34578368       0.18978199       1.93771174       0.30710780
I       10.45874375      13.87365226      24.81443050       0.00103568       0.18022963       0.28912642       2.09898854       2.09516953      -0.05985765
Cs       0.73058415      10.66700687       5.62607785       0.01073076      -0.04041016       0.12452770       0.08871549      -0.04342120       1.27469162
Cs      19.81783967       4.11890937       5.88003993      -0.06928986       0.08135514      -0.03977249      -0.97641531       0.50827414       0.44379962
Cs      18.69765883       4.57369196      12.12397448       0.00421077      -0.02146456      -0.06199576       0.02768983       0.49609886       2.80114664
Cs      25.19924904      10.80156932      12.03270664      -0.02619168       0.06300375      -0.00398660       0.32143312       0.94371499       0.66714765
Cs      25.21421672       4.98207849      11.71820248       0.08833394      -0.13637332       0.12581016      -0.26818352      -1.48379673       0.41592914
Cs      18.76948748      10.89442706      12.20436714      -0.00573628       0.06292021      -0.03889616       1.02834433       1.74028719       2.13142175
Cs      19.66715924      10.43509864       5.71628010      -0.01112498      -0.04280334       0.03982887      -1.14149182      -1.73508213      -0.33896925
Cs       0.28210907       4.00399883       5.79902464       0.05391300       0.00590027       0.01553345      -0.64117837       0.14162206       1.63695905
Pb      15.96209407       1.00052177       8.64296378      -0.09206235      -0.01530968       0.16839451      -2.30503820       0.26131980      -2.79827027
Pb      22.39545669       7.55500255       9.03676221       0.06589466       0.06206969      -0.21751083      -0.36963649      -0.33906900      -0.72979277
Pb      15.98534521       7.34961530       8.79610345      -0.05815585       0.20812282      -0.25346774       1.98599415       0.52475311       0.04387245
Pb      22.29651809       1.15122229       9.08678826       0.10786575      -0.10554834      -0.14756697       2.05235114      -2.71132894      -1.46684819
Pb      15.94857395       1.43554162       2.38790509      -0.03464603       0.14196711      -0.09297167      -0.14620779      -0.75990872       0.06581783
Pb      22.43847894       7.84366013       2.57831330      -0.32404167      -0.36085879       0.20100879       0.70054423       0.92027649       0.22438044
Pb      16.02789943       7.91882390       2.41470366       0.27974085      -0.31943160       0.43499612      -0.55424855       2.11437579      -1.35394946
Pb      22.25922802       1.27298981       2.65224467       0.08057339       0.24560529      -0.23027937      -1.55240545       1.10004003       1.67998997
I       15.45945730       4.43489616       9.25646767      -0.00451847      -0.36410037      -0.00879674       0.33349914      -0.25409091       1.89770597
I       21.60641044      10.59103000       9.47684561       0.04375445      -0.00805315      -0.01015118       0.45817469       0.41309478       1.41091645
I        3.75949575      10.67599681       8.17106934       0.08721435       0.25259731       0.15099235       1.18092810      -0.48442811       0.18069185
I       22.97352713       4.19623604       8.61675579      -0.00677612       0.23998989      -0.03400613       0.83589660      -0.25188088       1.11072257
I        0.33106639       8.49215013       9.32719593      -0.29322411      -0.15532326       0.08085842       0.18195417       1.57538103       1.09974369
I       19.14334217      14.31336851       9.34274053       0.08932047       0.04805246       0.08000964       0.85701992       1.88688064      -1.13079268
I       19.25784302       7.22672845       8.51631885       0.12713548      -0.14603710      -0.06434995       1.01596241      -0.45689733      -0.37105865
I        0.12162875       0.45803595       8.69660526      -0.05219617       0.06396378      -0.12824302      -1.48622562      -0.10429739      -0.55503192
I        3.98436609      11.15244126       3.23873298      -0.01613904      -0.13360591      -0.07552167       1.79999528       0.06272241       0.62606040
I       22.84657985       4.55818316       2.86012678      -0.03721555      -0.12868592      -0.02452273      -1.33112816       1.94051849       0.53681956
I       15.78164019       4.64838720      14.58629190      -0.15021636      -0.26008171      -0.01614012      -0.12257210       0.35599274      -1.37832899
I       21.78874518      10.72898604      14.83698668       0.01815851       0.00350121      -0.03045341      -0.38509187       0.78484279       0.79945822
I       19.33579019       7.02218340      15.94298243      -0.07098079       0.10116595      -0.09613048      -2.18243142       1.20420820       1.46859513
I        0.19630266       0.82255421      15.85833105      -0.06308632       0.00172742      -0.07599704      -0.94104787       1.98871614       0.45962591