320
Lattice="36.61494431704515 0.8521064442996575 0.6472952383376436 -0.4899562435077865 21.43320960287554 0.4582089290160639 -0.349194964961731 -0.4123068262220005 19.635594233834194" Properties=species:S:1:pos:R:3:forces:R:3:momenta:R:3 energy=-982.0446765781542 stress="0.0 0.0 0.0 0.0 0.0 0.0 0.0 0.0 0.0" pbc="T T T"
Cs       7.63958823      19.45616568       1.10100223       0.12033533      -0.04215495       0.05848701       0.51401122      -0.92493210      -1.51017451
Cs      14.32994865       6.30833852      18.57092864      -0.07046148       0.20308115      -0.20746268      -0.20395664       1.30078724       2.43273090
Cs       5.55591207       3.53316673       0.77823020      -0.13316081      -0.10680839       0.09717202       1.01508591      -1.01687181       0.01839007
Cs      16.80169970       0.95430767      18.10885581       0.23692943       0.12579084       0.14298299      -0.61231587      -0.84903193       0.90883201
Cs       7.75504853      19.00993923       6.14701782      -0.10564899       0.06067167       0.07329908       0.58812504       0.92119618      -0.04047698
Cs      14.27684178       7.12162505       3.28636296       0.13549637      -0.02856781       0.24762472       2.03784790       2.72910286      -0.42458467
Cs       5.13208525       2.95457357       5.78732309       0.09826222       0.12234612       0.10378294      -3.51036844      -1.92281600       2.59845326
Cs      17.44418364       1.49957505       3.33096084       0.04130995       0.05202843       0.15485692       0.46339794       0.78329668       2.32101631
Pb       2.61135023      20.04463239      18.21393392      -0.10289152      -0.12355402       0.01244153       1.06224220       0.08535631      -2.06641477
Pb      19.44546396       6.37279704       1.03009754       0.52138326      -0.15622988       0.30688171       1.42529930       0.03822913       3.10892364
Pb      10.02802207       3.79617966      18.08561372       0.09850108       0.33994441       0.17318816       1.94835171       0.93415313       4.29363251
Pb      12.49614464       0.57715723       1.38239896      -0.22944967      -0.02418910      -0.19648653      -0.13632857       1.99926678      -0.65114026
Pb       2.91285576      20.25935986       3.58442890      -0.28876556      -0.00808940      -0.17784811       0.22813219       2.04158838      -3.37140919
Pb      19.18172490       6.27955007       5.94001809       0.01580991      -0.47897902      -0.08617941      -3.26887794       2.43463165       0.71670649
Pb      10.10617221       3.66370085       3.15945979      -0.10091373       0.51897606       0.31460414      -2.01030069      -1.84596138       2.59154959
Pb      12.31046104       0.46793936       6.23977869       0.24255101      -0.14844891      -0.08224240      -3.94674908       0.53962974       0.13177942
I        2.09812039       0.47996697       0.75299537       0.09636800       0.32826610      -0.12951129       2.12677973       0.91614610      -2.52193058
I        2.03049250       3.63525303      18.01276443      -0.06922256       0.23744017       0.06634014       1.78532745      -0.22676387       1.27227337
I       11.46117758       6.08168757       1.24161597      -0.27968706      -0.43030705      -0.16437640       3.07160594       2.95573679       0.96442887
I       10.87488776      20.13750534      18.50572415      -0.17450818      -0.21839204       0.13868101       1.29529008       0.12471733       0.66875548
I       17.91210921      18.34589572      18.72509579      -0.14795173       0.21119967      -0.00191148       1.36716090       0.56575848       0.53586906
I        4.28258517       7.55860955       0.77037493      -0.22699984      -0.13769417       0.10936489       0.20605067       0.49339482      -0.14419463
I       13.01122585       2.52211578      18.70052948       0.25274195      -0.02191153       0.02687553      -1.96124807      -0.45555475      -2.35291232
I        9.22817844       1.90624472       0.53756448       0.13851870       0.03761584       0.10663176      -0.59465570       0.16907866      -1.97099725
I        5.40557502      21.51096445      18.39386947       0.01669823       0.01632146      -0.03735937      -2.56883251      -0.04620530       3.79789892
I       16.96327549       4.71211897       1.00331001      -0.41256929      -0.16597056       0.09745298      -2.07041050       2.24451718      -0.84422618
I        7.31745526       5.50772444      18.05077586      -0.10282893      -0.27614683       0.00683834       2.60019871      -2.24428200       0.41252068
I       14.70416483      20.55505734       1.67526223       0.05518874       0.05957876      -0.13830489       1.15249991       2.82064208      -0.75542176
I        1.91893966       0.86363295       5.54873758       0.30303441      -0.45675169      -0.16560059      -0.26088236      -1.36517830      -1.76466326
I        2.23177090       4.37510150       3.25978629       0.06903885      -0.13909326       0.11417127      -1.69460396      -1.01376811      -2.17710780
I       11.21203694       5.76582342       5.46733211       0.07446289       0.04280234       0.11373314       0.66152980      -0.85002720       0.75494526
I       10.53803563      20.04333560       4.02998478       0.26610753       0.20724354      -0.04302918       0.94256199       0.14309241       1.23750498
I       17.91504612      18.69230368       3.60756674       0.21208172       0.23162879       0.07333588       0.88627713       0.22796986      -1.97535382
I        4.16775176       7.40079768       6.03042050      -0.22825162      -0.03500328      -0.26006424       2.66193639      -3.39995714       1.71096019
I       13.18243501       2.50278046       3.84812105       0.15241303       0.04640574      -0.20396434      -4.56499146       0.15297681       0.78725558
I        9.32939691       1.80039139       5.85871769       0.03486790       0.07764503       0.17689961      -0.77042373      -2.28496454      -1.64844154
I        5.71481164      21.70490077       3.85692132      -0.18342696      -0.11706389      -0.14028801      -0.98853132       0.01507278       1.04703987
I       16.60681359       4.39441211       5.72529498      -0.14121589       0.27920109       0.05383072       0.59584651      -0.49514121      -1.86285630
I        7.32968939       5.30632264       3.76637339       0.15230196      -0.00784012      -0.21966343      -0.34400850      -0.84868875       0.24063645
I       14.88923244      20.70615666       6.48333798      -0.39948626       0.10436921      -0.02783187      -0.23041561       1.01848372      -2.46864358
Cs       7.73600653      19.76232383      11.15051005       0.02127284      -0.31276502      -0.02814994      -1.85512912      -1.24874633      -0.53892066
Cs      14.40196708       7.06187106       8.22343752       0.00527086      -0.02676002       0.03648013      -1.20713461      -1.58140848       1.17521866
Cs       5.17346551       2.77167921      10.86987163       0.10706353       0.18813801      -0.17189315      -3.13614914       0.17549115      -1.18822708
Cs      17.21199918       1.59612627       8.57065259       0.12791674       0.06140559      -0.18115206      -2.23944337       1.48286190      -0.46395216
Cs       7.58875868      19.22843628      15.94429104       0.04079366      -0.06671687       0.00374763      -0.07031253      -2.65907421       1.29770081
Cs      14.51661739       6.91078914      13.38583970      -0.16544067      -0.00516011       0.01929308       0.98449775       0.37445349      -0.90739690
Cs       5.07380753       3.04667780      15.57365767       0.08515104       0.01766577      -0.06088859       1.67892203       0.13996876      -2.70571865
Cs      17.30156873       1.54144584      13.31894725       0.07421733       0.00428870      -0.03411093       0.55859702      -2.28014175      -2.88789037
Pb       2.66847449      20.10267756       8.17223082      -0.04368317      -0.22279220       0.28578840       1.30900117      -0.42755320       0.36321741
Pb      18.97237820       6.11550104      11.00658628       0.31527869      -0.15881993      -0.11865232      -0.84716102       0.08198426       0.19397381
Pb      10.19163156       4.09652300       8.21732567      -0.05844091       0.12531087      -0.09816472      -2.66568915       2.57757855      -2.76545653
Pb      12.47458301       0.65773306      10.96063925      -0.32966078       0.12668808       0.08776490       2.16626274       0.44045108       1.74900775
Pb       2.51225599      19.79629127      13.24388596      -0.11255448      -0.19448146       0.01804826      -0.75642366       6.00135770      -2.54559106
Pb      19.02178847       6.10343092      16.13113732       0.11688087      -0.29601470      -0.31157269      -1.70165965      -0.07919127      -0.81296458
Pb      10.35131374       3.96027157      13.26640907      -0.21010650       0.19773642      -0.15823978      -0.03437263      -2.27486298       0.24709582
Pb      12.61228536       0.71157920      15.93795197      -0.36070452      -0.11527549      -0.08327043       1.79652493       0.97976540       1.87530050
I        1.91462472       0.16027708      10.33368549       0.04125257       0.13265336       0.17232479       2.34884857      -2.35147985       0.33036947
I        2.28990478       3.96564990       8.35122296      -0.15095859       0.11120487      -0.17380436      -0.95501548       1.89107593       2.23819918
I       11.45553818       5.77971406      10.84943866      -0.02963214       0.08664768      -0.12820314       0.81156782      -1.92019896      -0.21249471
I       10.74626883      20.05362023       9.14976400       0.08999758       0.14879793      -0.16744509      -0.59816926       2.12750931       2.94658194
I       17.86576701      18.87674064       8.77678672       0.18253325       0.04692678      -0.00699104       0.83153764       0.14195463       1.84848353
I        3.92700741       7.39613841      10.75483031       0.13122237      -0.18546341      -0.01251678       0.48002931       0.59159385      -3.07787270
I       13.17104714       2.65240966       8.56376102       0.18203789      -0.07295834      -0.33298930      -2.37625935      -0.57127546       1.79640490
I        9.32339246       2.15416692      10.50082117      -0.00681057      -0.16503381       0.36950999      -0.68974135      -1.66379220      -1.22128510
I        5.51135854      21.42052373       8.71846446      -0.10380731       0.02037345      -0.20759198      -0.91148852      -0.47902720       1.76313836
I       16.27011438       4.57908983      10.94482170       0.09698644       0.08600558      -0.06809257       0.37088225      -1.45525068      -0.38278755
I        7.42351385       5.45420594       8.23614183      -0.17157835      -0.07550518       0.11096817      -2.67717098       0.99558848       2.69179711
I       14.72037753      20.92663220      11.27956573       0.16593735      -0.31428497       0.00319420       0.93070937       0.07188284      -0.96487873
I        1.80344583       0.38962059      15.29949112       0.24356127      -0.21419276      -0.21169621      -0.32641607      -0.93706388      -0.41409012
I        2.25839353       4.09949571      13.05147577      -0.02563078      -0.25035382       0.40932599      -0.87058999      -0.17988780      -0.77273902
I       11.34301601       5.77533968      15.81824274      -0.09355478      -0.06740560      -0.13474663      -0.97701145       0.27144579       0.25785161
I       10.87551340      20.37366803      14.01266854      -0.08839847      -0.11876439      -0.19184787       1.49794601       0.35158368      -1.31256873
I       17.85557972      18.82547066      13.49974168      -0.03500992      -0.21106214       0.20298077       1.50871029      -0.52841266      -0.71864787
I        3.71912517       7.22941164      15.74314098       0.43062202      -0.09887101       0.04385727       0.35021591      -0.84648224       4.51734510
I       13.34834759       2.65226203      13.52686821       0.12515971       0.13147178      -0.26444573      -0.41317109      -1.58074047      -0.02444524
I        9.35264473       1.99099536      15.63839820      -0.13933958      -0.20062612       0.08401830      -0.47224670      -1.46875886       2.43778758
I        5.26386198      21.15821197      13.47224155       0.14875690       0.25473875       0.15326922      -3.03106499      -1.07526005       1.38170458
I       16.48690702       4.20877206      15.80042377      -0.02862281       0.24932835       0.11679464       0.34597242       0.30568083      -1.03851476
I        7.46439835       5.29984566      13.00355411      -0.00337881      -0.01587895       0.18379226      -1.86946668      -2.31886672       0.08130208
I       14.69427636      20.46516145      16.02341318       0.16017022      -0.06659328       0.07108397      -1.69812678       1.08025998      -1.98982089
Cs       7.92626781       8.35128871       1.11824765       0.11632031       0.14401873       0.02794952      -2.48268541       1.75771029      -2.91614533
Cs      13.70539488      17.32011352      18.43237783       0.20838187      -0.04771389       0.04481454       0.61085487      -0.14302115      -2.00542275
Cs       5.07094787      13.80046265       0.94944553       0.02280875       0.11833723      -0.01768960      -2.27454956      -0.70876580      -1.59706302
Cs      16.88516781      12.18993643      18.17519024       0.00699188      -0.12626095       0.12831943      -1.75374755       3.10387003      -2.46462417
Cs       8.13409531       8.59646676       6.18727990       0.04859548      -0.00258013      -0.25106768       0.04001806       1.31276301      -1.37621133
Cs      14.02253345      17.76294610       4.06497462      -0.00075758      -0.10006804      -0.16425779       2.05620319       0.02888864       1.87496823
Cs       5.08471326      13.77725273       6.01052872       0.02819341      -0.01940661      -0.01525722       0.36832977      -2.92437546      -1.23402318
Cs      17.30146927      12.40679802       3.47727934      -0.02187562       0.15374656       0.17842384       0.08141091      -0.98971813       0.12426960
Pb       2.96329209       9.23364148      18.15485297      -0.19248680       0.17429009       0.16575918       3.57964116      -0.86098100       1.39853359
Pb      19.09162676      16.64364420       1.47847294      -0.18937188      -0.03005338      -0.20059322       2.85293671      -3.23915847      -0.59477597
Pb       9.75838381      14.76486194      18.24436667       0.10070155      -0.56357988      -0.21915011       0.24167781       0.03001720       0.05267720
Pb      12.25514959      11.47397499       0.94764478      -0.01843852      -0.06201904       0.10456190      -0.78824221       0.56171781       2.29361027
Pb       3.11801005       9.29988076       3.37770705       0.06007974       0.15405158      -0.08047798       0.60504834      -0.83830196       0.69085756
Pb      18.86776843      17.02326260       6.34031183      -0.10278489      -0.19157258      -0.02871567      -1.75544252      -0.44205936       2.22060958
Pb       9.99480476      14.95826466       3.67939937       0.07542793      -0.16484839       0.02981014      -1.42159711      -0.78676170       0.32224472
Pb      12.29090939      11.51319923       5.89238456      -0.03859659       0.03577424       0.20045686       1.43153483       3.24104508       1.39808709
I        1.73872246      11.27898840       0.94242365       0.28745133      -0.20878574       0.14692698       1.20605670       2.18598924       1.00195717
I        1.69761432      14.54086076      18.21002030       0.07023095      -0.24125036      -0.31198836       0.78217486       2.77793559      -0.23100931
I       11.17424558      16.68674340       0.91694839      -0.03886334       0.27813118       0.40188814       0.79803853       0.42678918      -0.33233670
I       10.86017165       9.00478700      18.17930192       0.05996450       0.21978270       0.07393508      -0.84659078      -2.77014840       1.87124988
I       18.19668417       7.90176217      18.51814970      -0.15290117       0.30374576      -0.12852178       0.80982430      -0.10077087       2.51723870
I        3.89969334      18.22627289       0.91340658       0.00991539       0.29250164       0.26367905       0.18756208      -0.36569475      -1.28685991
I       12.93627899      12.94285809      18.44383672      -0.12830033       0.42063921      -0.31769623       1.20174826       0.49652746      -0.19479745
I        9.35149391      13.07957656       1.18261501      -0.20055576       0.01668165      -0.21419217       0.66426664       2.15625170       0.78817911
I        5.69585851      10.87988928      18.20705277      -0.22057555      -0.32146329      -0.05530791      -2.10193261       3.31512658      -5.10424447
I       16.21270470      15.22698976       1.34042443       0.31401463       0.27135176      -0.00518699      -1.73722884      -1.30761383       2.19322839
I        7.01658247      16.00036686      18.18318832      -0.14400785       0.02403853      -0.00843481       5.21871050      -0.19021295      -1.91997052
I       15.11974879      10.24638089       1.24016545       0.10506066      -0.14913862      -0.17073504       2.59037767       1.35406734      -0.21382818
I        1.57391284      10.84739986       5.81925314       0.18500349       0.27786891      -0.13204964      -0.00547252       3.45110811       0.09509910
I        2.02770340      14.72564254       3.30566384       0.09998290      -0.25750832       0.06498346      -0.34057759       1.75030997       0.02874142
I       10.88496287      16.77911909       6.41978672      -0.01680071      -0.04683121      -0.16877368      -0.82386676       0.46861594       0.65892367
I       11.07677347       9.63637447       3.23608511       0.07022007       0.03243834       0.65798294      -0.42487113      -1.35244096       1.13850049
I       18.37516107       8.38024068       3.50894757      -0.05021472      -0.15007475      -0.06254258       0.13607508       0.90574058       1.03084543
I        3.61637414      18.18838095       5.66626728       0.25190005      -0.25005877       0.37780511      -0.86171368       0.96186637      -1.37077289
I       13.02749013      13.49074663       3.56698632       0.05272462       0.10637834      -0.09089850      -0.36549702      -0.22604755      -0.42535052
I        9.12566345      12.80752130       6.14594928      -0.00799622       0.08975060      -0.32599537      -2.13314836      -1.00875129       0.07425388
I        5.88745296      10.89498155       3.28431559      -0.21657172      -0.13347206       0.19951903       3.67877471       1.32447567      -0.26808020
I       15.97557428      15.68107677       6.22279396       0.38560663      -0.21763982      -0.03348113      -1.26651951       0.29636785       2.02676719
I        7.14911700      16.15060244       3.36769905      -0.09599403       0.10290304       0.11532183       0.73104910       2.57857117       2.63384942
I       15.23195162      10.44668374       6.06127387      -0.12279790      -0.27177051      -0.16488482      -2.44002308      -0.45099986      -0.21631629
Cs       8.19408852       8.44205822      10.77638944      -0.04436044      -0.05049197       0.04457222      -0.95284714       2.62776880      -2.35818726
Cs      13.80629840      17.66578713       8.72998551       0.16243204      -0.04422313       0.09507072       0.48080727       2.56677724       1.95463041
Cs       4.95908699      13.56163238      10.97778614       0.05843105       0.08724855      -0.08352958      -0.30886743       0.56034915       1.65640344
Cs      16.83803032      12.39590516       8.75604661       0.10165743       0.08517643      -0.16931303       2.08913164       1.93994271      -1.44018602
Cs       7.73599593       8.21755332      15.86649253       0.12873329       0.10654370      -0.17969432       1.19685074       0.93110180       0.15196233
Cs      13.86996885      17.62431164      13.39973484       0.14778528      -0.19381022       0.05294976       2.95531531       0.13731519       3.29280739
Cs       4.98484709      13.64297429      15.47665375      -0.03440986       0.06336740       0.14810888       5.00468309      -0.61516031       1.39768022
Cs      17.27112052      11.99609151      13.34976347      -0.19402146       0.11247429       0.16406068      -0.83271363      -0.48530425      -0.60657913
Pb       2.96404011       9.29155970       8.38221964       0.17525400      -0.09899795       0.06589218      -0.81611257      -2.92884713       2.85326078
Pb      19.01887577      16.84269661      11.15064326      -0.06151641      -0.01839407      -0.16981714       1.03354730      -0.49713185      -4.62759546
Pb       9.75025347      14.83335445       8.70709843       0.21248724      -0.05201534       0.12659827       2.90691607      -3.89259492       1.40238470
Pb      12.00935611      11.45956057      11.01068834       0.37000060       0.13967624       0.03517710      -1.57478524       1.47390105      -0.37546024
Pb       2.91020339       9.24700002      13.27893335      -0.06003923      -0.17677919      -0.19542880      -4.67676328       0.58557845       2.57180359
Pb      18.75837531      16.63337103      16.03336460       0.20684010      -0.03452169       0.16863956      -1.60636366      -1.14405829       0.84609011
Pb       9.79103139      14.75169984      13.52433492       0.46905572      -0.17960962      -0.31979585       1.84789875       1.88794773       3.58520474
Pb      12.04180772      11.04527176      15.89932925       0.01918379       0.22901195      -0.20722517       1.38094830       0.69197949       2.76411689
I        1.88955656      11.03079108      10.84659081      -0.17465815       0.21023049      -0.00081848       0.92587404       0.69654034      -0.74437847
I        1.89615830      14.47648447       8.38840660       0.02287202      -0.08752777      -0.11559829      -2.66912673      -1.55877012      -1.31974936
I       10.93297120      16.78097836      10.97332420      -0.09252770      -0.10393969       0.22451467      -1.52642809      -1.70620489      -1.04147986
I       11.49596421       9.48384601       8.43617768      -0.29242263      -0.15752332      -0.17706377      -1.85938601      -0.49153827      -0.96944704
I       18.17208790       8.13051600       8.42056566      -0.08239913       0.10902231       0.09189468      -0.22949630      -0.14876026       0.05754590
I        3.55789057      17.86530527      10.62896127      -0.01503059       0.35494912       0.14771783      -1.46510681       1.12111139      -1.38456391
I       12.94727784      13.61054456       8.65030925      -0.13844960      -0.25321516      -0.32571638       1.26413707      -1.63476026       1.41341305
I        8.94695571      12.64259168      11.13962507      -0.08749341       0.01701083      -0.19979488       0.11654671      -1.27364171      -1.69165336
I        5.84940134      10.62210101       8.40312474      -0.17129238       0.12730971       0.00420938      -3.07296793      -1.13108124       0.16321866
I       16.35331332      15.24158936      11.06104922      -0.12798759       0.10488772       0.12802028       1.37856635      -2.13548941       2.19274100
I        7.01741184      16.26636186       8.81650695      -0.18696653      -0.01000207      -0.12313953      -0.18525096       0.85342788       0.35570973
I       14.89908057      10.14070129      11.15077643       0.01553260      -0.17903045      -0.15318580       0.76071557       0.92414024       1.53259811
I        1.60949385      10.84319752      15.66756231       0.03824992       0.35643781       0.10548633       1.63445326      -0.47119330      -1.13936740
I        1.88319054      14.63327015      13.21163918       0.04822344      -0.14306188       0.08669013       1.39323588       1.68910630       1.58698826
I       11.00298726      16.60878367      15.69201780      -0.09297353       0.02373838       0.49045286       0.13459049      -0.29707636      -0.00640221
I       11.00530296       9.51696958      13.29928715      -0.08692629      -0.35273589       0.09155240      -0.41958477       0.50455980      -1.69980349
I       18.14304113       8.16564662      13.46812503      -0.05844989      -0.20711051      -0.06746490      -1.20223367       1.70357141      -2.36884891
I        3.44303404      17.85389250      15.97932886       0.17862178       0.13436304      -0.27527997      -0.11708955      -0.88723357       0.71364079
I       13.13706417      13.31735178      13.39042405      -0.32007363      -0.09889896       0.29351280       1.06926873       0.61752950      -0.76327483
I        8.86870257      12.54055471      15.53263909       0.14382537       0.15134669       0.33515258      -1.28960207      -0.46998242       2.06755514
I        5.69318060      10.46368545      13.29321195       0.18971084       0.15922086       0.02760935       1.06094908      -0.17262323       0.84823694
I       16.16432841      14.96964207      16.09241591      -0.20385877       0.13129918      -0.23374866      -3.18797995       0.51880488       0.99154173
I        7.18575386      16.24116460      13.18200156      -0.32881281       0.08088961       0.15026596      -0.96939713       1.09580420       0.79425216
I       14.73581068       9.52662948      15.99911268       0.12844205       0.10196669       0.01274036       0.84868306      -0.37478515      -1.46559349
Cs      26.01215497      19.54349958       1.70372395       0.10560709       0.23499734      -0.01033325       1.06027770       0.64677902      -0.16264486
Cs      32.59385456       7.64106963      18.50095081      -0.02428500      -0.24786735       0.08503595       3.81926577      -2.01471556       2.33671434
Cs      23.68965696       3.63231834       1.05814532       0.09626116       0.05959856       0.07161948       1.03151233       4.10854728       0.73718063
Cs      35.55454281       1.78742814      18.24936441      -0.06277778       0.21803841      -0.01069094       0.53853573      -0.88955606      -0.24008994
Cs      25.78029798      19.98479952       6.75279706       0.18248751      -0.08899466      -0.22431161      -0.13795499      -0.77193478       1.25080398
Cs      32.64184364       7.59875771       4.21996810       0.01955317      -0.16119549      -0.33726084       0.48857143       0.42849670       1.23522862
Cs      23.32218987       3.81814484       6.06325417       0.09483487      -0.09776104       0.07023021      -3.76279180      -0.40712401      -3.05649800
Cs      35.87758690       2.39797585       3.59466893      -0.12783344      -0.05121205       0.06566455      -0.14826184       1.94253633       0.47192344
Pb      20.93252675      19.87054914      18.74927736      -0.18960557       0.12415346      -0.06892120      -4.02214616      -3.48875354      -0.64421247
Pb       1.10791433       5.85259699       0.81824546      -0.27345501       0.00490167      -0.19554917       1.36058061      -4.39039980      -1.30186818
Pb      28.48898442       4.33421208      18.63858869       0.35026833       0.07040482       0.12096990       0.09566203       0.40165598       2.75298744
Pb      31.41804195       1.32087628       1.11425105      -0.99738862       0.28988289      -0.13340251       1.87376327       0.83908235       4.52959490
Pb      21.10936556      20.46416268       3.81888390      -0.17763985       0.00700154       0.39571978      -1.90094340       2.42578656      -1.25262849
Pb       0.98166178       6.09237424       6.00167434      -0.04146603      -0.35555044      -0.16489956      -3.86938058       0.48147268      -1.00929312
Pb      28.38029628       4.68998362       3.80761467       0.09502446       0.07580748      -0.11473530      -0.77441305      -2.25180221      -0.42451442
Pb      30.88560904       1.32270103       5.98195475      -0.23705541      -0.22819792       0.05249853      -3.78331687      -0.22637183      -1.25832168
I       20.77872287       1.03467631       1.18287251      -0.22161080      -0.11640680      -0.33218122      -0.86958007       0.42469863       1.18890726
I       20.12713740       3.90871259      18.19299779       0.00785175       0.16128544       0.00250699      -2.82480261       1.42283640      -1.48502225
I       29.96862662       6.69263718       1.33888306      -0.28160065      -0.08756378       0.33445407      -1.21832551       1.03415750       0.75095321
I       29.14538460      20.41278068      18.73490004       0.04878258       0.28161970       0.23343709      -0.09444564       0.44033080      -1.13463470
I       -0.20713195      18.37028364      18.18985389      -0.19757416      -0.04319963      -0.10119790       0.75748168      -0.35345296       0.68190375
I       22.67369353       7.80784287       1.08763900      -0.25219430       0.08193926      -0.10899997      -2.94614094       0.02370592       0.87363181
I       31.60584047       3.05411136      18.42441824       0.04315627      -0.13381537      -0.25955651      -1.61492646      -2.52266804      -0.85789061
I       27.88116770       2.68675475       1.22869273       0.09026273      -0.06309337       0.10659847       0.50309199       0.32390600      -0.81429588
I       23.43348179      21.70705626      18.88328855       0.26415524      -0.15166532      -0.00136631      -0.05460236      -0.89789872      -1.11177485
I       34.96250357       5.16941154       1.23531731       0.20013537       0.28814520       0.06677581       0.27146464       2.67020367       1.65768829
I       25.65761220       5.37990364      17.92053785      -0.37457661       0.29985929       0.32562014       1.34824533       1.21063842       1.90700348
I       33.38933011      21.33877734       1.39922505       0.46449653      -0.16406546       0.17787227       0.20729433       0.27472131      -2.47548120
I       20.34479082       0.77176743       5.95858491      -0.09758277       0.05323507      -0.18757546       1.36922890      -1.92488305      -1.79207053
I       20.59672571       4.46954396       3.56562399      -0.12798791       0.09006552       0.01621866       0.65346595      -3.20863330       0.77577023