320
Lattice="31.705123562890115 0.00098397742904671 0.8597404125717283 0.019921660697184568 29.971723771014627 -2.6265873698904523 -0.4087198441794399 1.5773423540450537 17.106165182112967" Properties=species:S:1:pos:R:3:forces:R:3:momenta:R:3 energy=-968.3473942342754 stress="0.0 0.0 0.0 0.0 0.0 0.0 0.0 0.0 0.0" pbc="T T T"
Cs       1.41079568       2.57851150       3.86692494      -0.02787167       0.03455961       0.10091992       3.36174937      -3.10570593      -5.26036728
Cs       5.47271621       5.88470997       8.62322891      -0.12413921      -0.01969148       0.06829294      -0.33750216       2.34532238       0.47283702
Cs       1.63605403       9.28085164      -0.95235299       0.06408447      -0.01929246       0.14269772      -0.11184009      -2.52798347      -0.80018123
Cs       4.59587325      12.70630509       3.59066788       0.12683129       0.24235533       0.05502317      -0.32702730      -0.75363783      -0.32804383
Cs       9.10917598       2.37951325       4.55108959      -0.01789071      -0.04681406      -0.08788929       1.42913152      -1.85299375      -0.50704834
Cs      13.78367980       6.48123444       8.10490935      -0.10180396      -0.06455645       0.21272922       3.14421897       0.67629376      -1.25288971
Cs       9.95191063       9.70704670      -0.30434035      -0.24375640      -0.03596771      -0.06738744       2.31194298      -0.00605142      -0.53333385
Cs      13.73073598      11.27575585       4.42343595       0.04380858       0.17793336      -0.21105632       0.02221639       0.31616452      -1.13435672
Pb       2.29886107      15.50198457       7.85806516      -0.12816108      -0.15412455       0.19314207      -5.74937849      -0.29352869       4.06535028
Pb       6.65773090      15.65614951       7.69902060       0.10336383      -0.17854259       0.35926316      -1.93435011       1.03866620      -0.26636323
Pb       4.20508960       7.74873859       3.63407881      -0.51492521      -0.20718052       0.05598678       2.30024398      -0.83706540       2.13020219
Pb      31.88101020       7.77022994       4.65114222      -0.06715674      -0.12226143       0.18695390       2.19610374      -3.20168681      -1.52636462
Pb      10.69805068      15.42770570       7.55618128      -0.74446226      -0.12585833      -0.08003447      -0.67233016       6.31454797       0.21411794
Pb      14.51388524      15.26698145       7.37371425      -0.21110716       0.24682770       0.22527736      -0.27388117      -1.63288397       0.97733055
Pb      11.61460298       7.32381332       4.37779157      -0.42722285      -0.39462216      -0.15179886      -2.86741039       0.11875729      -2.31350361
Pb       7.76508169       7.43085262       4.04657167       0.25925975       0.34890710      -0.13255837       1.65686069       0.63389091      -2.09312980
I        4.44458918       1.34265164       2.02101796       0.17911600      -0.22162616      -0.29343130      -1.26641052      -0.98393035       0.15651072
I        1.92984406       6.01252236       1.79533427       0.03324305      -0.07913178      -0.20146558      -0.15054800      -3.19490289      -2.55052065
I        4.71590940       0.96072676       5.98890524      -0.27877996       0.09892187       0.10610020       1.27286615      -2.24898064      -1.60361701
I        2.44605657       6.63918995       6.19451678      -0.26337091       0.04206755      -0.46572331      -1.58641851       1.30854284      -0.25991919
I        6.12245294       5.06667748       4.46696282      -0.27793823      -0.21232574       0.01728798       2.81896471       0.30270502       0.85929324
I        0.51519483       2.84933985       7.79012532       0.06435546       0.08636831      -0.04543183       1.73096072      -0.91818691       1.35351216
I        5.58002628       9.49394477       5.61782745       0.27761328       0.06471024       0.25055447      -1.32632395      -2.59234594       1.30812494
I        0.44276198      12.94575974       6.22489913       0.21746263       0.43832807       0.48749805       0.24880090       2.65548602       0.05478005
I        6.26278419       8.24405871       1.28100761       0.01519391       0.03167212      -0.03687283      -0.31586895       2.23931752       1.02695120
I        0.70524754      15.00460923       2.19845588       0.11570247      -0.02745417      -0.14333826       0.53036075      -1.81445260       0.02366893
I        4.52027850      13.09439467       7.88095142      -0.04438003       0.08034148       0.11386001      -2.36591197       2.96416896      -2.75701614
I        2.28555814      10.28687074       3.26532767      -0.16526363      -0.22380023      -0.12921553      -1.19704019       0.73933817       1.21474364
I       12.48524245       1.37419306       1.77173379       0.00022334       0.04816861       0.13372932      -1.96339268      -2.19463822      -1.31557086
I        9.57097290       5.89952229       1.95074221       0.47728513       0.18310289       0.35046644       1.45171477      -3.15723958      -1.97778249
I       12.35621361       0.30755222       6.22171184      -0.04327302       0.41715850      -0.23048221      -0.15168415      -2.59898852       3.63902279
I        9.32143065       6.38541856       6.67080708       0.37918753       0.12401459      -0.23365762      -0.43638723      -2.04015280       1.13783720
I       13.51006907       4.29509375       4.10475894       0.36694306       0.62519907       0.03845372       0.33120306       2.68412190       1.19497854
I        8.04805730       3.20346180       8.58071354       0.45920304      -0.03088920       0.00380781       1.91391668      -0.18452917      -1.97141828
I       13.86769586       7.97753669       7.01900101       0.01246527       0.02845715      -0.03655464      -0.82282766      -0.23128908       2.16988301
I        8.17078087      13.68458063       5.56986233       0.09513843       0.35892986       0.44845791       0.47426996      -0.73144781      -2.24976903
I       13.80956490       8.71236694       2.42868109       0.19577638       0.01009463       0.01385707       0.42789535      -0.79327564       0.45221682
I        8.38345144      12.72071875       1.49219287      -0.02893195       0.26533284      -0.44083333       2.68029974       0.55925676      -1.95357884
I       12.26991512      12.73824526       8.40998225       0.35955827       0.02849275      -0.17378102       0.25860595      -0.28354701      -1.97901760
I       10.13162329      10.05391504       3.76362743       0.12239186      -0.24749444       0.20080211      -1.46366560       4.78202773      -4.00183468
Cs       0.38705634       3.69434127      12.80108925       0.21887016       0.03096326      -0.32576126       3.72011757      -1.05855180      -1.21648198
Cs       5.22690099       4.78926256      -0.61804840       0.10922509      -0.07690786       0.02129106       0.44859543      -0.84313749       1.18542697
Cs       2.36297765       9.62401757       8.57023519      -0.08409638       0.06844208      -0.06494777       1.24587743      -2.04790696      -1.34458838
Cs       5.54417721      12.87191617      11.84073188       0.05131427       0.11719150      -0.04159951      -0.11157518       1.44686809       0.66137048
Cs       9.30508251       2.85067962      12.02560724      -0.31654489       0.22531017       0.28006404       2.40793671      -0.32273361      -2.78216216
Cs      13.51765650       5.18560200       0.08509305      -0.07600070      -0.07378921      -0.04407128       0.97832183      -0.46064645      -5.41328425
Cs       9.24039579      10.69835293       8.15555299      -0.15306848      -0.08129747      -0.06676481      -5.92628414       0.78152096       1.94984660
Cs      13.86473688      12.99468056      12.23670603      -0.16470776      -0.28228686      -0.00061565       1.58920261       1.97505014      -2.67647825
Pb       2.75420922      14.52204403      -0.74069610      -0.24167587       0.10657789       0.17283865      -6.29393594      -0.37748014      -5.32811250
Pb       6.62808062      14.42000003      -1.00434541       0.38023693      -0.31785251       0.43976669      -0.91070495       1.94507324      -1.28913074
Pb       3.69655628       8.68073779      12.42327732      -0.18494619      -0.11516438      -0.20388424      -2.59482008       1.61179648       4.74238186
Pb      31.09784747       8.90796729      13.35009036       0.72758379       0.09585193      -0.42824823      -2.14364723      -1.58570166      -0.30216318
Pb      10.62582755      13.98208177      -0.89396824      -0.12303199       0.37608363       0.48567642       4.22782289       3.96382382       1.52019682
Pb      14.75058553      14.25751338      -0.57238440      -0.23319013       0.30038086      -0.04937696       1.97432926      -0.30749100      -2.01952475
Pb      11.48757508       8.19233703      13.11612939      -0.18459602       0.47554327      -0.41219921       0.65436661       3.51121986      -1.62111372
Pb       7.60144305       8.61909435      12.15610216      -0.35057547       0.09398994       0.39694823      -2.31574576       1.86907429      -0.17787750
I        4.22173375       2.17674526      10.85763063      -0.26549280      -0.23522072      -0.51267098       1.37882846       3.54567388       0.55269252
I        1.25780520       7.94176538       9.74618619      -0.06008001      -0.21968338       0.33872877       1.28550421      -1.96267001       2.96702049
I        4.09248867       2.16047905      14.86649360       0.18858111       0.07999352      -0.00629790       3.96989948       1.42606852      -0.72579127
I        1.72856132       7.38187674      14.62173009      -0.32828979      -0.13380727      -0.00589394       1.45442917      -0.28934401      -0.27868505
I        5.61217665       5.89941780      12.17736567       0.10215311       0.03254528       0.06075576      -1.35240008      -0.43431397      -4.61436337
I        0.32464638       3.69690886      16.58835079       0.29782974       0.45055201      -0.06956964      -1.73346012       1.25143304       2.50366850
I        5.43433638      10.08625811      14.47474833       0.17695428      -0.06592728       0.00928022      -0.40629163       0.77676918      -3.33587141
I       -0.35431965      14.28001320      15.19564948       0.33055654      -0.01688970      -0.27862077       0.40780985      -0.35275050      -1.61102222
I        5.47038677       9.92441093       9.96128915       0.00547986       0.07963782      -0.16410461      -1.94185084       3.32131767       2.22184376
I        0.26436236      15.41425685      10.39231784      -0.11219796      -0.07255710       0.00799240       2.09106155       3.83186332       2.56727925
I        4.49936211      11.87462344      -0.35023267      -0.21375193       0.29398064       0.07228584      -3.89419837       0.52343865      -0.77996924
I        2.02735360      11.46306497      12.71167972      -0.53557533      -0.20675992      -0.03819673       0.22333411      -1.69035257       1.72021000
I       11.76935425       2.62937414      10.58984934       0.27254028       0.17895465      -0.12041421       0.95107729       3.47393965       2.99226711
I        9.45781633       7.26404369      10.45212353       0.35648986      -0.44843315      -0.21670303      -2.67048764       2.22119815       1.27765023
I       12.40822411       1.65910451      14.63269149       0.04397583      -0.01693078       0.15366142       1.45843623      -0.84596874       0.61305113
I        8.88834870       7.61206414      14.92010436       0.24112195      -0.25519631       0.26193471      -2.16511221      -4.82188342       4.13140501
I       13.56995362       5.64486635      12.81718756      -0.00156990      -0.06257239       0.24870001      -1.63405207       1.31039238       0.95269736
I        8.10387891       3.84635669      16.92558190      -0.08436651      -0.27653900      -0.20234737       0.48225267      -0.34819652      -0.92139276
I       13.00229025       9.67784932      15.52251163       0.54714302      -0.41076217      -0.39483241       0.42276253      -3.47156258       1.08019910
I        8.06069699      14.40229458      14.15636607       0.02979700      -0.26791823      -0.19073210      -1.29772629      -2.01984607       0.50736928
I       13.65921970       9.74089708      10.93621310      -0.03895403       0.09556690      -0.15194576      -2.22205569       1.83175334      -1.48837662
I        8.85623470      14.62046835      10.15138613      -0.40574213       0.16271925      -0.34584352      -0.50522475      -1.08192924       0.46398036
I       12.65720449      11.88258599      -0.15673408       0.07361978      -0.53594730       0.34750878       5.84857228      -0.59232810      -0.91418064
I        9.84616727      10.91293378      12.09195131       0.07159662       0.05172829       0.13500396       2.50057808      -1.68114828       1.24322513
Cs       2.33646776      18.94744351       2.94967962      -0.17846700      -0.17375759       0.09006912      -0.72553193       3.06296391      -0.89684894
Cs       4.43286801      19.72366459       6.58737303       0.13279926      -0.05507200       0.08201213       0.50781058      -0.01024788       0.51483176
Cs       1.45407101      23.74333936      -2.66380146       0.10547807       0.23479880       0.06181329      -4.38970002       1.95727493      -2.45403118
Cs       5.16094401      27.46696624       2.11174006       0.07808142      -0.01145318      -0.03391958       1.89476969      -1.06028964       0.77726998
Cs       8.44754341      16.77769792       2.55358879       0.11027520      -0.12452242       0.05554066      -4.32079744       2.91747532       1.96677903
Cs      13.25531036      20.70607932       7.56801799      -0.00832775       0.01394529      -0.07572721       2.40993992      -1.48199691       1.75324400
Cs       8.31803144      25.55325212      -1.89871519       0.01360435      -0.13198984      -0.01055204       1.94669662      -3.93035606      -0.15656033
Cs      12.78606484      27.39771147       1.83649275       0.12312308      -0.10636155       0.06257518       1.87190203      -1.25616346       1.62607254
Pb       2.53923519      30.09186349       5.82918282       0.27830808       1.00268973       0.17062794      -1.15491151      -0.95073425      -0.45045713
Pb       6.35603248      30.67511160       6.21398280      -0.27256337      -0.29048649      -0.13551561       0.46913228       1.32900016       0.79316790
Pb       3.55118675      22.64405355       2.32727970       0.21586840      -0.13208353      -0.31751972       1.10661308      -3.76301244       2.87400190
Pb      31.15205627      22.73074434       3.04807602       0.03789886      -0.01202332       0.20042563      -1.93005444      -3.93734330       1.62026453
Pb      10.36641291      30.58593198       6.29373850      -0.67976918      -0.54770819      -0.07971326      -1.69422571       1.64881836      -1.31829330
Pb      13.95970749      30.22850253       6.39004981       0.39773325       0.26490091       0.46235613      -2.79745322       2.20929327       1.05175762
Pb      11.31709254      22.69511950       3.10990855       0.99501845      -0.28773017       0.12796338       1.90623376      -0.65375555      -0.24966364
Pb       7.81114963      22.53190358       2.84139015      -0.86535710       0.26473437      -0.47558061       2.12011455      -1.45898206       1.83031972
I        5.09615772      16.58814023       0.85520194      -0.41760425      -0.21364892       0.16215774       1.25148537       0.89343711       0.77209757
I        1.32216531      20.85865127       0.24108677       0.34446487       0.29513231       0.00731367       0.02174178      -0.26002873      -0.91009147
I        4.28689039      16.82059731       5.69389338       0.25665376       0.07676046      -0.53554252       2.11861533       4.54190435       0.39071221
I        1.57668144      21.43962335       4.46562037      -0.15018061       0.00823170       0.18529403      -0.58544124      -1.53593748       2.06160118
I        5.82457564      20.01873836       2.79529418      -0.23885905      -0.00124055      -0.11256336      -0.11510206      -1.25448892      -1.19118695
I        0.03250192      17.79036796       6.79285846       0.47841696       0.38687800      -0.20437140      -1.23731528       1.57344892      -2.38837097
I        5.34178553      23.93088167       4.54918631      -0.11517281       0.20012125       0.07177240      -1.03915080      -3.72870898      -2.88588636
I        0.46185080      28.60434067       4.15974492       0.09023824      -0.34254610      -0.44829664      -2.23685465       2.33514677      -0.65369401
I        5.78511212      23.73508141       0.14327540       0.07271087      -0.20731566       0.28558817       1.46035300      -4.18732848      -1.01866979
I        0.33552244      28.79447569      -0.30166798       0.11867014       0.11570977      -0.16717283      -1.62690288      -0.33371031       2.32161379
I        4.47339405      27.83178967       6.75535719       0.00716792      -0.22849703      -0.03101780       1.22165134      -2.06545702      -1.54227718
I        1.78862521      25.12145977       1.75719609      -0.09657112      -0.13376593      -0.01933839      -1.22003753       0.37763046      -0.77493081
I       12.34288688      16.32107542       0.64208088       0.10915093       0.06419844       0.11223729       0.18220311       1.64122573      -0.49282266
I        9.83177743      21.11747301       1.08608031      -0.09704739      -0.46272382      -0.31204037      -0.90499453       0.38539477       0.89694882
I       12.30358887      15.55545642       4.88937445       0.34680158       0.02332866      -0.32738092      -4.75719016       2.60670362       2.93659723
I        9.22019029      21.69867678       5.23040130       0.07826113      -0.04984050       0.62800043      -4.05531799      -0.08765743       0.48049438
I       13.68897668      19.92833961       3.59889084      -0.32108681       0.48918338      -0.07669912      -3.45859856      -2.76664124       1.32317118
I        8.62112839      18.00199883       6.99484321       0.00463136      -0.00085365      -0.05716377      -0.90011257      -1.00604747       1.64857233
I       13.54697874      24.52584439       4.97253419      -0.19629217      -0.05012382       0.25406162      -2.80755633       4.61965506      -0.92890594
I        8.17060058      29.11426797       4.01381053       0.19247431      -0.05405539       0.10231505      -1.56930687       3.49417175      -0.45846135
I       13.47071234      23.86889666       1.01947731       0.00672133       0.09335058      -0.40356170      -1.79340199       3.74698685       2.87657657
I        8.91070436      28.48541936      -0.29583451      -0.31062831      -0.04333540       0.17572891      -0.00198634      -0.93141460      -0.16589734
I       12.04346737      27.86775524       7.22522689      -0.20221810       0.06951157       0.08613061       1.19893424       1.21236964       0.12998805
I        9.69476778      25.22948662       2.40210955      -0.15692358       0.02012138       0.08966017       0.25147033      -2.72702159       1.27989232
Cs       1.10622992      18.83501633      11.69607038       0.01984086      -0.07921209       0.02517730       0.66784691      -1.05647278       2.93259746
Cs       5.45985141      19.79640870      -0.73589713       0.05860339       0.06118838      -0.30692978       5.06254525       1.17183926      -2.35480023
Cs       1.44651195      25.61666869       6.16765967      -0.12254557      -0.22535620       0.01454967      -0.48864961      -0.60734334       1.13018022
Cs       4.21404424      28.60024391      10.76643992       0.06690750       0.03333181      -0.05668397       0.04402301      -5.27478238       0.12525280
Cs       8.75439564      18.46676167      12.35471177       0.21170924      -0.21840184      -0.17643177       0.45095601      -0.74269977       0.20834804
Cs      13.28574746      20.59426834      -0.99892773       0.11300831      -0.28434772       0.13670119      -3.51141006      -3.43052407       0.97611356
Cs       8.99504374      25.36919085       6.66149454      -0.10509490       0.19850573      -0.03483922      -1.38774383      -4.46520794      -1.36253111
Cs      12.93979681      27.98220619      11.15356085       0.05472395      -0.02417550      -0.02251262       0.79347586       3.71311910      -1.61921717
Pb       2.80540019      29.39179695      -2.66570017      -0.23332690      -0.22693689       0.24614794      -0.57929544      -2.73594944       1.89359352
Pb       6.70855323      29.56593292      -2.49685148       0.06717367       0.08735701      -0.15860139      -7.18183302      -2.16165401      -5.28293333
Pb       3.53289919      22.71863120      10.85797237       0.23424271      -0.19748503       0.28196724       2.11248916      -0.38297700      -0.65629710
Pb      31.31912669      23.03087429      11.50398512      -0.07518008      -0.13413522      -0.19392974      -0.67953106       1.21933647      -4.43407303
Pb      10.63499847      29.70679853      -2.61949524      -0.00867803       0.01169238      -0.37722076      -0.44640545       3.71996804      -0.32677926
Pb      14.70801956      29.31051229      -2.47156523       0.02968323       0.20480278       0.02267133       3.15159168       0.00234115       4.95693022
Pb      11.46822235      23.35466759      12.01554015      -0.22040203      -0.30791946       0.03623754      -3.91066191       2.11158348       2.35896666
Pb       7.44956073      23.34475077      11.11272348       0.09783484      -0.12562385       0.48644426      -2.45084281      -2.99462122       2.61657747
I        4.49619991      17.36221524       9.75502132      -0.13659675      -0.40881815      -0.38567880       0.13968940      -0.54251916       0.70458003
I        1.93406246      20.96782128       8.86099145      -0.35334363       0.02362637      -0.07906769      -0.31723332      -0.82944627       1.90541909
I        4.30776319      16.55235348      13.79791774      -0.25093514       0.12497528      -0.24814816      -0.43969346      -2.83280516      -0.67084942
I        1.32553799      21.76523630      13.23779221       0.11118430       0.06450241      -0.27502585      -0.60783615       0.65893291      -0.81180238
I        6.02049885      20.64696185      12.09722226      -0.13874339      -0.11086733       0.07469367       0.12397972       0.71793450      -0.35209729
I        0.09757581      18.70118538      15.61473153       0.54561542       0.25325246      -0.05518757      -1.51924245       2.58823288      -2.49628522
I        4.97118188      25.03174624      12.70177308       0.29427572       0.06132827       0.05996405       2.34187350       1.30876565      -0.96309892
I        0.44230629      29.39039521      12.18324876       0.09501997       0.25463135       0.45527197      -1.80265725      -2.00078755       1.89552763
I        5.49831972      23.31800866       8.46011937       0.19195638       0.05878061      -0.07220354       1.14751179       0.30963028      -1.33674493
I        0.58119996      30.13018194       8.20512289      -0.28422815      -0.37303608       0.25189045       1.32916714       3.34591556       1.21411790
I        4.73049750      26.85081133      -2.04590030      -0.11564598       0.36220622      -0.04446514       1.30967799      -0.60675696      -1.54174199
I        2.01319091      25.24414826      10.15252933      -0.29050802       0.61940287      -0.10517082       1.82756336      -2.39637401      -1.71044488
I       12.61150639      17.39650196       9.04425320      -0.02223359      -0.03668161       0.20351053      -2.88148401      -1.31201757       2.45991923
I       10.01138820      21.51853666       9.98790443      -0.22337674      -0.34053012      -0.36606521      -0.86835382       1.92985857      -3.05138766
I       12.29116357      15.59542648      13.86924823      -0.06599998       0.51121684      -0.67910793       1.86230499       2.22051924       2.41777641
I        9.00200011      22.97890932      14.38767319       0.05298914       0.18337517      -0.56859604      -2.32221061      -1.19736665      -1.69073653
I       13.65192944      20.65923489      12.55677362      -0.19275325      -0.06626338       0.05156115      -0.65438453       2.58453785      -2.04216685
I        8.24568769      18.50148484      16.24381091       0.03279068       0.05699974      -0.08812631      -1.51809294      -0.33815615       0.06259339
I       13.34996969      25.14325348      13.59923432       0.38824488       0.05654383       0.40045295      -2.34828622       2.06925104      -3.33154852
I        8.04409811      29.33671716      12.40888424      -0.06797779       0.49991604       0.38980890      -0.23517031      -0.35115564       0.17576095
I       13.45589253      24.01797224       9.61116947      -0.03651471       0.12702190      -0.36203575       3.29573872      -1.19003192       0.32307106
I        8.04761368      29.14673465       8.38295984       0.34015626       0.04917606       0.17819565      -0.64035087       0.33074037       1.68329333
I       12.33470558      27.12310419      -1.80356725       0.11356805      -0.20594819      -0.06998365      -1.11964387       0.06727689       1.44011168
I        9.78882270      25.64046979      10.39606252      -0.11485111       0.24955670       0.12451831      -1.10621989      -1.27276944       4.16677262
Cs      16.95363082       1.96834911       4.65866155       0.04001368      -0.01481353       0.06751325       2.01427243      -3.75583242      -1.68700447
Cs      21.56879467       5.76059456       9.13124564      -0.02349722       0.06249997       0.06213819       1.39224027       0.76230547      -0.98966276
Cs      17.55436328       9.80252688       0.32898378      -0.09676404       0.00524689      -0.12337260       1.21433914      -0.47549175       1.73392286
Cs      21.04026121      12.17585443       4.03172947      -0.02515122      -0.02611055      -0.04872363       0.99031905       2.08764131      -0.28883915
Cs      24.75813584       2.17526306       4.42943432       0.05023471       0.10713504       0.10219113       3.29184210      -2.37354245       0.09462933
Cs      29.52969345       6.29790581       9.16457962       0.01442279      -0.06308555      -0.11820330      -3.57898044       4.04020441      -0.23254818
Cs      24.51910748      10.59311314      -0.20807761       0.08497660      -0.08085053       0.06149200      -1.80081727      -1.08554409       2.72559384
Cs      29.18984343      12.63495790       4.33925625       0.02301031      -0.02967153       0.10182139      -0.99980358       4.57451778      -0.06020525
Pb      18.52741439      15.57303377       7.92545768       0.70881627       0.14856941       0.38523753      -0.84939596      -1.33042379      -0.55879818
Pb      22.62068577      15.91673827       8.01290570      -0.93888561      -0.31232294       0.51133608       3.30517210       3.49894578      -2.01186276
Pb      19.93317385       7.17391991       4.80525131      -0.29362984       0.36735011      -0.32980237      -0.46512153      -0.37107197      -5.34170567
Pb      15.83574999       6.96619551       4.49770745       0.25794385      -0.16735202      -0.12592892      -1.12851484       1.02514416      -1.39754167
Pb      26.14613815      15.60834314       8.28471282       0.60830025       0.09188086       0.41477674       0.24037150      -7.66460674      -4.68612940
Pb      29.96502348      15.47006172       8.22913747       0.56746443      -0.47829212       0.43105411       1.22064698       1.35784525       4.14783496
Pb      27.70070184       7.97579285       4.62602902       0.32019585      -0.40057277       0.06571047      -0.76063508       1.60424119      -0.75829596
Pb      23.94537858       7.34791589       4.12196207       0.07072669       0.04217938       0.37330280      -0.00748965      -1.58154996       2.38878816
I       20.88755767       1.38962211       2.69882029      -0.00259065      -0.30014263      -0.30229964      -2.83359114      -0.64997831      -0.11386608
I       18.36137602       5.18132468       2.84703437      -0.56701179       0.12988307      -0.04208933      -1.21240261      -0.40532627       3.29773341
I       20.31059715       0.78543817       6.72860644      -0.22513637      -0.13955910       0.38214182      -1.72241409      -1.18589298      -0.38601735
I       17.90117634       6.46850612       7.07149907      -0.32623324      -0.06557635       0.06968727       0.76641629      -0.45452933      -0.81172372
I       21.99305064       4.97376913       5.26413852      -0.06086634      -0.31797862      -0.13784068       0.60322070      -2.47240923      -2.46256376
I       15.93174836       2.83060019       8.54157125       0.25863886      -0.25982044      -0.00976702       0.09632575       1.23494926      -3.61204908
I       22.02310496       8.76068918       6.39910468       0.00553388       0.44317671       0.37651485       1.46211415       4.52053804       0.52777413
I       17.05613559      13.69298985       5.96310617      -0.17816992      -0.34698002      -0.20795559      -0.72620012      -0.60134295      -0.63203256
I       21.47320973       8.51359405       2.21304666       0.15123915      -0.07684191      -0.14567658       1.33874814      -0.45555911       4.41608148
I       16.81297452      13.39597367       1.71078880      -0.01054081      -0.21057138       0.18542273      -0.90404046      -1.28652445       1.58980674
I       20.78769462      13.30991153       9.16070186      -0.41188178      -0.14952389      -0.19620365       1.53143020      -1.62071805      -0.16405310
I       17.79154586       9.88519657       4.03020901      -0.25707769      -0.75881073       0.27323871       0.71732781      -1.68281567       1.80456857
I       28.37785323       1.21086949       2.39944874       0.10749331       0.08854941       0.15537110      -2.54449498      -0.99806064       3.08561491
I       26.25524022       5.84874435       2.52868656      -0.14491293      -0.04490965      -0.05296750      -3.13231076      -0.58240182      -0.99143571