320
Lattice="36.61494431704515 0.8521064442996575 0.6472952383376436 -0.4899562435077865 21.43320960287554 0.4582089290160639 -0.349194964961731 -0.4123068262220005 19.635594233834194" Properties=species:S:1:pos:R:3:forces:R:3:momenta:R:3 energy=-977.2590655080339 stress="0.0 0.0 0.0 0.0 0.0 0.0 0.0 0.0 0.0" pbc="T T T"
Cs       8.10741608      19.30563944       0.71249555      -0.17683158       0.02233906       0.25299812       2.45764317      -3.04744896      -3.67714606
Cs      14.63753581       6.83807737      18.01192808      -0.05975236      -0.03199192      -0.07442797       0.11966714       2.41834903       0.00222220
Cs       5.33324643       3.26744020       0.56325196       0.14197302      -0.13160243       0.02808793       1.04076367      -3.83420026      -0.64782910
Cs      17.10371780       1.26356345      18.17242322       0.17495955       0.09296206       0.09222920       0.06187161      -1.22664432      -0.06388972
Cs       7.72829158      19.13466588       6.11355627      -0.05692117       0.08775327      -0.18035198       1.36029471      -2.12145365      -0.75267644
Cs      15.05459474       7.02597644       3.07302493      -0.21735314      -0.06490804       0.29874608       2.12042563       0.57436829      -1.13966110
Cs       5.96766794       2.89939411       5.41653225      -0.45743453       0.00769346       0.08349702       0.65370989       1.23020809       0.23193034
Cs      17.34223229       1.52637187       3.51470616       0.09952458       0.18058741      -0.15763364      -0.15616286      -0.08449651      -1.20331016
Pb       2.84862642      19.80224197      18.13579517      -0.09502638       0.03478753       0.14188023      -3.04737668       0.00375775       1.92779678
Pb      19.83459406       6.27897822       1.12993007      -0.46904944       0.03372839       0.21993789      -3.03729528       0.59632732      -2.80207269
Pb      10.58006605       3.83996565      17.96872075      -0.78105318      -0.08177155      -0.01232720      -0.31653933       0.14734183       0.82302066
Pb      13.00915091       0.82389250       0.63152877      -0.39252708      -0.31860931       0.44501195       1.00414384      -4.27086767      -1.65350298
Pb       2.83161996      20.10980977       3.64317587      -0.29109069      -0.12678052      -0.40512655       0.01628200       4.71078833       0.00744425
Pb      19.38894735       5.62017540       6.01738988      -0.18732510       0.34354837       0.08061532       1.77912659      -2.57180350       1.23690825
Pb      10.48857070       3.96515829       3.24335727      -0.16181941      -0.42800353      -0.04304101      -1.64141935       1.35901537      -0.63032634
Pb      12.60629117       0.23127691       5.50957716      -0.59073214       0.40906205      -0.09650047      -0.42896320       1.10105997      -2.59941995
I        2.30600564       0.53738904       0.56914716       0.24049542      -0.21822144      -0.17002001      -1.55168835      -0.41943684       1.63465068
I        1.98171969       3.71827987      18.03826554       0.08252661      -0.06334107      -0.21754812      -0.68667861      -1.35674960      -1.05600877
I       11.98223356       5.61905564       0.68545522       0.07110386       0.49078331       0.35169352       4.42557432       1.02092614      -1.33018849
I       11.14659778      20.05887012      18.37935619      -0.08076566      -0.18963741      -0.32216284      -0.89183484      -0.96155523       0.73014085
I       18.09686383      18.43781008      18.35246862      -0.29478438      -0.19766692       0.06381381       2.77841379      -0.03398027       1.03671172
I        4.27941342       7.10877762       0.75243122       0.09343077       0.38007584       0.08411333       2.68233245       0.14433166       2.66565255
I       13.31130726       2.32357396      17.67705707       0.32192786       0.07665581       0.06726449      -2.23626800      -3.56692662      -0.15741428
I        9.66828193       1.96765449       0.52169101       0.31526387       0.18829973       0.09440966       1.14131628       1.67127291      -2.97532431
I        5.75812631      21.04453463      18.15640191      -0.21746884       0.00841858      -0.08185103      -1.51941471       3.12373896       0.48115495
I       16.83684225       5.02207739       0.93597683       0.17288177      -0.31594869      -0.04917697       2.80808427      -2.82706434      -0.22430020
I        7.49941362       5.10306139      17.78929715       0.21375960      -0.06055416       0.19146220      -1.38476463       2.83336002      -3.11324704
I       15.26538095      20.62957744       1.44301303      -0.26753675       0.01915319      -0.18844745      -2.14371060       0.48877700       1.08180942
I        2.02047988       0.26636125       5.50251307       0.19819949       0.02391910       0.20134835       0.90585099      -1.98265674       1.20332587
I        1.90998966       3.77310414       2.90358112       0.21072243       0.28991046       0.43681330       0.44214756      -3.83409512      -1.33316713
I       11.61210189       5.56045923       5.74455195       0.03593983       0.47799381      -0.15060254       0.92297912      -2.38844636       3.98507320
I       10.76520658      20.10366317       3.33663339       0.36543011       0.30245340      -0.00751310      -0.45882199      -0.78667904       1.26097856
I       17.83579513      18.54063266       3.39820571       0.30949723       0.31753233       0.16824477      -1.30570804       3.08547540       0.96294407
I        3.78533963       7.11726038       5.47289945       0.27745757       0.10020123       0.21354594       1.77752682      -1.20788157      -1.87817006
I       13.56270809       2.45035235       3.48895679       0.04534720       0.20737770      -0.13711889      -0.98127442      -0.13759870       2.04096139
I        9.54748249       1.87917533       5.44280443       0.12654178       0.14406061       0.21483533      -0.09726465      -1.78099534      -0.35631953
I        5.51879505      21.44845250       3.43057965       0.43189663       0.06361777      -0.02005627       0.37365538      -0.33992525      -0.09906351
I       16.47166835       4.39171984       6.00811309       0.30097304       0.04942905      -0.06802022       1.87314594      -1.01691700      -1.35042419
I        7.57116665       5.18097073       3.21591485       0.18623325       0.28911716      -0.19011882      -0.40660241       1.80291687      -1.59574875
I       14.75305167      20.39666577       5.84667827       0.40001891      -0.26854113       0.25495681       0.24765432       3.13960913      -3.06302348
Cs       7.36431653      18.96243375      11.22619967       0.14050847      -0.05719420      -0.29307358       3.17808320      -2.13087248      -0.67453580
Cs      14.20581347       6.96193783       7.98764269      -0.01220021      -0.06581207       0.11984646      -0.36447731      -0.23624857       1.50512233
Cs       5.56814110       2.64938383      10.55080724      -0.16227015       0.13162356      -0.03967362       0.46170662      -1.98957324      -1.73278428
Cs      17.54807505       1.00942375       8.37399138      -0.16326389       0.20496091      -0.09542280      -1.37339623       1.51959671      -0.09420235
Cs       8.37891560      18.48928587      15.57121127      -0.28249116       0.14795994       0.45502830       2.28851164      -1.31672812      -1.26662302
Cs      14.35523736       6.69199174      13.08786258      -0.07138761      -0.00875049       0.16171138       0.93924681      -0.40278594      -5.03696647
Cs       5.15305600       2.89584218      15.69498490       0.04247948      -0.03527269      -0.21198766      -4.87689149       0.72145659       1.30204552
Cs      17.73882819       2.15378330      13.10946004      -0.29301325      -0.40692876      -0.00245976       0.27518121       1.44057299      -3.34722355
Pb       2.86597771      19.75626271       8.47377376      -0.28446355       0.32029863      -0.19285134      -4.87179764       3.03975686      -3.18416609
Pb      18.94354760       5.90413440      10.97899674       0.42914213       0.30902661      -0.13671277       0.34813887       2.73641599      -1.28826243
Pb      10.63121931       4.01875733       8.28784256      -0.67476626      -0.17310927      -0.48536566      -2.29848446       1.12722795       4.79814109
Pb      12.01918660       0.54348719      10.36453001       1.02494808       0.00833714      -0.15973040      -2.15405358      -0.78844094       0.51378784
Pb       2.98478890      19.33053175      13.36047063      -0.55174964       0.31290621       0.11803377       1.21441146       2.42437406       0.83604866
Pb      19.49544751       5.64913189      16.23892126      -0.50779134       0.21892200      -0.34187170       1.16968075      -0.01217971      -1.84792990
Pb       9.84435382       3.63681841      13.29138861       0.16654949       0.48326359      -0.22068536       0.35873231       3.33472107      -1.26553604
Pb      12.59352417       0.42609995      15.18978802      -0.04790474      -0.02634075       0.14544164      -0.50889250      -0.24300888       0.44090927
I        2.41222226       0.24473629      10.61860623       0.06937672      -0.21189283      -0.02913821       2.64097079       2.65933627       2.69426388
I        2.16120522       3.86729664       7.79962345       0.03645215       0.14799237       0.30034684       1.31220597      -0.80221423       3.07937575
I       10.99019642       5.72383764      10.72059129       0.18444814       0.10309436       0.06380641       1.93615603       1.18121814      -0.25170343
I       10.57271926      20.10558281       8.53910242       0.11386136      -0.23980975       0.16661872       2.45989068      -2.67837764      -0.15315854
I       18.22689152      18.63800804       8.31908645       0.02714571      -0.02784726       0.40609063      -1.83901117      -1.05028853      -3.01291184
I        4.02320627       6.87687912      10.48636686       0.10203678       0.44100955      -0.08740809      -1.89653470      -0.75567029       0.48816461
I       13.49861354       2.51774357       8.00221363      -0.16179013      -0.26464482       0.07048513      -1.48741665       1.25247529      -3.78723792
I        9.18179319       1.81082172      10.33647658       0.01814671      -0.07583649       0.31442812       0.16976027      -1.25062639      -1.03538780
I        5.52250198      21.41187851       8.58028150      -0.01885136      -0.27360784      -0.06714042      -1.10007893       1.74884924       2.37012765
I       16.21648308       4.82906133      10.76077914      -0.27833031      -0.48769633      -0.19496053       0.99007781       1.23955587       2.34176815
I        7.58282223       5.27210574       7.79039252       0.15143922      -0.07159278       0.21581358      -2.80144892      -0.44506433      -0.43454475
I       14.90999432      21.01139040      11.10457614      -0.76516592      -0.02744849       0.11017857      -1.01037600       0.09463625       1.97156354
I        1.81970962      -0.03553826      15.09503205       0.39722857      -0.09119479      -0.18508832       1.05177483       0.63284556       1.44380302
I        1.96218487       4.21602293      13.01969236       0.42355168      -0.69038633      -0.06381953      -2.28225314       2.71984665       2.48235473
I       11.32875417       5.73956934      15.41387101      -0.16305718      -0.16077158      -0.13251096       0.58970843      -1.50684869      -0.87492014
I       10.67543026      19.99538033      13.20462278       0.05832529      -0.09982535       0.19968319      -2.23086542      -2.99864839       2.52942057
I       18.12032300      18.50125638      13.41418335       0.09125755      -0.23188648       0.28920136      -1.43839550       0.92378225       1.57946369
I        3.88059475       6.91575031      15.77228754       0.25552883      -0.09499607      -0.17985741       1.08209578      -0.62205868      -0.92020904
I       12.84715571       2.70321633      12.85188957       0.37997424      -0.27008954       0.09631935       0.11491961      -1.71895344       4.40750368
I        9.34333165       1.81386499      15.71285659      -0.02136605      -0.39726096      -0.25705442      -3.10615631      -4.08248876       2.84509450
I        5.63141255      20.83111959      13.97389772       0.13843605       0.28043627      -0.24183865      -1.92538361       2.86207357      -0.70218822
I       16.58167797       4.18593825      15.74667714       0.19671295       0.28326757       0.11056090       1.93285029       0.15206739       1.31471385
I        7.24052996       5.39499071      12.67585162      -0.24452717      -0.10239496       0.38750035       2.18519152       2.12115394      -0.61739557
I       15.01517414      20.63117789      15.90907530      -0.25124717       0.05645353      -0.08376831       0.10322185      -0.74251177      -0.60858863
Cs       8.71869505       8.52155170       0.70626588      -0.19476510      -0.16185297       0.05470962      -0.70932169       2.29046967      -1.26247661
Cs      13.72308400      17.15913949      18.20823339       0.16289462       0.07505595       0.21485933       0.97254638       1.04276091       1.51463096
Cs       4.69550274      13.49716958       0.94596177       0.32495120       0.25988865       0.00951717      -3.45469427       1.83765075      -1.96267916
Cs      17.07563296      12.02746896      18.35614468      -0.10585657      -0.01619595      -0.14457563       1.22235658      -1.79093574      -1.01307117
Cs       7.81739976       8.48095874       5.64460203       0.21570308      -0.21567345       0.00620537      -5.04818155       2.07801279       1.22296504
Cs      13.92186835      17.39790622       3.59044262      -0.01668327      -0.04045957      -0.04520452       3.09486016      -2.23252164       1.98846144
Cs       4.95912454      13.83277432       5.74856701       0.13497471      -0.03300134      -0.07655184       3.41563924      -3.60272918      -0.89163981
Cs      16.88952137      12.64553597       3.51057258       0.15967538      -0.19652754       0.04732325       3.00296879      -1.95007716       2.05467719
Pb       3.06540931       8.75048402      18.08685102      -0.10460049       0.43578887      -0.07099768      -3.05673328      -3.13637817      -1.90972757
Pb      19.16878522      16.90010200       1.17518713      -0.22020473      -0.56847536       0.07232269       2.71332534       0.78429085       2.30932977
Pb       9.56919904      14.04461354      18.08361952       0.37212880       0.11533152       0.41509304       2.49723788      -3.83665025       5.83696233
Pb      12.27457793      11.14212422       0.83734107       0.04987096       0.16260926       0.09541684      -0.72154051      -4.70276711       0.20774292
Pb       3.27995289       9.38216189       3.29637172      -0.27968405      -0.28072440      -0.25624492       0.13845138       1.98714631      -0.94203364
Pb      19.18836743      16.53863577       5.87972428      -0.23250612       0.29763330       0.32817384      -5.04253581       2.61479900       1.64200099
Pb       9.87975703      14.89319302       3.46560012       0.45095751      -0.22573222      -0.04728293      -0.44993404       0.38660828      -0.62377641
Pb      12.24856668      11.09653953       5.69230250      -0.49129521       0.48422909      -0.16274032       1.62011562      -1.68237506       0.59277952
I        2.37246219      11.36649925       0.70695386      -0.18583954      -0.23436374       0.22438968       1.74681488       0.31937578      -0.78916268
I        1.55401953      14.20340626      18.00278849       0.18165145       0.07831806      -0.12914672      -1.97558011       0.40848728      -0.13832310
I       10.76410468      16.83878907       1.10951941       0.09804978      -0.42392983      -0.68702106       0.11374298       1.03129649      -0.52042616
I       11.32818273       8.74484120      17.91029577      -0.04866811       0.39833496      -0.17540864       0.25564638       0.63712607      -0.35956507
I       18.22092030       7.94373369      18.51171733      -0.07671363      -0.23855635      -0.30583647       0.96322910      -4.00783643      -0.19596298
I        3.48224030      18.10573738       0.96625198       0.52239930      -0.06840138      -0.07245724      -0.71137249      -0.29032836      -0.93974206
I       12.76939584      12.76169610      18.27480636       0.06822346       0.27532641      -0.03651925      -0.96196297      -3.12004345      -3.07243065
I        9.24732670      12.71607462       0.98451815      -0.13748107      -0.15455352       0.10560274      -2.71440138       2.15838601      -2.13658635
I        5.80363718      10.50024240      18.08364288      -0.24821487      -0.27447756       0.17462911       0.49275253      -4.26227860      -0.48132081
I       16.35902254      15.25559550       1.15593053       0.24835366       0.32114858      -0.17656591      -1.67012423      -0.07758037       2.14380352
I        6.94616948      15.49118963      18.35413078      -0.24336275       0.09984031      -0.18855549      -0.35059161      -0.40922403      -2.54064756
I       15.21312228      10.07502144       1.13588945       0.11922892      -0.01110131      -0.10374686       0.67788531       0.75263561      -1.70963762
I        1.78365866      10.88469750       5.54119624       0.20244676       0.08786765       0.13744393       0.10847319       3.61836208      -0.40618288
I        2.09079545      14.91192853       3.39933952      -0.03082134      -0.31666931      -0.18204743      -0.93475783       1.93321457       1.83815172
I       10.73043762      16.73137302       6.18892831       0.20578059       0.00337563      -0.20017691      -4.87268300       2.87068485       3.76084149
I       11.13801581       9.17983352       3.26575722       0.10008020      -0.01940777       0.15101241      -2.44675223       1.31092906      -1.63689160
I       18.65960436       7.92262366       3.97860069      -0.04292013       0.06047365      -0.45483416      -1.84653381      -5.01556491      -1.01801675
I        3.79995517      17.91469989       5.95760285       0.04117074       0.05212920      -0.01049426      -1.19268910      -0.60267787       1.16247588
I       13.16159898      13.41757098       3.23493953      -0.30412999      -0.32819656       0.22846048      -3.87056110       1.82747269      -0.69514150
I        8.99110683      12.83668420       5.80907241       0.08042006      -0.26080637       0.05240415      -2.33656656       1.72047375      -0.49560253
I        6.08074498      10.58170803       3.36349236      -0.07479182       0.12252560      -0.07990622      -2.02810340       4.65962416       4.61794426
I       16.41891403      15.23992146       5.85136679      -0.40387530      -0.04791760       0.24764060      -2.57458054      -0.33658167       0.14326935
I        7.30399111      16.15557836       3.27699044      -0.60694604       0.15764320       0.02252074      -0.43947215       1.60798527       0.43056391
I       15.05724596      10.18391071       5.96944967       0.18545238      -0.29665347      -0.08573129       3.00271190      -3.32851329       1.22122850
Cs       7.71869067       8.49795523      10.38890800       0.12583380      -0.15630933       0.10902252       1.04047345      -1.22008488       4.41219656
Cs      14.07758455      17.55884417       8.89152314       0.10576438       0.10892680      -0.31041430       6.19244592       1.57846591      -2.75869723
Cs       5.21851091      13.72836742      10.66293915      -0.03485262      -0.18962675       0.18697455      -0.28064922      -0.34138336       2.17109380
Cs      16.97426139      12.24053327       8.49716203       0.03997831       0.04822524       0.02879529       0.09619218      -5.47930057       0.44222598
Cs       7.49366297       8.34888628      15.83970045       0.36772596      -0.26368627      -0.22676290       1.58983695      -1.98955000       0.02480181
Cs      13.81519362      17.88124919      13.52134067       0.25008355      -0.03201064      -0.10834594      -3.17556715      -2.19311311      -0.59461789
Cs       5.07342733      13.19855234      15.74711846      -0.12236738       0.15338466      -0.08483647      -1.14010198      -4.23248972      -2.36691591
Cs      17.00345264      12.41756326      13.18628849       0.00034036      -0.23604936       0.07135837       1.14435433       2.36873568      -0.96525348
Pb       3.02716045       8.96567459       8.05254413      -0.37334176       0.05144124       0.22654349      -2.01736897      -1.14500624       0.76886355
Pb      19.07310543      16.53121382      11.00504232       0.31874904       0.63971132      -0.15096876      -2.15170642       0.99268167      -7.42122590
Pb       9.85128261      14.63811511       8.30524672       0.05380131      -0.30307621      -0.09159228       2.88610127       0.09031332      -3.54823729
Pb      12.10244741      11.09026009      10.71856556      -0.12220633      -0.34950287      -0.26782805      -0.21108567      -0.40085265      -4.53277848
Pb       3.06259081       8.98789983      13.15864250       0.22338752       0.10322656      -0.02127547      -0.39596706       2.95333629       1.78207487
Pb      19.00552921      16.19924286      15.99261220      -0.16196940       0.23432937      -0.38286520       1.86925070      -1.40009108       2.00044577
Pb       9.86256793      14.41108559      13.20224441      -0.28175214      -0.14812092       0.00922170      -4.60748882       3.54749296       1.20624850
Pb      12.11631127      11.09344604      15.32552672       0.14319196      -0.45092386       0.60059959      -3.47239691      -3.73729072       3.07005713
I        2.20633005      11.04812601      10.94038403       0.04312208      -0.32249099      -0.46166803       0.31810967      -0.10794266       0.10324681
I        2.18517945      14.28908475       7.80615519      -0.28370953       0.24572666       0.05201880       0.92362220      -0.63433319       1.11794674
I       11.05279003      16.22303097      10.97057719      -0.13553290       0.25307963       0.04361647       0.36238835      -1.45029153       1.51100992
I       10.69553872       9.40888920       8.13384874       0.30256590      -0.01182209      -0.05806228       1.25251147       1.84085757      -0.88902991
I       18.37395905       7.73598787       8.27684409       0.07938824       0.17332502       0.16039099      -0.09498135       0.77742627       0.52272185
I        3.69323212      17.50747929      10.54445261       0.41368227       0.23070413       0.14560375      -2.32150406       2.16451345      -1.70617460
I       12.83297543      13.21997934       8.14979610       0.18591725      -0.18118834       0.32214142       2.51348062      -0.34380266       0.50141573
I        8.86193605      12.29797557      10.66114988       0.26399023       0.30057980       0.30114751      -1.17506229      -3.18414947       1.99544851
I        5.54162283      10.56649819       7.96305369       0.23411572       0.15570716       0.03682886       3.50936612       1.75242687      -0.14884195
I       16.28573134      15.53378067      11.04101496      -0.44886684      -0.38250200      -0.03335153       1.66239846       4.01053194       0.54797436
I        7.06804130      15.87999093       8.35755174      -0.21100801       0.26255331       0.05847211      -0.95914526       0.28138955      -1.11227738
I       14.94689629       9.53443947      10.65730968      -0.23455670       0.37689480       0.08513873       2.06253063      -1.97979278      -1.85592404
I        1.97667890      10.92533626      15.48243723       0.14136028      -0.33247170       0.12082383      -1.27542020      -1.72249158       1.68750919
I        2.10208072      14.71589096      13.00910892       0.08356904      -0.34818567       0.29421517       1.45747307       1.67845488      -0.35902033
I       11.14482369      16.07895343      15.97118711      -0.18558375      -0.08248080      -0.43092776       2.04772468       0.55976125       2.16773156
I       10.93072402       9.15350352      13.37255710       0.14053005       0.08334925      -0.59334618      -2.43996358      -2.57513959      -0.76475850
I       18.33128976       7.77274710      13.50663008      -0.06296646      -0.16611700       0.20319688      -0.40657340       1.26090307      -0.24434751
I        3.86469269      17.46224030      15.79506263      -0.02951527       0.19923415       0.18945785      -2.11403072      -0.65609184       1.33246354
I       12.64115547      13.22820979      12.93286238       0.55922398      -0.00154858       0.18763349      -1.42977896       1.97916404      -2.99526503
I        8.92487620      11.89000718      15.42897551       0.10817385       0.61816071       0.30422704      -0.18381383       1.36289249      -0.24362898
I        6.00582096      10.28089332      13.41731267      -0.25824289       0.15770169      -0.29000393       2.23195660       0.48568794       0.16730279
I       15.91928432      15.12635796      15.75150781       0.24398390      -0.01152235       0.09333107      -2.14941575      -1.11013823       0.72490560
I        7.08424623      15.94624644      13.62193887      -0.11171768      -0.12268526      -0.22687630      -1.08566513       1.69782163       0.57594495
I       15.09375409       9.84643840      15.41042110      -0.14589202       0.11922571       0.03538987      -1.21244303      -0.91161549       3.58340530
Cs      26.37472471      19.44214905       1.21206595      -0.00363293       0.06550377       0.20841776       1.49651222      -3.31287430      -0.80214801
Cs      32.89489917       6.99325037      18.37448359      -0.14451746      -0.07104820       0.00896234       0.62478675      -0.18785987      -1.22627011
Cs      24.32712208       3.20579348       1.39246571      -0.08338676      -0.00873343      -0.13009781       1.48981282      -0.06454087       1.13658371
Cs      35.54524606       1.77418958      18.33611272       0.10292132      -0.00044499      -0.12500539       2.37544194       1.57423860      -1.33012576
Cs      26.33967236      19.39850750       6.42551485      -0.06831594      -0.04026364      -0.19316076       2.51158538      -3.40847802      -1.55344282
Cs      33.08859860       7.71016763       4.02840942      -0.05166207      -0.24129478      -0.15735707      -3.82144910       3.76681939      -0.01600541
Cs      23.30012847       3.45208710       5.98846851       0.16880724      -0.07949082      -0.05125377      -1.11548682      -0.60767969       2.58088128
Cs      35.72100909       2.60347126       3.31181823      -0.02936822      -0.26060001       0.26445229      -0.50496903       2.98777708       1.71935045
Pb      20.89563580      19.63402174      18.68628253       0.49161660       0.42467436      -0.06298861      -1.43625846      -1.95370896      -2.65002457
Pb       1.27676606       5.98566122       0.70606686      -0.54537898      -0.43587426       0.30542162       3.89823306       5.05749811      -0.57795690
Pb      28.92839384       4.35300690      18.61419062       0.17524946      -0.10241753      -0.70161529       2.64819269       0.27770328      -5.89716249
Pb      31.24621175       1.34938758       1.11647808       0.14809246      -0.16386455      -0.46304998      -0.34927221      -0.07999324       0.67782348
Pb      20.93115167      19.99519586       3.87503625       0.55109009       0.50852970       0.09730285      -0.94347398      -6.59753732      -6.01766079
Pb       0.63662405       5.93413365       5.44284165       0.16933044      -0.82259580       0.03048363      -1.51486034      -0.97287415       1.80256098
Pb      28.67564419       4.70767669       3.64469092       0.58021305      -0.37719626       0.12798085      -0.08854236       2.90747392      -0.54430388
Pb      30.97719391       0.94204842       5.54907053      -0.18100824       0.33369741       0.22403385      -1.11065658       0.34743586       2.31552593
I       20.82233383       0.76793610       1.04506390      -0.04974766      -0.27833836      -0.12035395      -3.73976165      -0.53561651      -0.53408936
I       20.84142991       3.84827974      18.48842670      -0.26145684       0.14648876      -0.08763920       0.74759789      -0.62653567       2.64670297
I       30.49690495       6.32582350       1.19891498      -0.21492263       0.31218475       0.19660894      -0.77978502       0.54863117      -0.60640141
I       29.50249037      20.31766848      18.70600547      -0.21156337       0.01672037      -0.05235178       1.28692595       0.08940339      -3.19795066
I       -0.25976677      18.34106539      18.00436441       0.01671325      -0.22753355       0.06338048       0.34725757      -0.64279333      -2.70633452
I       22.49946919       7.81985356       1.22236795       0.24295889      -0.02143693      -0.01018443      -0.49844980       2.06387562      -4.08880181
I       31.93086341       2.52327797      17.74742864      -0.23943275       0.34129759       0.32034603      -0.38839415       4.41663377      -0.81175907
I       28.07988318       2.79853477       0.99101961      -0.14372377      -0.40600262       0.22234005      -1.44301733      -2.04940147       2.14609005
I       23.75472482      21.22610838      18.85654849      -0.04933794      -0.10700224      -0.15341801       0.19288251      -0.19069763       3.03955308
I       35.12441474       5.10692058       1.27560138       0.05412334       0.35288554      -0.07142723      -1.89176369       1.36058963      -0.07696088
I       26.06052591       5.43886807      18.57631704      -0.48410138      -0.20508045      -0.07255692       1.59404013      -2.00785190       0.84047454
I       33.56062283      21.51046848       1.18935077      -0.15243617      -0.24615654       0.30428069       0.43080766       0.36966621       1.78069311
I       20.40535108       0.61676454       5.86803749      -0.00886083      -0.09613815      -0.26241042      -3.86055999      -1.13961905       3.02736519
I       20.74262747       4.26703310       3.30122064       0.08974961      -0.30368530       0.13055105      -2.55662903       1.00395043       0.01545758