320
Lattice="36.61494431704515 0.8521064442996575 0.6472952383376436 -0.4899562435077865 21.43320960287554 0.4582089290160639 -0.349194964961731 -0.4123068262220005 19.635594233834194" Properties=species:S:1:pos:R:3:forces:R:3:momenta:R:3 energy=-977.701114344184 stress="0.0 0.0 0.0 0.0 0.0 0.0 0.0 0.0 0.0" pbc="T T T"
Cs       7.96658297      19.56629994       0.70008702      -0.00945139       0.13735015       0.30588655       1.86324890      -2.35547162      -0.62294414
Cs      13.98676245       6.63776455      18.18361024      -0.02378747       0.20928723       0.07249878       2.57905987       0.96676638      -1.98611766
Cs       5.42972031       3.70826480       1.01027409      -0.14580440      -0.22728168      -0.02648535       0.97769745      -0.93072282       2.40381654
Cs      17.09044615       1.93836997      18.04963502       0.06319674      -0.04853484       0.16169749      -1.75409895       1.92751594       2.20102348
Cs       7.85024781      19.43089741       5.86227619      -0.03762945       0.16493044       0.00549431       2.98206793       1.60185511      -1.00449479
Cs      14.40132132       7.40143460       3.52547192       0.08394376      -0.18418964      -0.01769494      -2.93394764       1.69271611       3.51782783
Cs       5.29772752       3.23809787       6.15741186      -0.07920939      -0.10078236      -0.26792835       3.82192441       0.11367914       3.05309681
Cs      17.90356392       1.71435624       3.35875819      -0.18709115       0.09429058      -0.08500559       3.09420116      -1.84361147      -1.54058527
Pb       2.58350020      20.09257126      18.07076790       0.05396870       0.09088152      -0.07514800       1.19163731      -4.02244313      -3.73527976
Pb      19.44428841       6.76790782       0.83415154      -0.25845390      -0.13143862       0.23552287       2.96670275      -1.64809063      -0.06229259
Pb       9.90586317       3.59492555      17.99951781       0.05978750       0.15079832       0.24627449      -0.11312157       3.26690108      -4.50424014
Pb      12.60938754       1.33839556       0.75907163       0.05594792      -0.39608248       0.03455845       1.18638909       0.50867751      -2.94366111
Pb       3.04182593      20.33896109       3.36596343       0.30857405       0.06231589       0.11394729      -0.88358340      -3.22037327       3.09346340
Pb      19.44632412       6.26274162       5.97368062       0.41708865       0.38520486      -0.25795507       1.65353771      -3.30747326       1.87819852
Pb      10.16525813       4.01563415       3.56027221       0.14124222      -0.16565901      -0.18305029      -0.96058986       4.85729658      -1.50936007
Pb      12.62887254       0.90869006       5.86987031       0.08580681       0.29473719      -0.21431449      -0.12564836       2.18857756      -1.66808992
I        2.45499083       0.80763989       0.66600779      -0.20909817       0.13281038      -0.13414378       0.27651904      -3.30594755       2.55984982
I        1.66534790       3.95259751      17.82627861       0.21455873      -0.21263600      -0.05337609       2.97647053      -0.31168601      -4.09013052
I       11.28930405       5.94112255       1.13046168      -0.11480463      -0.06119383      -0.29778618       2.14968944       4.05329557      -1.25444415
I       10.58262804      20.32456601      18.31066523       0.28251355       0.15500020       0.03354084       2.27769451       0.81021776       0.86085109
I       17.85601343      18.73586220      18.62052805       0.28750580       0.21772710      -0.12600315       0.42485023      -2.91370177      -0.14683954
I        3.89594065       7.51872021       0.56942113       0.43546089      -0.10608749       0.28322495      -1.27467434       2.04018934       0.39508827
I       13.15239150       2.62103749      17.71368651      -0.18631265       0.12768920       0.07604935      -2.24700883       0.51834450      -1.82677736
I        9.26229739       2.05933389       0.82826687       0.21956233       0.20822060      -0.10221448       4.45341316      -1.48631007      -3.46859775
I        5.29416919      21.71159339      18.33027434       0.06129624      -0.04925736      -0.09132441      -4.32639461      -3.98526629       2.39049020
I       16.68142734       5.09738911       1.01546147       0.06822932       0.03949118       0.05307415       2.86583537      -0.34384272      -1.29827351
I        7.06683390       5.02603413      18.41834887       0.05851434       0.14840205      -0.25817179      -0.58538214       1.76482778       2.13533279
I       14.81168355      21.09635505       1.20221724       0.09463793       0.12266976       0.03106889       1.71837159      -0.25872796       1.45967297
I        2.23038787       0.49046429       5.47861242      -0.04113903       0.10997686      -0.08440110      -1.32189910       1.95377488      -0.52355742
I        2.29999218       4.41768340       3.28655205      -0.23373662       0.08091785      -0.13807906      -1.81903562      -0.85554612      -3.45956013
I       11.23090819       5.99282785       5.68263403      -0.00674428       0.12415278       0.20367575      -1.72575153      -0.45230787       3.22637127
I       11.24122651      20.71369538       3.67991649      -0.07193488       0.06738667       0.06898152      -0.79738073       0.18471920      -1.26301889
I       18.42576279      18.91552873       3.59000208      -0.14815533       0.24533187       0.27384091       0.14115927      -1.04366466       0.37372212
I        4.12708790       7.39548384       5.73245452      -0.29073897       0.01637775      -0.00214839      -1.16266845       0.54688325      -0.19343602
I       13.64137670       3.02632724       3.46483625      -0.26889292       0.01785176      -0.14660441       2.56960844      -3.14888241       0.15037029
I        9.38761536       1.94548373       6.02590443       0.00860809       0.23267949       0.06224023       0.79727245      -2.01300177      -1.83470059
I        5.79596878      22.02485652       3.42509574      -0.31093458      -0.34481320       0.10716981       1.10389562       0.79205343      -1.65299194
I       16.84302056       4.84373265       5.98495032      -0.58218033      -0.12301097      -0.10164935      -2.92543023      -1.89049362      -1.55106554
I        7.32883458       5.20970596       3.83187094       0.09044021       0.39948741      -0.16267573       0.14390271      -4.71631627      -1.48606468
I       14.85605308      20.90246507       6.27846054       0.23212039      -0.00068120       0.02841716       2.26811509      -0.01632753       0.18001963
Cs       7.49523578      19.52033916      10.89335890       0.07232572      -0.07514456      -0.02051123       0.13730888      -1.04050921      -2.65303356
Cs      13.96078171       6.79005369       8.65884963       0.21714902       0.09611225      -0.21890159      -3.02427338      -2.30668478       1.45908715
Cs       5.05550749       3.40707229      10.92262978       0.05138224      -0.09603965      -0.23764997       0.19622228      -1.70137044      -1.09441075
Cs      17.43282531       2.10940436       8.19900978       0.02059242      -0.16071382       0.07848870       0.73624608      -3.22789502      -0.77903749
Cs       7.55269255      19.08293615      15.89491502      -0.04489988       0.36575497      -0.11649951      -1.57665720       2.29764466      -2.42285191
Cs      13.61751755       7.21528476      13.51362110       0.38805980      -0.00410433      -0.15884517      -2.44364080       1.15058016       1.96090204
Cs       4.73135811       3.20248550      15.71355389       0.06919070      -0.25076008      -0.06883845       2.05435931       0.50473857      -4.85778850
Cs      17.37188428       2.11688862      13.26424246      -0.14662022      -0.13881035       0.00163229      -2.73684310       0.47782480       0.88057896
Pb       2.88952940      20.19107432       8.49662233      -0.13032367      -0.36819189      -0.47007619       3.36905160      -2.49168919      -1.54055606
Pb      19.23363592       6.47153855      10.68588943       0.13687475      -0.19819184       0.33922629      -0.32323952      -1.31382631      -0.98778494
Pb      10.01447486       4.29418262       8.41513262       0.06701003      -0.34197893      -0.09501353       2.66212544      -0.72955241      -0.95923419
Pb      12.60568832       0.67088971      10.45496621      -0.44685373       0.23943070       0.35414441       1.23308875       0.96248477       1.98523118
Pb       2.44223165      19.92248226      13.22346688       0.54739116       0.19034269       0.36101410      -1.34062994      -2.21739664       1.45844787
Pb      18.89382440       6.24105595      15.59678580      -0.48502829      -0.19359914       0.00511678       2.89729992       0.51201407       4.76209922
Pb       9.90224983       3.86183801      13.14629984      -0.02862515      -0.25535723      -0.17444999      -4.13215434       3.21059897      -0.53892268
Pb      12.43095912       0.48768865      15.11242973      -0.21186870       0.06439796       0.20402408       3.63096472      -1.70117756       0.09863384
I        2.15777746       0.41082092      10.40456451      -0.27100158       0.22843415       0.08093005       0.97996305       0.49985289      -2.62622738
I        1.78263033       4.03111223       8.02263124       0.08930423      -0.06505733       0.35355717       4.88756824      -0.35867874       0.84367620
I       10.87448580       5.99732445      11.02943929      -0.00338598       0.37914142      -0.36429908       0.69913121      -2.23499259       1.54480072
I       11.07179486      20.35981008       8.42268505       0.01297551      -0.12308756       0.25123690       1.62236780      -0.33576462       0.33616169
I       18.68569642      19.19855876       8.52328269      -0.47983124       0.21512653       0.34540564       1.87200466       1.56637153       1.12100561
I        3.80666132       7.18330832      10.66442572      -0.51621538       0.27345640      -0.40322163      -0.81412462       1.68084598      -2.08267766
I       13.44070465       3.25004134       8.61748282      -0.36520707      -0.42491648      -0.31184929       1.99868528       1.62376840       0.40783028
I        8.93813731       1.83616332      10.31187430       0.54424954       0.38858359       0.28823536       1.82164669       1.88454343      -1.01520137
I        5.47290728      21.67690765       8.58763493       0.27109970       0.13774611       0.00733680      -1.30929837      -0.83638996       1.68676570
I       16.63905381       4.80613027      10.77276477      -0.33335544       0.17310173       0.04923770       1.65925855       0.80541275      -0.45650573
I        7.30228611       5.89285273       8.22735923      -0.00956161      -0.25649981       0.14219393      -1.99021142      -0.38790822       1.19990016
I       14.90307485      21.07113002      11.32089355       0.10031902      -0.26867459      -0.07318076       1.31525507       2.24563738      -0.38561056
I        1.47505875       0.44055808      15.02066168       0.32059242      -0.24057149       0.15517057      -0.41113359       0.67333151       0.01010349
I        1.66646744       4.01451505      12.92783782       0.17442795      -0.38962634      -0.05420327       0.90965232       3.21243643       2.91315012
I       10.91577780       5.76075138      15.54728434      -0.13048135      -0.02487606       0.03867588      -3.03872602      -0.71078994       2.04692791
I       10.85908165      19.91225208      13.36008963       0.27622925       0.37647017      -0.05660688      -5.04632027       2.21019799      -0.45502030
I       18.30338419      18.96614646      13.65063975      -0.32394333       0.25518885      -0.05186571       3.22112011       2.04797819       0.64856277
I        3.64448112       7.14012952      14.97904987       0.31784275      -0.06350666       0.18522089      -0.27294106      -2.38915002      -1.83253109
I       13.30691050       2.90836077      12.97973717      -0.39092844      -0.29618282      -0.03778565       0.68359721       2.09294688      -2.32943073
I        9.07602048       1.94471788      15.30693879       0.03665449      -0.27912997       0.34087647       0.50782578      -2.76277929       0.31635907
I        5.14350065      21.68277288      13.34962629       0.00150363      -0.14428519       0.15741142      -1.61716309       0.68708016      -0.92494410
I       15.90018121       4.87141280      15.75638511       0.41231614       0.12786732      -0.05182482      -0.27758367      -0.60857079       2.01484314
I        6.99987491       5.14783056      13.47324525       0.13187303       0.11898750      -0.26077703      -1.73395714       0.73248505       0.25304578
I       14.84308169      20.98771441      16.12214747      -0.06151543      -0.31099196      -0.19126873       1.70219750      -5.54738000      -1.54997863
Cs       8.27679503       8.59059186       0.96415270      -0.10326455      -0.05129365       0.07383791      -3.25832569      -3.39496338      -2.95124536
Cs      14.05904179      17.60534687      18.58788335      -0.07965521       0.11174191      -0.13754644       0.14011177      -0.95390052       1.72848062
Cs       5.34779097      14.29248540       0.91972789       0.06010576      -0.10786646      -0.06802780       2.33391772       2.69158480       0.72405345
Cs      16.92977768      12.34166681      18.79517694      -0.01550416       0.02735201      -0.21899260       0.33389047      -0.81122635       0.86720217
Cs       8.09575707       8.78695879       6.13477826      -0.04258368      -0.02726742      -0.34243104      -4.02736065       1.36260854      -1.57682413
Cs      14.27107067      17.91690762       3.52858762       0.07099113       0.10920262       0.17619641      -0.31117796      -3.13544059      -0.37263328
Cs       4.85157682      14.17433515       5.48994249       0.22349336      -0.09544198       0.05653649      -1.30454885       2.08731422      -0.87100684
Cs      17.06947548      12.86665514       3.87863886       0.02538342      -0.17627619      -0.07465735      -2.38806615       1.61278574      -1.07053886
Pb       3.03955225       8.96218918      17.64476112      -0.23561414       0.76397879       0.10494380       0.86966586       4.68224883      -1.74648095
Pb      19.19233664      17.16886306       1.08795321       0.23746437      -0.20343623       0.44765118       0.52196223       5.86344264      -0.21487871
Pb       9.87985763      14.99386126      18.19871802      -0.15889968      -0.17663340       0.33008598      -3.00105904      -0.52780741      -1.76114552
Pb      12.17171836      11.55935848       0.99591411       0.04784715       0.22388375       0.07192430      -2.56694487       0.10709551      -3.92339531
Pb       3.05581949       9.51685693       3.32571834       0.37597936      -0.13901133      -0.45495149      -1.21915329       2.98403160      -3.13502778
Pb      19.55301767      17.16296864       6.41383651      -0.06362820      -0.09242707      -0.44032997      -4.79889226       1.81100130      -5.19007271
Pb      10.26965383      15.24323905       3.74538797      -0.45693573       0.16640429      -0.38475815      -0.16050942       3.59652049      -0.74891942
Pb      12.18294922      11.80463538       6.19685583      -0.12015752       0.13502369      -0.46082262       3.27838430      -0.56702525      -2.80723359
I        2.28264253      11.20626217       0.66863924      -0.07912148      -0.05607313      -0.15602284       0.26386326       0.12669108       0.32056686
I        1.71881253      14.47470574      17.77759521      -0.08144697       0.07539151       0.04692688       4.01212824       0.96435613       0.18007012
I       11.21803989      17.01376574       1.16256673       0.19527889       0.32528143      -0.18244806       0.65773341       1.05132271      -1.95735011
I       10.43902281       9.54622360      17.85524539       0.26679167      -0.11871403       0.42302998      -1.13690997      -1.95277884      -1.35655921
I       18.02370286       8.29515763      17.99620672       0.02810518       0.20278125       0.15701443      -0.12799674      -1.83325656       0.93959160
I        3.67763829      18.31702188       0.73753641       0.25020176       0.09305394       0.03609355       1.49939681       1.79454492      -0.42361180
I       13.07118547      13.26924991      18.28756018      -0.38896679       0.18352622      -0.02514248       1.31174176      -0.66212986       0.91817299
I        9.11961331      13.43496752       1.15597742       0.29295717      -0.15639154      -0.18619050       3.66376038       1.09734826      -2.64505515
I        5.62247463      10.63438422      17.95290783       0.13178539      -0.10256578       0.00058793      -2.35626038      -1.46391521      -0.98939045
I       16.40733629      15.74627964       1.37417247       0.03179644      -0.05926606      -0.09569196       2.46523703       0.68796435       0.94720516
I        6.98297212      16.34854353      18.09051518       0.21473101      -0.29652959      -0.00469018       0.00867618       0.28045191       3.40226863
I       15.05885321      10.24016967       0.99395342      -0.21955339       0.09232218       0.09490539       3.16924479       3.02094635       0.90371501
I        1.83955665      11.36075438       5.48327007       0.01708946      -0.00942694       0.29993865      -0.20785591      -0.26855421      -2.48517148
I        2.09094754      14.50462763       2.95066339      -0.05784895       0.23531116       0.03183419      -0.88937687      -2.13055112       0.79166281
I       11.47760270      17.27317461       5.92186350      -0.20878116      -0.08265083       0.20605563       1.15701264      -2.25723704       1.28802110
I       11.10981250       9.94369742       3.49850256      -0.00048892      -0.06361422       0.12076102       0.15357071      -3.33262167      -1.13305194
I       18.54798726       8.35159316       3.56714530      -0.24513091       0.34229178       0.09394532      -0.64087677       1.76201491      -3.87118980
I        3.87085716      18.25618996       5.85806443       0.02894049       0.08683427      -0.08610856      -3.65807329       1.56345368      -1.40600465
I       13.15111777      13.76016221       3.44705934       0.00416514      -0.20555900      -0.10894668       1.52547593      -0.35598773       0.63212642
I        9.01576513      13.28145501       5.70880555       0.06481815      -0.06969472       0.46584649       3.34065791      -0.93752797       3.18793868
I        6.09557389      10.63219923       3.19709427      -0.46549463       0.11387244       0.12272517      -0.24889723      -0.50472434       0.53295628
I       16.77440780      15.92791264       6.41782988      -0.42590836      -0.14536544      -0.18653369       0.97642701       1.58075819      -1.12585034
I        7.38772500      16.87528444       3.50320652       0.12788239      -0.32111610      -0.06042397      -1.15690869      -0.38450301      -0.02523829
I       14.76498781      10.15266101       6.08051087       0.21565328       0.07949358       0.16533605       2.58063941      -1.05515046       1.52586777
Cs       7.13926903       8.66353126      10.75814542       0.31891906      -0.05773058       0.10185125      -2.90784054      -1.77850253      -2.12312881
Cs      14.49194507      17.85495033       8.72498272      -0.13237346       0.15700952      -0.01699161       1.54318185      -0.75581112      -1.85543365
Cs       5.21332015      13.57131106      10.95326569      -0.06876093       0.24545970      -0.21778722       4.21148027      -2.13362662      -2.16742650
Cs      17.00053057      12.87256898       8.44879120      -0.05119036      -0.25486728       0.09036609       0.41931444       1.84121905      -1.21688681
Cs       7.47908966       7.82256719      15.61364850       0.15081004       0.26162328       0.08695178       1.97981962       1.21425025       1.94837761
Cs      14.76974297      17.06964935      13.74114400      -0.40695146       0.53732404      -0.09669994      -0.75400184       2.84555143       1.57555090
Cs       5.05731013      13.91645989      15.41353323      -0.09923188      -0.04322703       0.24068758      -0.29604035      -3.22704332      -3.06432400
Cs      16.56371263      12.65199367      13.40236313       0.19512851      -0.12285704       0.01962516       1.24594457      -1.33809597      -1.63672101
Pb       2.75546127       9.38780733       7.86058622       0.13711200      -0.29169461       0.55698262       1.92191757      -3.04209360       1.90400134
Pb      19.11523746      17.14923699      11.23336588      -0.12362351      -0.14910177      -0.29601381      -0.77799071      -0.75079574      -3.52543391
Pb       9.81004945      15.50870677       8.25570636       0.01314847      -0.31480030       0.19139084      -0.96047205      -0.84603320      -0.05897566
Pb      11.87760352      11.41971125      10.71178741      -0.06835472       0.22406392      -0.12321601       3.83941631      -4.71204012       0.92540577
Pb       2.69007225       9.22206612      12.70358068      -0.34331367       0.32915954       0.11655414      -2.56113642      -0.04774356      -1.48464791
Pb      19.33658185      17.04667381      16.06398277      -0.24760961      -0.12209472       0.16551467      -2.06266941       1.08863083       3.47168298
Pb       9.83471664      15.05633570      13.46322959      -0.17539127       0.00096700      -0.38057111      -2.72159279       2.98304572       0.29371625
Pb      11.95098076      11.49366409      15.86790574       0.02727717      -0.11733685      -0.06229202      -2.30730093      -0.87565215       2.56502984
I        1.91206548      11.52082818      10.29612675      -0.06849473      -0.26638352       0.20233692       0.11866145       3.65564597      -0.17495594
I        2.20119598      15.10935012       8.13676018      -0.20434183      -0.12269811      -0.11153258      -1.00021368      -0.97391186      -2.11386445
I       10.82696401      17.06489161      11.01531846       0.00535995      -0.14548313      -0.13664015       0.67969972       2.11787009       0.95972995
I       10.73028826       9.76887978       7.97379289       0.04027265      -0.18686249       0.44860309      -4.96851890      -2.29118470      -2.12657679
I       18.37065691       8.36842786       8.28219133      -0.19651057       0.00061227       0.22597017       1.62601746       0.19510421      -2.11806956
I        3.72134656      18.01885845      10.75049867      -0.09858233      -0.01207148       0.10542986      -0.21331902      -0.51725687      -0.92054484
I       12.83275951      14.04994546       8.50244400       0.07637813      -0.48456999       0.05692869      -3.73474213      -0.41630698       0.89853120
I        8.76362163      13.28472110      10.59036942       0.38482119      -0.06255341       0.11348998       1.40717605      -1.96423289      -0.06161278
I        5.46323644      10.84341669       8.12808465       0.06106905       0.10569688      -0.09292783       4.69750038      -1.69757206      -0.72892136
I       16.13744408      15.55669515      11.05608588       0.56726852       0.22384524      -0.02141471       1.71294445      -0.70305275      -1.37402458
I        6.76075424      16.22634748       7.96558959       0.08455393       0.31585105       0.26008613       2.23762636      -0.93314267       0.29574675
I       14.76790442      10.14353248      10.75644384      -0.22207224       0.07668971      -0.01103448      -2.54470615       1.30026894      -0.64960658
I        1.77714120      11.24879014      15.53161112       0.09712733      -0.35870456      -0.23899621      -1.00697714      -1.68748634       1.23308228
I        1.81761716      15.08219199      13.11749788       0.07068249      -0.44566365      -0.30636619       1.97721648      -1.24146434      -2.68628506
I       10.99234057      16.86371257      15.86147952       0.10120661      -0.06649281      -0.03349781       1.65678890       0.90989014       1.84686050
I       10.69762789       9.77550593      13.13376543      -0.03546084      -0.10934113       0.10935467      -1.51278846      -1.59900782       0.24205714
I       18.00421822       8.19286454      13.25573301       0.20965026       0.21552155      -0.04226731      -0.70356970      -0.97582567      -4.09161055
I        3.68153788      17.89453402      15.85316716      -0.27187294       0.28638131      -0.17787328       0.35293335       1.47593499      -2.23939391
I       12.65154485      13.30324145      13.14304072       0.28483036       0.31737798       0.02624980       2.38677641       0.45365713      -3.54517591
I        8.95134656      12.95459904      15.83077346      -0.12972960      -0.03657735      -0.12854692       0.28616742      -1.01729823       0.03455466
I        5.39794856      10.51504970      13.37483705       0.38415389       0.16722452      -0.04777008       0.43998019      -2.40198813       0.70502209
I       16.61266977      15.50031353      16.05398098      -0.29403612      -0.21215574       0.12721798       1.39848525      -4.13761935       1.64954459
I        7.03464530      16.51176381      13.36157222      -0.02883834      -0.14596300      -0.08364775       2.23660480       2.11308267       5.32673239
I       14.93709460      10.46277477      16.01904920      -0.23163204      -0.33756215      -0.08220839       0.22172700      -0.79908267      -1.92519001
Cs      26.21979074      19.99958461       1.14316291      -0.03309532       0.20990487       0.23973744       3.42709442      -0.88486705      -0.19540239
Cs      32.75464474       7.50154115      17.85201044      -0.14350379      -0.01119854       0.30538417       3.98978419       0.15119443      -3.18609445
Cs      23.73758392       4.15809181       0.96895907      -0.07349767      -0.22083856       0.13880182       2.52312380       1.63233638      -1.86502649
Cs      35.18459982       2.09064923      18.46529366       0.12192935       0.04229589      -0.15575767      -0.03054569      -0.92367568       0.39472340
Cs      26.34869744      20.03078266       6.38218626      -0.02289177      -0.16117117      -0.04906196      -0.77261647       1.19974299      -3.03725989
Cs      33.00809893       7.52912942       3.37796807      -0.16070264       0.03566357       0.09193091      -3.50739725       0.68942075       1.61385121
Cs      24.14139506       3.81967714       6.10633166      -0.28911644       0.05950812      -0.09876735       1.52910715       1.02218168       2.43548885
Cs      35.73869429       2.50534076       3.61733360       0.10091079       0.19342497       0.01729399       0.95775560       0.84763149       1.37196544
Pb      21.12493590      20.39011018      18.70273805      -0.17858822       0.11724328      -0.10451908       3.00656794      -0.74170557       3.51829808
Pb       1.20807958       6.20691484       0.52826325      -0.59820723      -0.37865069       0.40426455       2.20775687      -0.75006349      -0.85610543
Pb      28.25522140       4.56255102      18.13105216       0.41874859      -0.10380769      -0.43937766       4.35553036       3.47203574       3.62718384
Pb      31.09194247       1.42986708       0.93154052      -0.30272184       0.38092452       0.23107878      -0.09101835      -5.01081779      -1.59769560
Pb      21.49906304      20.40911071       4.03601536      -0.49269457       0.50025824      -0.19221082       6.04974740      -2.59859991      -3.02403844
Pb       0.82214160       6.11306435       5.75863184      -0.03566928      -0.22661857      -0.18846858       0.66301228       1.48949194      -3.38392120
Pb      28.66341476       5.09958453       3.07410128      -0.22290852      -0.08378652       0.45009219      -1.08249646      -1.00918661       4.18250291
Pb      30.71163509       1.21273790       5.77693782      -0.29854635       0.59443480      -0.22881444      -3.24533975       5.37030479      -1.72612958
I       21.16210026       1.07574821       0.75308153      -0.30547080       0.09875586       0.26303608       1.45105813       2.67068584       1.21026799
I       20.14087507       4.59301106      18.17985608       0.24311304      -0.28132103      -0.19943274       3.08618226      -2.28242498      -0.88617168
I       29.79969953       6.97037453       0.87625534      -0.13427281      -0.01606217      -0.20110752      -2.01455882      -3.24359126       0.78889843
I       29.19078776      20.60537757      18.63724679      -0.07364299       0.11535304      -0.27259120       0.70045576       0.37671781      -0.50798528
I       -0.13761240      18.56370462      18.00522059      -0.41579143      -0.17939067       0.18035567       0.89881285      -3.45879516      -2.22568734
I       22.41205356       8.23381471       1.30413897      -0.05159914       0.19775175      -0.41852728       1.02913507      -0.92769534      -2.68494197
I       31.71500417       3.16885329      18.25096278      -0.65754301      -0.19283845      -0.26998750       3.93372861      -0.03180150      -0.67580443
I       27.90869064       2.99743507       0.72520130      -0.14294579      -0.17360284       0.20218453      -1.63439375       4.28816815       0.20063457
I       23.72192808      22.12143745      18.48395716       0.00801453      -0.23876945       0.05839283      -2.20470619      -0.37964396       0.33264822
I       34.84147300       5.56198641       0.98054172       0.36083334       0.07497597       0.06411770       0.83504334       0.46479807       2.72200522
I       25.30194688       5.58841642      18.00112571       0.20834523       0.22757713       0.23554147       1.93936791       2.16855753      -3.06329056
I       33.23634005      21.60919936       1.86243703       0.35681600      -0.24051585      -0.22658749       1.26024064       2.30111406       0.91253229
I       20.73105980       1.37979194       5.85609406       0.19925136      -0.50514739       0.07368320       4.56991624       0.64515134      -1.86766445
I       20.55182376       4.84228293       3.23616638       0.15639282      -0.22443458       0.00850160       0.47080823       2.75020505       0.65733091