320
Lattice="31.705123562890115 0.00098397742904671 0.8597404125717283 0.019921660697184568 29.971723771014627 -2.6265873698904523 -0.4087198441794399 1.5773423540450537 17.106165182112967" Properties=species:S:1:pos:R:3:forces:R:3:momenta:R:3 pbc="T T T"
Cs       0.54869252       4.25253891       4.20930625      -0.05169039       0.02202535       0.03159659      -0.25479541       0.48117153       0.34223475
Cs       4.69074081       7.30872882       8.74842980       0.00361578       0.04798317      -0.01868257      -0.19280194       0.52689688       0.53328450
Cs       0.94035769      11.16780024      -0.34949872       0.01097599      -0.01862160      -0.03568703       0.40776628       0.91301121       3.20165723
Cs       5.00960900      13.94517137       3.67791102      -0.02477787      -0.00514093      -0.00303113       0.73912079       0.01136814       0.87801671
Cs       8.35650000       4.77825838       4.51128128       0.17905511      -0.18542987       0.06125663      -0.26142287      -1.74317586      -0.06073605
Cs      12.33515945       7.10828034       8.84106331       0.03913219       0.01836543      -0.01543586       0.90155967       1.85995995       2.30488089
Cs       8.83018422      11.28787701      -0.20740777       0.02970273       0.00691703      -0.00508317      -1.33531899      -1.48371541      -0.31035952
Cs      12.13758027      14.66318927       3.97215295       0.04702182      -0.02129275       0.02131030      -0.76070055       0.14259486       1.16297431
Pb       2.02933508      16.97389443       7.50973994      -0.17150424       0.38778866       0.26076185      -2.07301787       1.30921769      -1.57423877
Pb       5.93631825      17.15919615       7.75082570       0.11021778       0.42116270       0.06003264       0.94527878       0.78714726       0.74785111
Pb       3.13919681       9.15891637       4.03714967      -0.08598005       0.43374466       0.13631560       3.04490470       3.47818499       2.04447288
Pb      30.92156047       9.37857416       4.96752177      -0.21995609       0.02561175       0.04938202      -0.56136575      -1.44112331      -0.58047163
Pb       9.92441701      17.29546205       8.04427085       0.18835740       0.32981825       0.08451417       1.54582710       0.42301317      -0.18411218
Pb      13.93203386      17.26606529       8.01093891      -0.32965528       0.03709879       0.19211443       0.43666154       2.09841361       0.31530589
Pb      11.07502573       9.52544596       4.10612790       0.30073126      -0.15909634       0.64863084      -1.55756523       2.30454495      -1.45131608
Pb       7.03511863       9.30003407       4.42884045       0.27362829       0.18693141      -0.16864335      -0.86552311       1.55451133       0.87305303
I        4.00738351       3.35347754       2.24859832      -0.07091416      -0.33703025      -0.40488269       0.65376340      -0.24317675       0.11431985
I        1.26436304       7.66575616       2.14985373       0.06014033      -0.14153705      -0.27336077       1.06234044       0.02594045       0.09549341
I        3.92096880       2.60031990       6.29121931       0.05538737      -0.04967154       0.32425067       1.22266054      -1.45517636      -0.10966918
I        1.30940151       8.07260346       6.46154156      -0.03949447       0.21358865      -0.21883618       0.25970583      -1.23418040       0.76592115
I        5.23464597       6.77355943       4.56162774      -0.14782535      -0.28026012       0.05989240       0.54214612      -1.11459875       1.20111829
I       -0.09098189       4.72628735       8.24698502       0.24813163      -0.22173665       0.04571105       1.25890609       0.37675379      -1.67572988
I        5.12313192      10.98830146       6.18243979      -0.07912858      -0.06485126       0.09706563      -1.39030376      -0.53599155      -0.02851616
I       31.51439758      15.16011418       6.77404984       0.14721069       0.04088239      -0.04759862       0.80907456      -0.64464865      -0.35484380
I        5.40143825      10.44616476       1.86719197      -0.16565505      -0.11012385      -0.01606809       0.85382040       1.05618297       1.24444423
I        0.01499468      15.64839134       1.55558527       0.21254037       0.01765341      -0.13307361      -0.12760866       2.25063008       0.63056663
I        4.09930529      14.64783307       8.28866949      -0.20930787      -0.12647007       0.00285427      -0.77380305       0.06834519      -0.93052669
I        1.28714676      11.86758514       3.58604829       0.17242087      -0.18835924       0.08760580      -0.48161513       0.26161941       1.88640315
I       12.09341832       3.18497271       2.90595921      -0.00336108      -0.09954672      -0.23918112      -0.95117393      -0.08095094       1.01826536
I        9.30563302       7.85196494       2.30385002      -0.12595189      -0.07000281      -0.16052354      -1.36977956       0.19453919      -0.72620260
I       11.80907211       3.24187686       6.94738951       0.01860648       0.02824591       0.02655248      -1.10350494      -0.10001420       1.76329776
I        9.04074651       8.31583497       6.66297114       0.21911514       0.09384274      -0.13690415      -1.31964184       0.95528507       0.31188354
I       13.03870036       6.84463808       4.65287460       0.04451157       0.12822008       0.02158270       1.64074148      -1.70895457       1.28798320
I        7.79557167       4.84524778       8.63178822      -0.09513975      -0.05772512       0.03114988       1.53182816       1.30677749      -1.28188563
I       13.27123578      11.12362618       6.43172403      -0.22224410      -0.12419490      -0.21912966       0.08987343       1.28222476       3.54715138
I        8.18752444      15.59959203       6.09275095      -0.16405473      -0.23230578      -0.21218533      -1.67096890       2.53257486       0.23743023
I       13.22216540      10.44118427       1.99932967       0.04418593      -0.14828918       0.13304615      -0.91743062      -0.26930103      -0.43339103
I        8.04192416      15.68720718       1.78554227      -0.23370942       0.04264065       0.03088364       0.35721757       2.05827698      -0.89050373
I       11.65185473      14.82425925       8.66232105       0.08916156      -0.16088469      -0.05323682       0.10015177       0.71544322       2.18608729
I        9.05169546      11.86049998       3.92964591      -0.05349995       0.32004968      -0.04496606       1.83311380       4.55653254      -2.74123305
Cs       0.34433260       5.04121009      12.76238884      -0.05169039       0.02202535       0.03159659      -0.25479541       0.48117153       0.34223475
Cs       4.89510073       6.52005764       0.19534721       0.00361578       0.04798317      -0.01868257      -0.19280194       0.52689688       0.53328450
Cs       0.73599777      11.95647142       8.20358387       0.01097599      -0.01862160      -0.03568703       0.40776628       0.91301121       3.20165723
Cs       4.80524908      14.73384255      12.23099361      -0.02477787      -0.00514093      -0.00303113       0.73912079       0.01136814       0.87801671
Cs       8.15214008       5.56692956      13.06436387       0.17905511      -0.18542987       0.06125663      -0.26142287      -1.74317586      -0.06073605
Cs      12.53951937       6.31960916       0.28798072       0.03913219       0.01836543      -0.01543586       0.90155967       1.85995995       2.30488089
Cs       8.62582430      12.07654819       8.34567482       0.02970273       0.00691703      -0.00508317      -1.33531899      -1.48371541      -0.31035952
Cs      11.93322035      15.45186045      12.52523554       0.04702182      -0.02129275       0.02131030      -0.76070055       0.14259486       1.16297431
Pb       2.23369500      16.18522325      -1.04334265      -0.17150424       0.38778866       0.26076185      -2.07301787       1.30921769      -1.57423877
Pb       6.14067817      16.37052497      -0.80225689       0.11021778       0.42116270       0.06003264       0.94527878       0.78714726       0.74785111
Pb       2.93483689       9.94758755      12.59023226      -0.08598005       0.43374466       0.13631560       3.04490470       3.47818499       2.04447288
Pb      30.71720055      10.16724533      13.52060436      -0.21995609       0.02561175       0.04938202      -0.56136575      -1.44112331      -0.58047163
Pb      10.12877693      16.50679087      -0.50881174       0.18835740       0.32981825       0.08451417       1.54582710       0.42301317      -0.18411218
Pb      14.13639378      16.47739411      -0.54214368      -0.32965528       0.03709879       0.19211443       0.43666154       2.09841361       0.31530589
Pb      10.87066581      10.31411714      12.65921049       0.30073126      -0.15909634       0.64863084      -1.55756523       2.30454495      -1.45131608
Pb       6.83075871      10.08870525      12.98192304       0.27362829       0.18693141      -0.16864335      -0.86552311       1.55451133       0.87305303
I        3.80302359       4.14214872      10.80168091      -0.07091416      -0.33703025      -0.40488269       0.65376340      -0.24317675       0.11431985
I        1.06000312       8.45442734      10.70293632       0.06014033      -0.14153705      -0.27336077       1.06234044       0.02594045       0.09549341
I        3.71660888       3.38899108      14.84430190       0.05538737      -0.04967154       0.32425067       1.22266054      -1.45517636      -0.10966918
I        1.10504159       8.86127464      15.01462415      -0.03949447       0.21358865      -0.21883618       0.25970583      -1.23418040       0.76592115
I        5.03028605       7.56223061      13.11471033      -0.14782535      -0.28026012       0.05989240       0.54214612      -1.11459875       1.20111829
I        0.11337803       3.93761617      -0.30609757       0.24813163      -0.22173665       0.04571105       1.25890609       0.37675379      -1.67572988
I        4.91877200      11.77697264      14.73552238      -0.07912858      -0.06485126       0.09706563      -1.39030376      -0.53599155      -0.02851616
I       31.31003766      15.94878535      15.32713243       0.14721069       0.04088239      -0.04759862       0.80907456      -0.64464865      -0.35484380
I        5.19707833      11.23483594      10.42027456      -0.16565505      -0.11012385      -0.01606809       0.85382040       1.05618297       1.24444423
I       -0.18936524      16.43706252      10.10866786       0.21254037       0.01765341      -0.13307361      -0.12760866       2.25063008       0.63056663
I        4.30366521      13.85916189      -0.26441310      -0.20930787      -0.12647007       0.00285427      -0.77380305       0.06834519      -0.93052669
I        1.08278684      12.65625632      12.13913088       0.17242087      -0.18835924       0.08760580      -0.48161513       0.26161941       1.88640315
I       11.88905840       3.97364389      11.45904180      -0.00336108      -0.09954672      -0.23918112      -0.95117393      -0.08095094       1.01826536
I        9.10127310       8.64063612      10.85693261      -0.12595189      -0.07000281      -0.16052354      -1.36977956       0.19453919      -0.72620260
I       11.60471219       4.03054804      15.50047210       0.01860648       0.02824591       0.02655248      -1.10350494      -0.10001420       1.76329776
I        8.83638659       9.10450615      15.21605373       0.21911514       0.09384274      -0.13690415      -1.31964184       0.95528507       0.31188354
I       12.83434044       7.63330926      13.20595719       0.04451157       0.12822008       0.02158270       1.64074148      -1.70895457       1.28798320
I        7.99993159       4.05657660       0.07870563      -0.09513975      -0.05772512       0.03114988       1.53182816       1.30677749      -1.28188563
I       13.06687586      11.91229736      14.98480662      -0.22224410      -0.12419490      -0.21912966       0.08987343       1.28222476       3.54715138
I        7.98316452      16.38826321      14.64583354      -0.16405473      -0.23230578      -0.21218533      -1.67096890       2.53257486       0.23743023
I       13.01780548      11.22985545      10.55241226       0.04418593      -0.14828918       0.13304615      -0.91743062      -0.26930103      -0.43339103
I        7.83756424      16.47587836      10.33862486      -0.23370942       0.04264065       0.03088364       0.35721757       2.05827698      -0.89050373
I       11.85621465      14.03558807       0.10923846       0.08916156      -0.16088469      -0.05323682       0.10015177       0.71544322       2.18608729
I        8.84733554      12.64917116      12.48272850      -0.05349995       0.32004968      -0.04496606       1.83311380       4.55653254      -2.74123305
Cs       0.55865335      19.23840080       2.89601257      -0.05169039       0.02202535       0.03159659      -0.25479541       0.48117153       0.34223475
Cs       4.70070164      22.29459071       7.43513612       0.00361578       0.04798317      -0.01868257      -0.19280194       0.52689688       0.53328450
Cs       0.95031852      26.15366213      -1.66279240       0.01097599      -0.01862160      -0.03568703       0.40776628       0.91301121       3.20165723
Cs       5.01956983      28.93103326       2.36461734      -0.02477787      -0.00514093      -0.00303113       0.73912079       0.01136814       0.87801671
Cs       8.36646083      19.76412027       3.19798760       0.17905511      -0.18542987       0.06125663      -0.26142287      -1.74317586      -0.06073605
Cs      12.34512028      22.09414223       7.52776963       0.03913219       0.01836543      -0.01543586       0.90155967       1.85995995       2.30488089
Cs       8.84014505      26.27373890      -1.52070145       0.02970273       0.00691703      -0.00508317      -1.33531899      -1.48371541      -0.31035952
Cs      12.14754110      29.64905116       2.65885927       0.04702182      -0.02129275       0.02131030      -0.76070055       0.14259486       1.16297431
Pb       2.01937425       1.98803254       8.82303362      -0.17150424       0.38778866       0.26076185      -2.07301787       1.30921769      -1.57423877
Pb       5.92635742       2.17333426       9.06411938       0.11021778       0.42116270       0.06003264       0.94527878       0.78714726       0.74785111
Pb       3.14915764      24.14477826       2.72385599      -0.08598005       0.43374466       0.13631560       3.04490470       3.47818499       2.04447288
Pb      30.93152130      24.36443604       3.65422809      -0.21995609       0.02561175       0.04938202      -0.56136575      -1.44112331      -0.58047163
Pb       9.91445618       2.30960016       9.35756453       0.18835740       0.32981825       0.08451417       1.54582710       0.42301317      -0.18411218
Pb      13.92207303       2.28020340       9.32423259      -0.32965528       0.03709879       0.19211443       0.43666154       2.09841361       0.31530589
Pb      11.08498656      24.51130785       2.79283422       0.30073126      -0.15909634       0.64863084      -1.55756523       2.30454495      -1.45131608
Pb       7.04507946      24.28589596       3.11554677       0.27362829       0.18693141      -0.16864335      -0.86552311       1.55451133       0.87305303
I        4.01734434      18.33933943       0.93530464      -0.07091416      -0.33703025      -0.40488269       0.65376340      -0.24317675       0.11431985
I        1.27432387      22.65161805       0.83656005       0.06014033      -0.14153705      -0.27336077       1.06234044       0.02594045       0.09549341
I        3.93092963      17.58618179       4.97792563       0.05538737      -0.04967154       0.32425067       1.22266054      -1.45517636      -0.10966918
I        1.31936234      23.05846535       5.14824788      -0.03949447       0.21358865      -0.21883618       0.25970583      -1.23418040       0.76592115
I        5.24460680      21.75942132       3.24833406      -0.14782535      -0.28026012       0.05989240       0.54214612      -1.11459875       1.20111829
I       -0.08102106      19.71214924       6.93369134       0.24813163      -0.22173665       0.04571105       1.25890609       0.37675379      -1.67572988
I        5.13309275      25.97416335       4.86914611      -0.07912858      -0.06485126       0.09706563      -1.39030376      -0.53599155      -0.02851616
I       31.52435841      30.14597606       5.46075616       0.14721069       0.04088239      -0.04759862       0.80907456      -0.64464865      -0.35484380
I        5.41139908      25.43202665       0.55389829      -0.16565505      -0.11012385      -0.01606809       0.85382040       1.05618297       1.24444423
I        0.00503385       0.66252945       2.86887895       0.21254037       0.01765341      -0.13307361      -0.12760866       2.25063008       0.63056663
I        4.10926612      29.63369496       6.97537581      -0.20930787      -0.12647007       0.00285427      -0.77380305       0.06834519      -0.93052669
I        1.29710759      26.85344703       2.27275461       0.17242087      -0.18835924       0.08760580      -0.48161513       0.26161941       1.88640315
I       12.10337915      18.17083460       1.59266553      -0.00336108      -0.09954672      -0.23918112      -0.95117393      -0.08095094       1.01826536
I        9.31559385      22.83782683       0.99055634      -0.12595189      -0.07000281      -0.16052354      -1.36977956       0.19453919      -0.72620260
I       11.81903294      18.22773875       5.63409583       0.01860648       0.02824591       0.02655248      -1.10350494      -0.10001420       1.76329776
I        9.05070734      23.30169686       5.34967746       0.21911514       0.09384274      -0.13690415      -1.31964184       0.95528507       0.31188354
I       13.04866119      21.83049997       3.33958092       0.04451157       0.12822008       0.02158270       1.64074148      -1.70895457       1.28798320
I        7.80553250      19.83110967       7.31849454      -0.09513975      -0.05772512       0.03114988       1.53182816       1.30677749      -1.28188563
I       13.28119661      26.10948807       5.11843035      -0.22224410      -0.12419490      -0.21912966       0.08987343       1.28222476       3.54715138
I        8.19748527      30.58545392       4.77945727      -0.16405473      -0.23230578      -0.21218533      -1.67096890       2.53257486       0.23743023
I       13.23212623      25.42704616       0.68603599       0.04418593      -0.14828918       0.13304615      -0.91743062      -0.26930103      -0.43339103
I        8.03196333       0.70134529       3.09883595      -0.23370942       0.04264065       0.03088364       0.35721757       2.05827698      -0.89050373
I       11.66181556      29.81012114       7.34902737       0.08916156      -0.16088469      -0.05323682       0.10015177       0.71544322       2.18608729
I        9.06165629      26.84636187       2.61635223      -0.05349995       0.32004968      -0.04496606       1.83311380       4.55653254      -2.74123305
Cs       0.35429343      20.02707197      11.44909516      -0.05169039       0.02202535       0.03159659      -0.25479541       0.48117153       0.34223475
Cs       4.90506156      21.50591953      -1.11794648       0.00361578       0.04798317      -0.01868257      -0.19280194       0.52689688       0.53328450
Cs       0.74595860      26.94233330       6.89029019       0.01097599      -0.01862160      -0.03568703       0.40776628       0.91301121       3.20165723
Cs       4.81520991      29.71970443      10.91769993      -0.02477787      -0.00514093      -0.00303113       0.73912079       0.01136814       0.87801671
Cs       8.16210091      20.55279144      11.75107019       0.17905511      -0.18542987       0.06125663      -0.26142287      -1.74317586      -0.06073605
Cs      12.54948020      21.30547105      -1.02531297       0.03913219       0.01836543      -0.01543586       0.90155967       1.85995995       2.30488089
Cs       8.63578513      27.06241007       7.03238114       0.02970273       0.00691703      -0.00508317      -1.33531899      -1.48371541      -0.31035952
Cs      11.94318118      30.43772233      11.21194186       0.04702182      -0.02129275       0.02131030      -0.76070055       0.14259486       1.16297431
Pb       2.22373417       1.19936137       0.26995103      -0.17150424       0.38778866       0.26076185      -2.07301787       1.30921769      -1.57423877
Pb       6.13071734       1.38466309       0.51103679       0.11021778       0.42116270       0.06003264       0.94527878       0.78714726       0.74785111
Pb       2.94479772      24.93344943      11.27693858      -0.08598005       0.43374466       0.13631560       3.04490470       3.47818499       2.04447288
Pb      30.72716138      25.15310722      12.20731068      -0.21995609       0.02561175       0.04938202      -0.56136575      -1.44112331      -0.58047163
Pb      10.11881610       1.52092899       0.80448194       0.18835740       0.32981825       0.08451417       1.54582710       0.42301317      -0.18411218
Pb      14.12643295       1.49153223       0.77115000      -0.32965528       0.03709879       0.19211443       0.43666154       2.09841361       0.31530589
Pb      10.88062664      25.29997902      11.34591681       0.30073126      -0.15909634       0.64863084      -1.55756523       2.30454495      -1.45131608
Pb       6.84071954      25.07456713      11.66862936       0.27362829       0.18693141      -0.16864335      -0.86552311       1.55451133       0.87305303
I        3.81298442      19.12801060       9.48838723      -0.07091416      -0.33703025      -0.40488269       0.65376340      -0.24317675       0.11431985
I        1.06996395      23.44028922       9.38964264       0.06014033      -0.14153705      -0.27336077       1.06234044       0.02594045       0.09549341
I        3.72656971      18.37485296      13.53100822       0.05538737      -0.04967154       0.32425067       1.22266054      -1.45517636      -0.10966918
I        1.11500242      23.84713652      13.70133047      -0.03949447       0.21358865      -0.21883618       0.25970583      -1.23418040       0.76592115
I        5.04024688      22.54809249      11.80141665      -0.14782535      -0.28026012       0.05989240       0.54214612      -1.11459875       1.20111829
I        0.12333886      18.92347806      -1.61939126       0.24813163      -0.22173665       0.04571105       1.25890609       0.37675379      -1.67572988
I        4.92873283      26.76283452      13.42222870      -0.07912858      -0.06485126       0.09706563      -1.39030376      -0.53599155      -0.02851616
I       31.31999849      30.93464724      14.01383875       0.14721069       0.04088239      -0.04759862       0.80907456      -0.64464865      -0.35484380
I        5.20703916      26.22069782       9.10698088      -0.16565505      -0.11012385      -0.01606809       0.85382040       1.05618297       1.24444423
I       -0.19932607       1.45120063      11.42196155       0.21254037       0.01765341      -0.13307361      -0.12760866       2.25063008       0.63056663
I        4.31362604      28.84502378      -1.57770679      -0.20930787      -0.12647007       0.00285427      -0.77380305       0.06834519      -0.93052669
I        1.09274767      27.64211820      10.82583720       0.17242087      -0.18835924       0.08760580      -0.48161513       0.26161941       1.88640315
I       11.89901923      18.95950577      10.14574812      -0.00336108      -0.09954672      -0.23918112      -0.95117393      -0.08095094       1.01826536
I        9.11123393      23.62649800       9.54363893      -0.12595189      -0.07000281      -0.16052354      -1.36977956       0.19453919      -0.72620260
I       11.61467302      19.01640992      14.18717842       0.01860648       0.02824591       0.02655248      -1.10350494      -0.10001420       1.76329776
I        8.84634742      24.09036803      13.90276005       0.21911514       0.09384274      -0.13690415      -1.31964184       0.95528507       0.31188354
I       12.84430127      22.61917114      11.89266351       0.04451157       0.12822008       0.02158270       1.64074148      -1.70895457       1.28798320
I        8.00989242      19.04243849      -1.23458806      -0.09513975      -0.05772512       0.03114988       1.53182816       1.30677749      -1.28188563
I       13.07683669      26.89815924      13.67151294      -0.22224410      -0.12419490      -0.21912966       0.08987343       1.28222476       3.54715138
I        7.99312535      31.37412509      13.33253986      -0.16405473      -0.23230578      -0.21218533      -1.67096890       2.53257486       0.23743023
I       13.02776631      26.21571733       9.23911858       0.04418593      -0.14828918       0.13304615      -0.91743062      -0.26930103      -0.43339103
I        7.82760341       1.49001647      11.65191855      -0.23370942       0.04264065       0.03088364       0.35721757       2.05827698      -0.89050373
I       11.86617548      29.02144996      -1.20405523       0.08916156      -0.16088469      -0.05323682       0.10015177       0.71544322       2.18608729
I        8.85729637      27.63503304      11.16943482      -0.05349995       0.32004968      -0.04496606       1.83311380       4.55653254      -2.74123305
Cs      16.40125430       4.25303090       4.63917646      -0.05169039       0.02202535       0.03159659      -0.25479541       0.48117153       0.34223475
Cs      20.54330259       7.30922081       9.17830001       0.00361578       0.04798317      -0.01868257      -0.19280194       0.52689688       0.53328450
Cs      16.79291947      11.16829223       0.08037149       0.01097599      -0.01862160      -0.03568703       0.40776628       0.91301121       3.20165723
Cs      20.86217078      13.94566336       4.10778123      -0.02477787      -0.00514093      -0.00303113       0.73912079       0.01136814       0.87801671
Cs      24.20906178       4.77875037       4.94115149       0.17905511      -0.18542987       0.06125663      -0.26142287      -1.74317586      -0.06073605
Cs      28.18772123       7.10877233       9.27093352       0.03913219       0.01836543      -0.01543586       0.90155967       1.85995995       2.30488089
Cs      24.68274600      11.28836900       0.22246244       0.02970273       0.00691703      -0.00508317      -1.33531899      -1.48371541      -0.31035952
Cs      27.99014205      14.66368126       4.40202316       0.04702182      -0.02129275       0.02131030      -0.76070055       0.14259486       1.16297431
Pb      17.88189686      16.97438642       7.93961015      -0.17150424       0.38778866       0.26076185      -2.07301787       1.30921769      -1.57423877
Pb      21.78888003      17.15968814       8.18069591       0.11021778       0.42116270       0.06003264       0.94527878       0.78714726       0.74785111
Pb      18.99175859       9.15940836       4.46701988      -0.08598005       0.43374466       0.13631560       3.04490470       3.47818499       2.04447288
Pb      15.06899869       9.37808217       4.53765157      -0.21995609       0.02561175       0.04938202      -0.56136575      -1.44112331      -0.58047163
Pb      25.77697879      17.29595404       8.47414106       0.18835740       0.32981825       0.08451417       1.54582710       0.42301317      -0.18411218
Pb      29.78459564      17.26655728       8.44080912      -0.32965528       0.03709879       0.19211443       0.43666154       2.09841361       0.31530589
Pb      26.92758751       9.52593795       4.53599811       0.30073126      -0.15909634       0.64863084      -1.55756523       2.30454495      -1.45131608
Pb      22.88768041       9.30052606       4.85871066       0.27362829       0.18693141      -0.16864335      -0.86552311       1.55451133       0.87305303
I       19.85994529       3.35396953       2.67846853      -0.07091416      -0.33703025      -0.40488269       0.65376340      -0.24317675       0.11431985
I       17.11692482       7.66624815       2.57972394       0.06014033      -0.14153705      -0.27336077       1.06234044       0.02594045       0.09549341
I       19.77353058       2.60081189       6.72108952       0.05538737      -0.04967154       0.32425067       1.22266054      -1.45517636      -0.10966918
I       17.16196329       8.07309545       6.89141177      -0.03949447       0.21358865      -0.21883618       0.25970583      -1.23418040       0.76592115
I       21.08720775       6.77405142       4.99149795      -0.14782535      -0.28026012       0.05989240       0.54214612      -1.11459875       1.20111829
I       15.76157989       4.72677934       8.67685523       0.24813163      -0.22173665       0.04571105       1.25890609       0.37675379      -1.67572988
I       20.97569370      10.98879345       6.61231000      -0.07912858      -0.06485126       0.09706563      -1.39030376      -0.53599155      -0.02851616
I       15.66183580      15.15962219       6.34417964       0.14721069       0.04088239      -0.04759862       0.80907456      -0.64464865      -0.35484380
I       21.25400003      10.44665675       2.29706218      -0.16565505      -0.11012385      -0.01606809       0.85382040       1.05618297       1.24444423
I       15.86755646      15.64888333       1.98545548       0.21254037       0.01765341      -0.13307361      -0.12760866       2.25063008       0.63056663
I       19.95186707      14.64832506       8.71853970      -0.20930787      -0.12647007       0.00285427      -0.77380305       0.06834519      -0.93052669
I       17.13970854      11.86807713       4.01591850       0.17242087      -0.18835924       0.08760580      -0.48161513       0.26161941       1.88640315
I       27.94598010       3.18546470       3.33582942      -0.00336108      -0.09954672      -0.23918112      -0.95117393      -0.08095094       1.01826536
I       25.15819480       7.85245693       2.73372023      -0.12595189      -0.07000281      -0.16052354      -1.36977956       0.19453919      -0.72620260