320
Lattice="25.356093371687486 -0.1065490082268892 -0.19187677835240669 0.07755788227136919 25.376386568457004 0.27590338859444424 0.1691801122122475 -0.29781874292918886 25.404906270035514" Properties=species:S:1:pos:R:3:forces:R:3:momenta:R:3 energy=-973.0302673973092 stress="0.0 0.0 0.0 0.0 0.0 0.0 0.0 0.0 0.0" pbc="T T T"
Cs      13.49006647       8.99563039       5.53980256      -0.00457225      -0.05788744       0.13120405       0.13748686      -0.72834993      -0.78593626
Cs       7.69718799       2.67424988       6.06796946       0.00371058       0.24815401      -0.04568331       0.09577218       1.99256211       2.89414976
Cs       6.92268370       3.61765819      11.80453066      -0.05753762      -0.18656498       0.07939405       2.07388252      -1.53801206       0.14163297
Cs      12.47157100       9.00022337      11.93203509       0.16781803       0.12555262       0.03699369      -1.30649686      -0.64431327       0.08458223
Cs      13.18201712       2.84565238      12.34338466       0.03637081       0.17301224      -0.09669024       0.95282937       2.25196149      -0.93559405
Cs       6.58767780       9.67210582      11.86524137      -0.02364260      -0.01701487       0.09731432       0.16833049       2.72198652      -1.04872438
Cs       6.72716786       8.26023696       5.66960883       0.20278001       0.11438699      -0.05916616      -2.99382061      -2.35303347       1.91471170
Cs      13.66921246       2.06166036       5.69627580      -0.06438729       0.05748373       0.06483053      -0.81232253       0.83429561       2.21865207
Pb       3.97076183      25.36798001       8.92527403       0.13141472      -0.14556720       0.15751971      -0.30100824      -0.34531940      -2.03745124
Pb      10.25013857       5.97759329       9.08709171       0.16502922      -0.20575508      -0.15322847      -1.64944343      -0.18157521       1.63522826
Pb       3.85046013       6.00155229       8.92692966      -0.15074825       0.14022070       0.20715889       1.59779796      -0.30189147       3.67280706
Pb      10.40382671      24.95921219       9.44719312      -0.22655599      -0.04642570      -0.27840823       0.00463325       2.47768540      -1.90253382
Pb       3.99017212      25.19418823       2.65956438      -0.21775828      -0.23597078       0.22440609       1.42330544       0.73343035      -1.18934415
Pb       9.78650481       5.99535002       2.52012685       0.25790043      -0.04810535      -0.08899439      -2.46864429       1.47753171      -0.13131067
Pb       3.66398852       6.02713600       2.25851543      -0.15780062       0.58527783       0.31465812      -2.42282399      -0.01793500       2.29039965
Pb      10.13182741      24.97543367       3.14023315       0.27008868       0.38389719      -0.09532473      -2.58541058       3.16965579      -0.75115403
I        2.91563245       2.87250852       9.46295524       0.01921167       0.36432585       0.10208931       0.94426993       0.50213437      -1.90230536
I        9.66352923       9.08066104       9.25350099       0.01437502       0.10925486       0.10358558       1.86355398      -1.15214075      -0.55005468
I       16.91037273       9.27882115       8.59231684      -0.01678337      -0.45039278      -0.13276059       3.45549540       4.32621392       3.34956120
I       10.81541846       2.72109674       8.63467154      -0.00030842       0.14770605       0.04217076       2.10301923       0.45061467       0.16610826
I       13.45181085       6.07341346       9.63393733      -0.36618246       0.11783396      -0.10684274       0.00651836      -0.55294358       0.32053290
I        7.21446367      13.19562095       9.52785957      -0.13747157      -0.07096873       0.01391687       1.65069307       1.33816782       0.51632457
I        6.93429940       5.37283668       8.98089019       0.28830210      -0.09692264      -0.02115596      -1.60734424      -1.07837367      -1.55348447
I       13.25696819      24.11800684       8.26072705       0.36448327       0.03502540       0.16529279       1.35546360       0.34353906      -0.60199495
I       17.07542903       9.36085868       3.16573204      -0.19546062       0.03077759      -0.05988463      -0.85532589       1.38527058       3.19661652
I       10.74036299       2.90212393       3.15680953      -0.19363994      -0.26220898      -0.07583665      -0.89871470       2.54534223      -1.73979023
I        3.08707682       2.99654247      14.86956961       0.04961987      -0.22002179      -0.01499463       2.18764831      -3.15321394       0.77783717
I        9.10053972       9.17114126      15.23648407       0.10561346      -0.23962040      -0.22187000       1.31009038       2.06579024      -0.97370073
I        7.00154866       5.66905680      15.94711098       0.56979401      -0.18871012       0.02293523       1.55915398       0.49639000       0.01859696
I       13.38218568      24.55389722      15.59411020      -0.13114315      -0.11872923       0.15259575      -2.49140288      -1.02297002      -1.65534111
I       13.10364849       6.06863331       1.72005072      -0.14924099       0.22247959       0.16422304       0.32376750       0.24539379       0.42175197
I        6.84651901      12.83505854       1.95194880       0.29810484       0.08823296       0.03919661       2.66117366      -0.18571064       0.37524747
I        3.27830492      11.72786358      12.07313513       0.24999523       0.16455052       0.35084684       0.66339788      -0.31686710      -2.65139126
I       10.32696519       5.75182945      12.39376209      -0.14367021      -0.00561105      -0.19405814       2.95981914      -2.22501067       0.94610571
I       16.88750156      -0.13628921       5.84506783       0.11493561       0.19803051      -0.10328709      -4.82696999       0.92070908       0.97350273
I       10.25604127       6.18463395       5.69181260       0.07805515       0.07970009       0.39517245      -0.34030992      -2.41184150      -1.05539678
I        3.62316609       5.85479918       5.86886415      -0.00579411      -0.04969509      -0.22219100       1.38267442       0.97886358       1.87335810
I        9.48069335      11.62022864       5.75313190      -0.10905157       0.08964499       0.22327749       0.51892659      -1.24574771      -1.84922313
I       17.12987489       6.02417949      12.23947239       0.06029391       0.14268841      -0.07532290      -0.15516832      -0.00908618       0.64109377
I       10.76625334       0.03329269      12.06783475      -0.08744531       0.00193294       0.45840473       1.68937898       0.19003808       0.66142509
Cs      14.24641678       9.31570168      18.28345196       0.00384536      -0.18564225       0.10742409      -1.78852328      -0.34122648       0.00081499
Cs       7.42056575       2.10295960      18.13384141      -0.00139425       0.04863205       0.15499249      -0.91437413      -0.83002263       1.74597180
Cs       6.34668519       2.73458590      24.92957077      -0.01575602       0.12546338      -0.26582249      -3.28425038      -0.36687306      -1.53349417
Cs      12.74428654       9.15864119      25.25720452       0.07753249      -0.02295454      -0.10921080      -2.65235846       0.23749409      -0.34039606
Cs      13.18769488       3.15817644      24.79020563      -0.05249357       0.00955546       0.04448142      -1.44685082      -1.95261824       1.23854720
Cs       6.99188708       9.70173821      25.08314263      -0.10020292       0.02538256      -0.01436094       1.64632926       0.64534790      -0.87660039
Cs       7.23383691       8.61656030      18.90523497       0.03367503      -0.03536485      -0.08302554       0.94247167      -0.47046737      -2.14941027
Cs      13.47147743       1.99522066      18.48163779       0.08079394       0.04254326       0.05338602       0.42878244      -2.02768275      -2.11004674
Pb       3.96653838      25.13250309      21.58388001       0.07784142      -0.06945357       0.05419797       0.78903903      -0.64072020      -0.49180675
Pb      10.11437946       5.94729370      21.67485192       0.05679064      -0.18856810       0.26553467      -1.82068367      -0.35642344       2.37696758
Pb       3.98728323       5.92662920      21.58028428      -0.28029895       0.02570177       0.10622628      -2.11518802       1.57375614      -1.86165933
Pb      10.49546235      24.87256018      22.20569207      -0.08998582       0.05238244      -0.22210984       3.10816797       0.71567165       0.62788941
Pb       3.57661165      24.94301858      15.17616541       0.26876059       0.04604378       0.06508002      -0.79851651       5.61886258      -2.57576552
Pb      10.29837876       6.25708742      15.66850493       0.16142216      -0.27821213      -0.11531207      -1.70651333       1.25524228      -0.24044963
Pb       4.07784512       5.93096929      15.42551401      -0.10297623       0.35303396      -0.00070979       0.47391229      -1.11150137       1.81393164
Pb      10.11354544      25.09002974      15.67685028      -0.31908775      -0.10841003       0.03435525      -0.51239439       2.47106156       2.58486956
I        3.16929409       2.79277676      21.90683284       0.01673624       0.03205648       0.11067085       1.24520920      -1.83808905      -0.63794957
I        9.68934216       8.93271794      22.41318245      -0.10161177       0.05552061      -0.10012323       0.16941989       1.97614076       2.93357337
I       17.28948734       8.84798930      21.05279168       0.02785622       0.32232736      -0.04279238       1.46466955      -1.45216391       0.43308588
I       10.67162709       2.58525989      21.41231712       0.05073683       0.12783595      -0.12926475      -0.80916823       1.88920034       1.38713075
I       13.26157513       6.32038839      22.53372051       0.09303904      -0.02984463      -0.05939609       1.67099821      -1.04979718       0.83580913
I        7.05464129      12.75052866      22.20439052      -0.19963623      -0.04160567      -0.13819425       0.84522221       0.95769066      -2.93586451
I        6.89619553       5.27733882      21.03883339       0.43517819      -0.13160177      -0.11273562      -1.67282730      -1.62831287       2.26969352
I       13.57470643      24.30628038      20.94809877      -0.00815993       0.12489738       0.28294061       0.34984350       0.86014423      -2.24724563
I       17.32037561       8.96935752      15.81129771      -0.06780166       0.01190269      -0.09802053       1.02817096      -0.48941585       2.80881818
I       10.64404030       2.62755236      15.83854224      -0.01795544       0.58386439       0.02370364      -2.58170615       0.02410058       0.75840076
I        3.05764242       3.13593222       1.95966445       0.06294576      -0.38854553       0.04486985      -1.95256862      -1.26082234       2.02081128
I        9.55074067       9.28805889       2.55235697      -0.02716131      -0.26661525      -0.11430355       1.06822207       0.47237145      -1.35350079
I        6.72836188       5.59731532       3.07897228      -0.01930155      -0.17740244       0.05404309      -1.96257754      -0.03310576       0.39282294
I       13.39585743      24.52604643       3.09401162      -0.17486727      -0.14365896       0.22976379      -1.43335346      -0.67298747      -0.96944658
I       13.51718153       6.54478419      14.96377246      -0.13658012      -0.05140435       0.04892680      -0.32052048       1.56806251       0.42444500
I        7.20336153      13.48751892      15.01231263      -0.22476814      -0.16245633      -0.09129768       1.22952398       0.47613078      -1.02689440
I        3.30167504      11.93066429      24.79970526       0.12973402      -0.04189932       0.20006030       1.90425601      -0.13000471       0.00838059
I        9.34402464       5.25089732      24.83455767       0.11855065      -0.03542416      -0.09152549      -1.95400898      -1.83518047       3.43301683
I       16.91908759      -0.31780547      18.40832791      -0.11562106       0.10439774      -0.21159748      -0.53429836      -1.49201347       0.14227833
I       11.04463596       6.64383961      18.64625541      -0.09750168       0.03468096       0.00589487       0.73125989       0.39310363       1.87967158
I        3.77041477       5.59499229      18.61386646      -0.27919872       0.10441318      -0.07026391      -3.09119808      -1.13282149       3.13916336
I        9.83628617      11.63796673      18.46753162       0.00309260       0.13015254       0.04902271      -0.20513869      -0.51534074      -1.46060420
I       17.33710888       6.23499846      24.87353065       0.01789377       0.11612136       0.07970058      -1.52809309      -0.36112615      -0.48740939
I       11.13837639      -0.22391936      24.89076218      -0.12256695      -0.02591991       0.35828127      -1.32659422       0.94770695      -0.91374816
Cs      13.83430745      21.02604667       5.79162752       0.06287088       0.19603587      -0.10534609      -2.65349785       1.79266146      -3.83889438
Cs       7.26037199      15.32349428       5.95875842       0.19073053      -0.10938921       0.04792227       0.77053717      -0.56736658      -1.18488391
Cs       6.39637151      15.86625320      11.96032952      -0.03855546       0.22298997       0.02339752      -2.03214320       0.15453074      -1.31506701
Cs      12.53070259      22.12591965      12.03169320       0.07773179      -0.15416389       0.05731731      -1.08293301       2.82203951      -2.14514058
Cs      13.27531855      15.90399634      12.34569436       0.02927043       0.02366455      -0.07344159       0.32941366       1.07278808      -0.22492906
Cs       6.76092390      22.80032620      12.55973955      -0.16153490      -0.16979975      -0.07640205       1.01847297      -0.11259787       2.45719207
Cs       7.52909993      21.15881169       5.97747315      -0.09453067       0.00481268       0.16589692       0.47906773      -2.09096451       0.26017757
Cs      13.73670405      15.58047200       5.58216192      -0.01635794      -0.05938140       0.06624455       0.22714989      -2.25487971      -1.12424522
Pb       3.99708729      12.57670188       8.97988072      -0.39303270       0.16260879       0.18987571       2.25792073      -0.51864844       2.19053278
Pb      10.34908105      18.48454521       9.24292368      -0.31702711       0.11387483      -0.04729969       2.55997002      -5.28273180      -0.65600369
Pb       3.79304601      18.90258757       8.95881661      -0.03586536      -0.35220676       0.03980998       0.08969011       0.40007101       0.44304815
Pb      10.21156636      12.28851480       8.92164085       0.28844547       0.22682974      -0.16243182       1.64529235       1.99971342       2.39674863
Pb       3.89393075      12.57129294       2.67753595      -0.13489242       0.16196977      -0.00057080      -0.15455948      -0.04771278       1.60995630
Pb       9.95982427      18.82985776       2.86759816      -0.13369554      -0.37234416      -0.15872468       0.10523147       0.34812279       0.82740136
Pb       3.79561104      18.96862678       2.65403184      -0.12867582      -0.33658571      -0.12306008      -3.64860222      -1.20118240      -0.01237254
Pb      10.04485294      12.49882186       2.72463157       0.11365712      -0.15662194       0.11722742       2.40888617       2.08644748       0.96604446
I        2.79329228      15.75107857       9.68386043       0.15144245      -0.28957813      -0.05910202       0.91397870       2.71796933       0.94834213
I        9.36577122      21.79573934       9.55316645       0.08489296      -0.10935536       0.00998267       1.01696941       3.01314689       1.40916525
I       17.32603069      21.75030138       8.12954006      -0.03562009       0.00659345       0.16168244       0.88334722      -1.77808274      -1.18439952
I       10.78716194      15.45516661       8.41232654       0.00062736      -0.08713483       0.01471621      -0.87791873      -2.23976235       0.63149711
I       13.41267918      19.14942235       9.49840191       0.01862426       0.04382752      -0.07053647       1.06617638      -2.21615824       2.87544258
I        7.02347177       0.24178729       9.35716228      -0.14438150       0.11862974       0.15223404      -1.97685733      -2.25656774      -2.00035106
I        6.95282961      17.76549357       8.92230052      -0.02346762       0.19762110      -0.08320165       1.61437002      -1.72531706       1.64399928
I       13.56847092      12.35866070       8.13174866      -0.39836936      -0.25577661      -0.05583215       0.06487638       1.10647380       1.50305258
I       17.18661680      22.20513896       3.05407213      -0.03577755      -0.51499228      -0.02964177      -0.50001115       3.30743680      -4.27909954
I       10.50633344      15.44963856       3.32964628      -0.00582337       0.39639530      -0.10848866      -1.26709069      -1.71218632       0.94673823
I        3.27514585      15.73907004      14.71628538      -0.01699861      -0.32340387       0.05860751       3.96395004      -0.05400006      -0.80672641
I        9.63075899      21.89250149      15.19358740      -0.04590277      -0.29617155      -0.08473758       1.75118646      -0.07166197      -0.28889664
I        7.01843346      17.84625697      15.71973264       0.16158353       0.05482463       0.01701380       0.82864866       1.45995050      -0.46640741
I       13.33256462      11.77641336      15.47319743       0.12906902      -0.16478500       0.04081785       0.58936224       1.07972945       0.03110395
I       13.23184894      19.26058637       2.63445973       0.00541319       0.00669472      -0.15956393      -1.01475290      -0.55921475       0.88096854
I        6.97074749       0.15540902       1.46935602      -0.08830946       0.00039932       0.26183573      -1.08018607      -0.89792318      -1.31005360
I        3.14273929      24.85443295      12.16808368       0.01536462      -0.19767013      -0.08152051      -1.07268877       1.02313034       2.66722707
I        9.88911910      18.09431001      12.09744233       0.01203486      -0.03592396       0.45765792      -1.57520867       1.93949130       0.40973785
I       16.93855007      13.20610775       5.57021225       0.14312988      -0.00664920      -0.32310316       0.58787187      -0.48071535      -1.06986417
I       10.70042223      18.83458951       5.95415106      -0.06076836       0.08774808      -0.17170276      -3.59076265       0.16019664       1.29813388
I        2.91246882      18.20397085       5.67247887       0.04706498       0.05215749       0.24730185       2.86570687       1.45438181       0.26671187
I        9.30532627      24.94462353       6.33083790       0.09388140      -0.21035139      -0.72405628      -2.69081546       0.40087804      -0.10978849
I       17.00226046      18.92349627      12.16814638       0.02337763       0.03149768       0.05944314       0.52093606       1.76371664       2.96659804
I       11.05162562      12.73017971      12.12129638      -0.15373190      -0.17185385      -0.09207894      -1.08813916      -0.74791734       0.34564484
Cs      14.07712718      21.70004619      18.57109603      -0.11030559      -0.10205698      -0.14269190      -1.20187276       1.71418014      -2.88702805
Cs       7.36813435      14.96149056      18.35904397       0.12423948       0.05647374       0.09560424      -0.09968691       2.96580238       1.68502066
Cs       6.61867562      15.39584032      24.76099897      -0.04585607       0.09459362       0.06825817      -0.93954323       1.42913400       1.94630998
Cs      13.09951654      21.93106934      25.37381300       0.10528315      -0.01845713      -0.02570684       2.08737373       1.02634211       0.85018278
Cs      12.94350744      15.25026512      24.96234774      -0.02900011       0.06731104      -0.13394151       1.26296627       0.43671065       0.13110291
Cs       6.89404095      22.54529300      24.50294066      -0.02011978      -0.02744196       0.10194886       1.89609970       1.73678522       3.14965307
Cs       7.64040942      21.17103850      18.16928316      -0.04811949      -0.00272093       0.16924373       5.28555160      -1.19888021       0.93812690
Cs      13.81783033      14.15958020      18.33231014      -0.21251882       0.16637939       0.13603529      -1.20103362      -0.15567265      -1.38224516
Pb       3.59939021      12.36167384      21.73307032       0.28290282      -0.11302786       0.10886107      -0.97908870      -4.03785892       1.78360865
Pb      10.38269329      18.59254197      21.91629542      -0.12314792      -0.25082620      -0.04710440       1.36926272      -0.27805867      -2.03694797
Pb       4.05280823      18.77555939      21.79135801       0.18687870       0.04504420       0.16962309       1.07874658      -2.18416322       2.38044339
Pb       9.94992089      12.25177688      21.68128909       0.35569576      -0.03177525       0.00740561      -2.85854978      -0.78898445      -1.28897080
Pb       4.05243642      12.58556172      15.36187078      -0.01546741      -0.28866342      -0.33112602      -4.58985308      -0.27218181       1.99812745
Pb      10.23967528      18.62235857      15.51918977       0.11069176      -0.11566874      -0.17472849      -1.35817713      -1.76733891      -1.99729706
Pb       3.83665061      18.61738200      15.45656090       0.16511434       0.20846165      -0.20679486      -1.64991739       2.37929638       4.31129843
Pb      10.28316194      12.25469259      15.27564190      -0.18920965       0.28552035      -0.03357433       0.43891342       1.11546934       2.91787393
I        3.39440849      15.50108841      22.29359144       0.02709296       0.16612747      -0.06295415       2.04016671      -0.70957034      -0.81282646
I       10.06867562      21.55662576      22.55410758      -0.05469264       0.17921749      -0.02838580      -3.02620103      -0.43053301       0.29411916
I       17.02562872      21.79802989      21.22325344       0.06497215      -0.22557951       0.00397749      -0.48506914      -0.93097868      -1.96951478
I       11.07266323      15.28468725      21.48289275      -0.07296209      -0.00831248      -0.10135167      -0.20546305      -0.89861895       0.31631066
I       13.43969947      19.22928002      22.49780308      -0.04259070      -0.02484405       0.07352725       0.47236599      -0.39105602      -0.11358587
I        7.18818257       0.09144283      21.90943596      -0.01827533       0.09004870       0.04039182      -0.23519226      -0.39405637      -1.97855209
I        7.16799787      17.96351540      21.20148220      -0.00393708      -0.00929007      -0.09940830       1.62706141       0.60885805       1.89017845
I       13.35319377      11.53038130      21.56938368       0.14946365       0.02976353      -0.15357397       1.25830371      -0.71568692      -0.70320441
I       17.13900811      21.68831629      15.74126054      -0.11185749       0.03111693       0.05448276      -1.31610981       0.51844328       0.47987842
I       10.94505876      15.34383117      15.74329517      -0.00850001       0.25378303       0.05538011       1.61560124      -0.37815400       1.16642121
I        3.16562574      15.71124866       2.29376794      -0.01139120       0.12520773      -0.12058943       2.11628624       1.37812499       0.39713219
I        9.41032473      21.95034244       2.53513493      -0.06565437      -0.13994488      -0.05253929      -0.37822705       1.69243092       1.69035666
I        6.82016006      17.92761014       3.39580354       0.32541562       0.16274046      -0.00553649       3.92338270      -2.55975196      -1.43015630
I       13.33906191      11.90415741       2.88888614      -0.10637963       0.07400716       0.02033876      -0.76233366       1.52457487       1.20673512
I       13.38685138      19.32488908      14.71165238       0.01871295      -0.04183886       0.05923349      -0.27987337      -0.70838705      -2.25180120
I        6.87543258       0.53963743      14.70649375       0.27463262      -0.06542182       0.00286244       0.66222618       1.41550722      -0.19778952
I        3.43127253      24.82178331      24.93366965       0.11945092      -0.09533921       0.24116123      -0.16302344       1.87110944      -1.55838238
I        9.66919740      17.78555918      25.02183157       0.19786593       0.06181230      -0.03916344      -0.11443253      -0.84330202       1.48595989
I       17.00922587      12.52290106      18.18018178      -0.01811893      -0.12891783       0.26129238       1.73983593      -0.76205192      -1.78931799
I       10.81371283      18.99062929      18.51168475       0.04614801       0.01215754       0.21399667      -0.99992023      -1.24127879       0.51122143
I        3.38076197      18.15994301      18.60556913       0.10896264       0.06495390       0.02725114      -0.17436517      -0.91265775      -0.14957768
I       10.14478693      24.21011931      18.91997771      -0.05685795       0.17461195      -0.43449150      -1.51687482       0.63951380      -0.79511396
I       17.53295596      19.02176788      24.77192580      -0.14076361       0.15194933      -0.01830529       1.03520864       2.43513292       3.10228615
I       10.68274610      12.06565530      24.86628526      -0.11344251       0.25183148       0.05352625      -0.77941547       0.29910119      -1.32239625
Cs       1.05754254       8.79181623       6.03170755      -0.01562070       0.09771861      -0.01857198       0.79823697       0.10720417      -0.17767085
Cs      20.15765015       2.71818753       5.36268683      -0.15003894      -0.07796658       0.09562877       2.70856543      -0.50233482       2.04087407
Cs      19.53005544       2.97025173      11.85469266       0.05969963      -0.10864698       0.09492435       1.27705473       2.54662872       1.04340425
Cs       0.31752530       9.42282695      12.17135964      -0.15806493       0.13982580      -0.05655439      -0.49410442      -1.56810923      -0.40540439
Cs      -0.17412563       3.88538183      12.51593259       0.32710465      -0.12929915      -0.10617496       0.03087905      -0.85194709       2.08022413
Cs      19.49675879       9.45488353      12.37550785      -0.05210116      -0.02173567      -0.25899853       0.43096276       1.60198178       2.44490214
Cs      19.70181154       9.27819864       5.84494467       0.18451953      -0.17558376       0.09443402      -3.84500694      -1.37635552      -1.90306355
Cs       1.01834381       2.71609591       5.44041547      -0.02003964       0.07327362       0.12098641       0.48474098       2.51500177       1.34107943
Pb      16.65521123      24.61445848       9.00872644       0.05787753       0.35720949      -0.04858968      -1.40515917      -1.90747430      -1.28896666
Pb      22.83913399       5.95164631       8.94429764      -0.22533591       0.54638541      -0.16591140       2.17751586      -1.97653286       0.19210270
Pb      16.54674937       5.75614353       9.07920233       0.14209424       0.07560745      -0.02564710      -0.04803042      -0.08378873       1.16591410
Pb      23.29921774      25.19972319       8.75582074      -0.58766948      -0.04589108      -0.34105778       3.38075960      -0.36828566       2.45326570
Pb      16.62851235      25.19816571       2.75095390       0.02290559       0.00661112       0.05859086       0.97470900       3.67069663      -2.67502013
Pb      22.64999765       6.17562789       2.64651740      -0.01617024      -0.31803722       0.12134506      -3.91542045       0.33775919      -1.04824134
Pb      16.17117958       6.07571865       2.70829108       0.30760529       0.14824798       0.10791557       2.11292069      -1.27885877       1.14833631
Pb      23.16094863      25.21440034       2.51397579      -0.14827597      -0.12957974       0.07180439      -2.50480366       0.67693299      -0.14523880
I       16.40160036       2.67328925       9.70523281      -0.14647400      -0.09678335      -0.10547511      -0.55341725      -0.44668067       1.91437126
I       22.03871853       9.18187516       9.08568161       0.09573313      -0.02461301       0.00175680      -2.62719284       1.10825007      -0.86841057
I        4.88876378       9.35339012       8.82467363      -0.21994545      -0.19501016       0.02900251      -0.36242761       0.26110914      -1.17446899
I       23.34143525       2.89023151       8.08750551       0.07118408      -0.07747300       0.03145433      -0.02267523      -1.08128637      -1.28804326
I        0.71829444       6.89416165       9.27382186      -0.12725781      -0.07803978       0.03085228       0.77896018      -0.91964624       1.65608075
I       19.85878991      13.02436384       9.04516175      -0.13560137       0.03693219       0.05951207      -2.12842032      -0.57829589       1.15482298
I       19.65224580       5.53007896       8.20606249       0.17552402      -0.04602215       0.03019763       0.43485395      -1.74704784       0.71821871
I        0.78661566      25.00917182       8.27297138      -0.03101563      -0.19877569      -0.06781984       0.93178511      -0.76767731      -1.65024866
I        3.87207242       9.44947634       3.11580473       0.13896732      -0.40234125      -0.05863753      -1.09430080      -2.79270218      -1.79983385
I       23.62226487       2.90904833       2.74060840      -0.11731059       0.30908076      -0.03015430      -1.71239002       2.01982771       0.39518934
I       16.33877831       2.58786761      14.34584570      -0.01317765       0.10785841       0.24257343       2.64748793      -0.76267747       1.28666956
I       22.37331164       9.12617797      14.71689119       0.05417123       0.23758493       0.14497858      -1.96158050       2.38580783      -2.06483557
I       20.01396325       5.27760607      15.87309053      -0.19053288       0.08116926      -0.00397415       1.29845551      -3.08159087      -1.07054992
I        0.79855932      24.21010746      15.89872918      -0.42535811       0.05321063      -0.04286043      -0.16204430      -2.10963083       0.54681243