320
Lattice="36.61494431704515 0.8521064442996575 0.6472952383376436 -0.4899562435077865 21.43320960287554 0.4582089290160639 -0.349194964961731 -0.4123068262220005 19.635594233834194" Properties=species:S:1:pos:R:3:forces:R:3:momenta:R:3 energy=-986.3666393857633 stress="0.0 0.0 0.0 0.0 0.0 0.0 0.0 0.0 0.0" pbc="T T T"
Cs       7.97614485      19.25742333       0.79052252      -0.03316320      -0.05687464       0.19319656      -0.57891327      -1.88425238      -1.35344400
Cs      14.01259601       6.66916579      18.21682854       0.09683377      -0.08097206       0.02973854       1.28134225      -1.31657722       1.43851448
Cs       5.21973450       3.11685156       0.44833959       0.05148052       0.04936536       0.21543597       1.57091767      -0.04772060       0.03104579
Cs      17.22387055       1.28786201      18.07391782      -0.00735962      -0.02284367      -0.07503272      -2.73319748      -0.05450375      -0.51483018
Cs       7.59822153      19.21172980       5.88038011       0.11618106      -0.03446408       0.02602826      -1.86269178       1.65881648       1.47453889
Cs      14.59196307       6.97163121       3.29749799      -0.06926439      -0.13656755       0.04558217       0.68129866       1.14472641      -3.76148435
Cs       5.36832279       3.20224414       5.45907393       0.03368079      -0.20843319       0.03756123       0.60633813       0.04314966      -0.25531451
Cs      17.42277933       1.46628551       3.24807505       0.00263959      -0.05111305       0.09315752      -1.83980688       0.55020949      -2.05032398
Pb       2.57700184      19.88116840      18.03511470       0.00005238      -0.30632485       0.19905264      -1.04744322      -0.73360965      -0.23306706
Pb      19.60938937       6.16258072       0.98169783      -0.05780256      -0.04633037      -0.02551322       1.25348540       3.12881290       0.98420237
Pb      10.00740816       3.46343431      18.00335225      -0.33379833       0.23776660       0.31245457      -1.26742593       1.69403025      -0.00126341
Pb      12.61445279       0.54859930       0.74926316      -0.22219009      -0.02549688       0.23445713      -0.04970902      -1.56476488       2.83554110
Pb       2.93272325      19.99279250       3.50868589      -0.01460505      -0.22847353      -0.26602674      -0.87395921      -2.30317882       0.27444502
Pb      19.39359062       6.25409165       5.89193667      -0.05805029      -0.33789484       0.14437570      -1.47639434       3.26574145       3.34353733
Pb      10.40728944       3.72204170       3.19426514      -0.06141298       0.21579897       0.14447430       0.71075964      -0.84358282       0.43305011
Pb      12.69096256       0.44917184       5.83267522      -0.34531732      -0.05088705      -0.14139467      -2.86555458      -0.08216546      -0.93171049
I        2.04833945       0.27684609       0.55884969       0.10170146       0.11270826       0.00854991       2.24476659       4.80439793      -2.07991639
I        1.83697363       3.70787451      17.90115582       0.02990843      -0.05969480      -0.01971399      -2.40363539       1.77018491      -0.43115181
I       11.31387958       5.94565885       0.87209624      -0.05328408      -0.31724774      -0.15863419      -0.54018426       0.34007900       0.81332315
I       10.66813984      19.93199646      18.30171418       0.02530876      -0.16186948      -0.05710155       0.70769989       0.69039168      -0.56982645
I       18.05074099      18.44332884      18.43037361       0.00803809       0.14101228       0.05615328      -0.55374552       0.39442609       0.89291330
I        4.29575592       7.77161557       0.57082471      -0.14471708      -0.18815658       0.19963403      -2.65067509      -1.35870620      -0.84818165
I       12.94614745       2.29944025      18.09727707       0.29452331       0.14931815      -0.00529494       0.44908673       0.44499312       0.33203193
I        9.35707511       1.83578464       0.77468236       0.11828301      -0.02985405       0.01560850      -0.40090535      -0.51052658      -0.60320053
I        5.35034942      21.34290699      18.25411247      -0.03782585      -0.06906900      -0.05258747      -0.86210404       0.20069001      -0.62573695
I       16.95542293       4.52810757       0.93272375      -0.14827107       0.17781035      -0.05143148       1.44812751       0.70226409      -0.48019048
I        7.12548766       4.97099964      17.94410557       0.14253947       0.00656898      -0.00884045      -0.31524311      -0.52737279       2.19024326
I       14.85689000      20.62107671       1.02043138       0.18455129      -0.04541377       0.15588805       0.31864897       0.46469607      -2.78583875
I        2.23763263       0.31891305       5.32643820       0.01147242      -0.04966322       0.20401593       1.73033345      -1.67191004      -0.79828567
I        2.35945652       4.19236821       2.98125067      -0.08064746       0.06460592       0.06918355       1.36283720      -0.86627481      -2.16151504
I       11.48471834       5.53306201       5.79319639      -0.10221860       0.10092555      -0.07761350      -1.05835624      -1.23813110       0.41063851
I       11.09903330      20.13166346       3.76747086      -0.03708448      -0.07258165      -0.10381844      -1.53835210       0.47379380      -0.85319579
I       18.15930224      18.74239179       3.72326100       0.02477667       0.03032334      -0.05280127      -0.77101333      -0.58819788      -1.41975634
I        4.19575793       7.50735687       5.76669352      -0.15644154      -0.17368969      -0.26019421       0.90528563       0.45238673       0.00778777
I       13.58023200       2.44937081       3.31290837      -0.05808790       0.07810373      -0.04614190      -1.06022454       0.03588701       0.21594784
I        9.46863084       1.78691769       5.71842571      -0.01231135      -0.06266315      -0.10761937      -1.86773426      -0.86279357       1.23364679
I        5.68792713      21.41454174       3.26107589      -0.05734611       0.09235393       0.11024662      -1.88425963      -2.15220046      -0.96545984
I       16.74197956       4.49721395       5.70282771       0.04873046       0.15777452       0.14182464      -1.54840549       1.06395566      -0.02816875
I        7.60491151       5.15974577       3.27292815       0.00569993       0.08184727      -0.17107609      -1.15813880       0.18454847      -0.44978514
I       14.88693983      20.39714223       6.37198272       0.14526692       0.03612411      -0.08241227       0.18945620      -0.94232396      -0.01581356
Cs       7.77032983      19.10627767      10.97197912      -0.07168468       0.04178858      -0.10390509       1.28877310       1.08011816      -0.34116326
Cs      14.29036237       6.70703953       8.36328964      -0.00507289      -0.05673946      -0.09852950      -1.41348186      -0.28484760      -0.23894143
Cs       5.19203869       2.59867871      10.47198643       0.05355221       0.17090411      -0.03183154       1.42292034      -0.54320226       0.63831415
Cs      17.37141038       1.52517614       8.33030179       0.01368857       0.01200834      -0.04965498       0.58482067       1.70094260       2.08751820
Cs       7.39134339      19.04860323      15.81456517       0.09521024      -0.03720370      -0.06334149       3.62457367       1.85810250       0.69400263
Cs      14.25680602       6.71952229      13.29592313      -0.00439330       0.04274942      -0.07224560      -0.26446998      -0.45099893      -0.89227977
Cs       5.11351703       2.84755913      15.53581207      -0.08993933       0.01827247      -0.15339169      -0.54735756      -1.31506248       2.54820136
Cs      17.21944338       1.56393277      13.06302176      -0.01195529      -0.07109736       0.11361378      -0.28617967      -1.05883743      -0.94251714
Pb       2.64695383      19.69713969       8.43630082       0.43657333       0.41130633      -0.16353250       0.68778212      -2.06844922      -0.75047882
Pb      19.14088467       6.07124003      10.59477833      -0.03034419      -0.07584804       0.41212585      -0.44809305       0.68585056       1.80869014
Pb      10.13389528       3.75589882       8.22299818       0.21500088      -0.00898357       0.06260578      -1.80042544       0.06190244      -1.48366604
Pb      12.41713279       0.28473212      10.55657981      -0.28794719      -0.05436065       0.00198302      -1.21900839       1.51424939       1.09796887
Pb       2.64349271      19.91905971      13.19475322      -0.04425452       0.06281547       0.00123172       0.07897927       1.22574791       4.54391999
Pb      19.07701627       5.93826413      15.70736433       0.08604748       0.04337042      -0.10236043       1.68014536      -2.19060565       0.96797583
Pb      10.07767125       3.58857312      13.32523462      -0.42967295       0.31302115      -0.45202316      -0.08058541      -0.71963319      -0.30300813
Pb      12.16160412       0.43376893      15.49521988       0.25268583      -0.30542533      -0.09893269      -1.69388259       0.19974706      -2.32732509
I        2.01626933       0.31880701      10.12182512      -0.03669040      -0.03116639       0.19724131      -1.17217103       0.06581994      -0.62717022
I        2.20906240       3.62037999       7.95497668      -0.14699433       0.23952107      -0.04126325      -0.58788442      -0.13793111       0.54524603
I       11.08235022       5.56621879      10.79610456       0.02825585      -0.01665420       0.06832903       0.25182578      -2.11570011       1.21314934
I       10.69105776      19.86343830       8.50235280       0.20524135       0.20566695       0.02844631       0.14915679       1.32902836      -1.03600553
I       18.07549178      18.79050954       8.36069000      -0.00299560      -0.01744478       0.23708816       0.32874666      -0.53793774      -0.64531193
I        3.91390085       6.89348650      10.43952793      -0.13335396       0.28682095       0.04673181      -0.89639625      -0.10670120       0.05934814
I       13.37327668       2.43405923       8.26540834       0.03320745      -0.03584302       0.18300454       0.11980523       0.44656122      -0.17516848
I        9.14816197       1.75985692      10.69524147       0.30466506      -0.08955298       0.03756736       0.07476004       1.68038435      -0.01059766
I        5.54158268      21.30056570       8.36111708      -0.37665809      -0.18968053      -0.00178852      -1.06375166      -0.39778196       2.00110567
I       16.35764919       4.49786215      10.84579558       0.07010302       0.02949775      -0.14602587       0.01518956       2.50151302      -0.71777438
I        7.46344175       5.14685874       8.22730951      -0.25792724       0.09766970      -0.06537644       1.05144433      -3.46346039       3.15089694
I       14.71204182      20.33611725      11.16044579      -0.02174831       0.12423969      -0.07251774       1.63051703      -0.97568330       1.29880895
I        1.80941643       0.17354619      15.20733247       0.04377617       0.18207184       0.04953391      -0.04985729       0.81230314       1.90398751
I        2.07033887       3.78793681      12.91595370       0.05869707      -0.15115618      -0.11325896       0.29511899       0.91860229       0.38909670
I       11.26795027       5.35765627      15.85474511      -0.12501631       0.15506726      -0.25281790       0.89449002      -0.29498585      -1.58549739
I       10.70621795      19.91764731      13.61574078       0.11782288       0.08899804      -0.14289929      -1.68191949      -1.24853784       1.35085080
I       17.90446218      18.58451874      13.61145078       0.09119096      -0.04848672      -0.05307766      -0.72913525       0.35143203      -0.61983820
I        3.52131641       7.22333395      15.65477708       0.38618709      -0.23497824      -0.03606249      -0.20719012       2.60384715       0.29741697
I       13.07505151       2.42644260      12.93829970       0.09228488      -0.01974250       0.12447808       0.70349418       1.21848111      -1.36000431
I        8.84402820       1.52583903      15.51342307       0.30757280       0.02920610       0.06661396       0.17670563       0.31099520       1.59767899
I        5.47443539      21.36793283      13.18517373      -0.20674069      -0.12997471       0.17602381      -0.38570748      -1.88910406       0.22738690
I       16.32230036       4.54149766      15.79597432      -0.01904932      -0.12059849      -0.01967409       1.92908679       0.33896895      -0.67414231
I        7.10797972       5.03092773      13.09346572       0.31014749      -0.10377321       0.12118044      -0.49651142      -0.51463219      -0.79341785
I       14.61308838      20.59043668      15.91266528      -0.24825438       0.06803393       0.05099424      -1.97584190      -1.49052346       0.61269775
Cs       7.99398981       8.55473291       0.60629698       0.10090868      -0.11118653       0.10796890      -0.09711032       1.07891871       0.25515035
Cs      14.28845016      17.21778594      18.34819732      -0.20247888       0.03646995       0.00985755       1.89666584      -0.37059749      -1.72572029
Cs       5.07519957      13.90214605       1.09391577       0.07270608       0.13191684      -0.25300455       0.82178168       0.41911320       1.16607113
Cs      16.91675600      12.25579142      18.26864423      -0.03838442      -0.09970125       0.06553149      -1.92455642       0.17777337       1.64974687
Cs       7.97901581       8.18997286       5.69311637       0.10984651       0.07231884       0.00597174      -0.19613219      -1.00652070      -1.45296116
Cs      14.27086168      17.42474886       3.70619768      -0.07840042       0.07688251      -0.05213325      -0.65605892       0.07848991       0.63764084
Cs       5.12338605      13.63086449       5.79890033       0.03113715       0.04935109       0.00484401      -2.76746966       0.84219500       2.62903559
Cs      17.19376434      11.82357284       3.81960638      -0.05305364       0.26077486      -0.19291528      -1.32208330       0.59619623      -0.04168644
Pb       2.86523793       9.26427837      17.92217388      -0.20714294      -0.07480165       0.00822841       0.27928023       0.27980930       1.80589368
Pb      19.35442596      16.88478662       1.24515551      -0.02542450      -0.06392579       0.11138683      -2.96750293       1.63016108       1.95432161
Pb       9.88864149      14.50493343      18.17059349       0.16676254       0.03257432      -0.01841090       1.60289064      -2.36025395       0.32305932
Pb      12.29452588      11.31680505       1.06519349      -0.10956655       0.10785959      -0.25068904      -0.97645300      -3.54157724       0.72338921
Pb       3.14986106       9.60685393       3.15660099      -0.00058497      -0.15520727       0.10314834       1.39732665      -0.18402187       2.54930010
Pb      18.95380883      16.68186867       6.03748164      -0.05377685      -0.13483579       0.08410274       0.66063665       1.28036462      -0.98872046
Pb       9.94535303      14.66820107       3.41252924      -0.13303439       0.09576379       0.01506421      -0.24466034      -4.14743762       1.88705939
Pb      12.17427727      11.19672738       5.83704728      -0.04617236      -0.25109968      -0.05810682       0.42208916       2.06390836       0.87246436
I        1.67100562      11.32181975       0.86566736       0.20502752      -0.04048704       0.02081337       0.33535155      -1.02773428      -0.14202360
I        1.80022005      14.30868912      17.94236912      -0.08176010       0.01341302      -0.11617830      -0.80932926      -0.23684902      -1.29105750
I       11.08764641      16.68551655       1.17264893       0.15306207       0.09286918      -0.01978495       0.62622272      -0.13840311      -1.20229891
I       10.84895749       9.14642728      18.05822743       0.01729746      -0.03636653       0.17117314       1.43080393       1.12298624      -1.36599059
I       18.19011536       7.91197142      18.27444880      -0.17817704      -0.18001209      -0.01984570       2.60086372      -1.02959907      -0.61121661
I        3.94996785      18.07784949       0.77043282      -0.04475765       0.14702064       0.02424950       0.84091189      -1.98518192       0.74990471
I       12.92579324      13.05536285      18.11656942      -0.01628612      -0.11237051       0.07619556       0.48124738      -1.42230088       0.84563744
I        9.24905073      12.77912450       0.67382584      -0.07816991      -0.06301913       0.23612850       0.88197070       0.09617943      -0.57952250
I        5.50465068      10.73687174      17.95608981       0.21320425       0.10994852      -0.04342630      -0.43245857       1.45505492      -1.96702811
I       16.66667074      15.39039736       1.29211101      -0.21748574      -0.17588040       0.02985866      -2.06439831      -0.78853175       0.59706346
I        7.11404664      15.81863567      17.98704248      -0.28615413       0.03744944       0.09402131      -1.15178415       0.41887345       0.53385579
I       15.08744460      10.03234800       0.86417127       0.18288956      -0.03791356       0.09629170      -1.39644723      -0.58050468       0.95584392
I        1.88903440      11.23334040       5.76060371       0.18599250      -0.17512372      -0.00989534       0.92148161       2.07688402      -0.79268559
I        1.97051911      14.74237462       3.16947337       0.11316469      -0.17423011       0.25555310      -0.27445085      -1.83536438      -0.53635483
I       10.90031156      16.31078932       6.02549023       0.10090931       0.21813644      -0.02537564      -0.69021512      -1.79299326       1.10011158
I       11.20259146       9.18601357       3.11701805      -0.00027840       0.23263791       0.22146694      -0.16602347      -1.16247087       0.48818238
I       18.51233611       8.07950680       3.61381251      -0.21196424       0.07448678      -0.21823994      -0.87166297      -0.85185159       1.47378889
I        3.76072893      17.90297171       5.95680700       0.04213326      -0.11270272      -0.09705020      -1.08580847      -0.70032417      -0.38886686
I       13.05887548      13.33702925       3.60193164       0.04521664      -0.00670695      -0.19817646       0.53495611      -0.13431643      -0.10609753
I        9.25166630      12.66178919       5.93449396      -0.22634254      -0.07292667       0.11229415       0.83909505       0.46566085      -0.77720428
I        6.06310280      10.83698472       2.95464285      -0.17311873      -0.01222010       0.26195471       0.18605817      -1.26220828      -0.75683743
I       16.20396893      15.07253825       6.05629373       0.14418577       0.13148880       0.02358444       2.23418901       1.51998892      -1.94448025
I        7.11777013      16.16511706       3.44850344       0.13608326      -0.07618549      -0.03872290       0.11564890      -0.49987358      -0.21519647
I       14.97764307       9.79114214       5.90653658       0.12542024      -0.01756422       0.09058944       1.71213935      -1.28490684       0.74131575
Cs       7.72168568       7.99389713      10.94181009       0.14046748       0.09633494      -0.16351586      -1.73639698      -0.66028662       2.20944882
Cs      13.90390290      17.45291928       8.64331296       0.07617324      -0.08724910      -0.08445228       0.73408270      -1.10856352      -1.22764504
Cs       5.10640127      13.86449475      10.72439241      -0.01536511      -0.20004676       0.05483268      -0.56460916       0.76312063      -1.29583025
Cs      17.33506560      12.29412781       8.55314671      -0.16311056      -0.19591420      -0.04929244       0.26113459       3.00306511      -1.45641221
Cs       7.67184207       8.12315297      15.67898496       0.10120537      -0.04982742      -0.05400534      -0.60578855      -2.13613208       1.51813531
Cs      14.41306477      17.30320197      13.50977473      -0.18652799       0.03115325       0.01159505       0.21914849       1.44695114       0.29279483
Cs       4.87498312      13.84928518      15.42640732       0.02632530      -0.15905599       0.11381514      -0.03458213       2.08070168      -0.89124711
Cs      16.87353606      12.03506697      13.51544696       0.05923214      -0.01011353      -0.17647828       0.25631605       1.91978493      -0.11818032
Pb       3.27937097       9.19493609       8.13994013       0.04667657       0.24337078       0.10658049       1.56826407      -4.30917634      -1.90680410
Pb      18.95138303      16.76981092      10.87422488      -0.06923469      -0.14013491       0.24234132       0.71398333      -0.72996432      -1.26759360
Pb       9.95645514      14.60245429       8.61740409      -0.09417216       0.04429417      -0.13377646      -3.63408453      -2.40598756      -0.52640807
Pb      12.04418735      11.07541670      10.74466087       0.23552086      -0.23589483      -0.04738702       1.87930555       2.87383642       1.73220612
Pb       2.78883891       9.13285870      13.00600073       0.04749505      -0.31163868      -0.12298987       0.36006587       0.80532359       0.17108269
Pb      19.10032234      16.55639550      16.04431556      -0.26462045      -0.06348617      -0.35001021       0.84084863      -0.90510772      -1.87979402
Pb      10.00366394      14.77139366      13.45836840      -0.09301568      -0.09519698       0.01281884       2.45385524      -2.12164861      -0.52024923
Pb      12.09856250      10.97849947      15.68470923       0.07537831      -0.10750258       0.15620220       0.19365248      -1.54322720       0.68167948
I        1.90845138      10.95782776      10.66888379      -0.03198215       0.09112637      -0.06446150       1.69227625      -0.43563709       1.26270885
I        1.94258730      14.45319789       8.36977497       0.03169885       0.00323244       0.00208106       3.02016406       2.84637713      -1.25665986
I       10.91490726      16.71720586      11.07248634       0.12592669      -0.23246983      -0.20682548      -0.42062468       1.20913518      -1.30746741
I       11.09149674       9.24299613       8.21212756      -0.12376146      -0.02304491       0.18793532       2.61967695      -0.13930635      -2.04997868
I       18.35290782       8.25819432       8.58618976       0.04502313      -0.14274110      -0.48426999      -0.74248398       0.52932354      -1.49961934
I        3.65043022      17.86198630      10.97193342       0.06421928      -0.04466234      -0.19200861      -1.79191719      -0.87889479       0.73549252
I       13.09100585      13.00898729       8.19397290      -0.13388164       0.24887828       0.21935054      -0.84674287      -0.25331415      -0.54042643
I        9.10562829      12.53433495      11.03897933      -0.06002577       0.07386040      -0.02304672       2.41226783       0.45593814       0.86274725
I        6.05913869      10.76803578       8.29356229      -0.25773337      -0.20851406       0.01040851      -2.34735276      -0.05595292      -0.32498580
I       16.32350142      15.01797318      10.75929931       0.00730097       0.18693136       0.14743073      -0.12647850      -2.60699203      -0.76611745
I        7.13547147      16.02704424       8.41694477       0.12984042      -0.06778127      -0.02343262       0.87601483       2.33258178      -0.58953697
I       14.92723064       9.66801683      10.60162634      -0.08106940       0.18130044       0.18682036       2.04523776      -1.55669792      -0.16295885
I        1.56178924      10.79454510      15.30473169       0.00316394       0.30606904      -0.00807632      -0.89196935       1.02287142       2.03510831
I        1.69128777      14.34591871      13.16661685       0.06985190      -0.00682910      -0.01482114      -0.32214888       1.39845123       0.08230238
I       10.98163908      16.62222487      15.87749760       0.02524561      -0.05801713      -0.08536718      -0.08419270      -2.26832426      -0.08289230
I       11.10087351       9.05813350      13.14425714      -0.06593149       0.04814071       0.10624516       1.42495367      -2.56374260      -0.87369673
I       18.32057621       7.96234209      13.17130895      -0.04691831       0.04721104       0.27478035       0.31588160      -2.06175039      -0.42037914
I        3.57616416      17.91904263      15.45319155      -0.09054736      -0.10580184       0.13158801       0.88824057      -0.48230554      -0.11045876
I       12.85418527      13.00164105      13.42915650       0.22807716       0.21679565      -0.24839691       1.05884275      -1.00692921       1.72236549
I        9.15445073      12.56043814      15.75011814      -0.18134286      -0.13907395      -0.12247521      -1.01909628       0.17292160       0.34421428
I        5.61655073      10.35384082      13.26361294       0.04713682       0.22972080      -0.06779605       0.86017347      -0.74919930      -0.97515290
I       16.21862376      15.13138489      16.00206096       0.10506010      -0.05720244      -0.08457292       0.91886592      -0.33610674       0.79034508
I        7.09830295      16.00693244      13.22713411       0.00364815       0.03870235       0.05381229      -1.07098329       0.33424391      -0.88532625
I       15.02603449       9.63751796      15.84732167      -0.16219883       0.05031775      -0.02099487       1.07725487      -1.00736755       1.84769321
Cs      26.28009421      19.72100535       1.15700359      -0.01178248      -0.04436063       0.24041062      -1.45098158       0.82421686       1.30965677
Cs      32.51888664       7.11072363      18.44660995      -0.00736090      -0.04843112      -0.00985084       2.40447659      -0.34104608      -0.20542792
Cs      23.72319290       3.56563822       0.96461099       0.07998876      -0.03249383       0.19436038      -0.60088238      -0.18040843       3.66823790
Cs      35.24414683       1.70706972      18.45122237       0.06421547       0.12669035      -0.10360522       2.47609475       0.02975072      -0.75201019
Cs      25.96336086      19.48530146       6.42385942       0.15039159       0.13837905      -0.07530522      -0.74775231      -0.75938903       2.00668892
Cs      32.86098095       7.39623663       3.66810034      -0.08788324       0.03092816      -0.04702285      -0.66842771      -0.54916834       0.54851468
Cs      23.74591297       3.58250080       5.94316964      -0.00733215      -0.06327847      -0.05814505      -0.13481887       0.51843990       0.82969042
Cs      35.72005413       2.17832669       3.65490723       0.00405956      -0.05916639      -0.08089211      -1.13396316       1.10537139       1.37207022
Pb      21.09306730      20.09248535      18.48434971      -0.11353184      -0.00024827       0.25295517      -0.94338634      -0.07120384      -1.72388208
Pb       1.14330183       6.20052402       0.63873046       0.26014316      -0.26134623       0.07415729      -1.12768436      -1.23009170       0.39841406
Pb      28.30801075       4.35972086      18.22823915      -0.21708982      -0.33282665       0.48158752       0.54428308      -0.21023697       4.53988211
Pb      30.73761149       1.14171825       1.10755656      -0.08151269      -0.08093529       0.26142643       0.91906794      -2.25491545      -0.16264917
Pb      21.29560638      20.26070012       3.89947057       0.00273922      -0.03351766      -0.11971733       2.07328195       0.33022513       1.88268218
Pb       1.02101531       5.78039525       5.75816159       0.33775081      -0.14962807      -0.39378087       0.93850142       0.40996908       0.36820634
Pb      28.52360450       4.73526978       3.66041428      -0.08013090      -0.21481964      -0.27800532       1.64897515      -1.72700467       1.05855393
Pb      30.75136386       1.10548007       5.93683042      -0.19635310      -0.18039865      -0.18762242       3.12044240       2.16699333       0.15099757
I       20.61559033       0.72711365       1.07566986       0.06395156      -0.05424927      -0.20232983       0.94845971       0.47517510      -1.63789077
I       20.32185497       3.94449073      18.16701184      -0.09149714       0.10060590      -0.01879890       0.78388381       1.62527120       1.48572450
I       29.56254290       6.64595537       1.31770692       0.03400451      -0.05815545      -0.39618548       0.59083631       0.52337323       0.80266427
I       28.95369143      20.31124890      18.76069930       0.22004041       0.28466594      -0.44522999       3.12725482       0.49461967       0.81712975
I       -0.38710717      18.19916237      18.00735374       0.01561510      -0.00821082      -0.06294228       0.95338064      -0.33982479       1.22359710
I       22.69090477       7.69647460       1.15807477      -0.26360883       0.07719714      -0.07331318       1.34422835       2.18266343       2.11318329
I       31.22796056       3.00780081      18.55265476       0.33672596       0.08325565      -0.14981963      -0.93563426      -0.47626665       0.07267625
I       27.66389832       2.58097156       1.17930376       0.16539177       0.19006679      -0.19359581       1.76170692      -1.39935408       0.31943412
I       23.72520822      21.76327470      18.60476848       0.00155525      -0.12657275      -0.04794440       2.31534438      -0.47548550       0.59117023
I       35.25614529       5.32230735       1.28394684      -0.29635645      -0.00058088      -0.07039065       0.88403839      -0.49909270      -0.29695515
I       25.42502898       5.51838763      18.23926425      -0.04838290       0.12602987       0.04333923       0.13711841       0.35005549      -2.76518031
I       33.10296861      21.20409322       1.53689210       0.05850930       0.04939500       0.06910946      -2.11591326      -2.18445698      -2.19483837
I       20.59429738       0.62876436       5.78065622       0.00231111       0.03858406       0.10827348       1.36414056      -0.45897549      -1.36230856
I       20.55174578       4.29229662       3.39588703      -0.01835685       0.13032121       0.25239781       0.05156641      -1.01716177       1.93979021