320
Lattice="25.356093371687486 -0.1065490082268892 -0.19187677835240669 0.07755788227136919 25.376386568457004 0.27590338859444424 0.1691801122122475 -0.29781874292918886 25.404906270035514" Properties=species:S:1:pos:R:3:forces:R:3:momenta:R:3 energy=-968.5714774540137 stress="0.0 0.0 0.0 0.0 0.0 0.0 0.0 0.0 0.0" pbc="T T T"
Cs      13.24181182       8.89535578       5.11632079       0.11361789       0.15186668       0.13547865       1.98671915      -1.66382804      -1.34921879
Cs       7.79358334       2.49086927       5.39899593      -0.10008687       0.20717404       0.01275929       2.78018363      -0.37664102      -2.23550306
Cs       6.49419689       3.63728155      12.10325177      -0.04694749      -0.24255570      -0.10682619       1.24629514      -1.90151248       0.78795434
Cs      13.26462640       9.80375759      11.45964428       0.03439829      -0.04146670       0.13584695      -2.67063174       1.53980053       1.99253229
Cs      12.83057906       3.19609292      11.51240652       0.08925308       0.00005657      -0.04029640       3.72700763      -0.27196940      -1.75222262
Cs       6.88960636      10.39952022      12.00698545      -0.01862746      -0.19428593       0.01616655      -2.89361761       2.29648594       2.86286662
Cs       7.02152829       8.59578054       5.65490666      -0.05589713       0.03125393      -0.17533868       3.56546801       1.10897881       3.04066370
Cs      13.74872503       1.83381024       6.15178380      -0.16892124       0.14795720      -0.04143917       3.01646778      -0.80608920      -1.07586155
Pb       3.74476271      25.03005608       9.00731249       0.05518904       0.31247537       0.10511658       0.57170923      -1.85846843      -3.67437002
Pb      10.03702741       6.19205620       8.59131855      -0.29812920      -0.19397132       0.10198002       1.56061531      -0.42225889      -1.41592614
Pb       3.64249786       6.16044590       8.83115662       0.14487840      -0.27616520       0.02518206      -0.43483334       0.50111828      -4.96212514
Pb       9.93870501      25.04434091       8.79941814       0.24803286      -0.17622759       0.26012499      -0.27104598       0.30936379      -2.08951240
Pb       4.14563430      25.26626030       2.85020115      -0.33185079       0.19617058      -0.21688302      -4.52522237      -1.89449480       2.09773414
Pb      10.05800624       6.19821602       2.19713622       0.16515848       0.24477851      -0.33189570      -0.97871288      -3.89129140       1.24783284
Pb       3.69096230       6.37592128       2.61229017      -0.19751563      -0.28699709      -0.10535743      -3.79630429       5.62972694      -1.44580334
Pb      10.57583122      25.36301157       2.54247157       0.03609619       0.28142369      -0.03865546      -0.10484018      -0.22828868      -0.91063967
I        3.23141415       2.87735543       9.29805906      -0.09912080       0.41312934       0.01310509      -0.50499482      -1.13589663       2.45724322
I        9.68330358       9.32070480       9.28541071      -0.05543762      -0.32388469      -0.00050231       2.27174803      -0.38481358      -3.07534499
I       16.88970431       9.53828113       8.27134150       0.07700108      -0.34870815      -0.15318792       2.52202212       1.59467537       0.80730805
I       10.33199645       2.82774315       8.76170824       0.16157393       0.31620181      -0.25693290       2.16725964       1.41652006      -1.41320293
I       13.13750813       6.71620891       8.82557557       0.28841759      -0.10459649       0.09037522       1.39604663      -3.22491055       1.33902490
I        6.89354880      12.77294978       9.22229795       0.24591822       0.10358956       0.12922093      -1.05491163       1.96362591      -1.75530547
I        6.76702428       5.83170570       7.68590450       0.33999425      -0.07320237       0.13456353      -0.33759273       1.12120332      -0.32644517
I       13.46066925      24.78312933       8.99092185      -0.08490048      -0.00899295      -0.10447048       4.05792821      -0.43859825      -2.05310119
I       17.04106227       9.49000904       2.88716076      -0.04224017       0.08447669       0.07274449      -4.11174502      -4.19651372       2.84068419
I       11.23485063       3.24824408       2.81474703      -0.09411966      -0.22847745      -0.01188516       1.50645935      -2.06315924      -1.08107763
I        3.10306624       2.77838480      14.86409389      -0.02769669       0.39386822      -0.10899022      -0.46851612       1.14753940       2.74780291
I        9.92673424       9.38862311      14.51747250      -0.15097473      -0.10197858      -0.00941272       1.79083611      -0.84408969       0.77749681
I        7.01277295       5.28272797      15.67165860       0.01250614       0.10186986       0.01073756       0.05908133      -0.27513857       0.44449950
I       13.38404832      24.80656456      15.86178016       0.01432731      -0.12394538      -0.08178108      -1.29441626      -1.47705370      -1.91821334
I       13.16489911       7.21219933       1.16547656      -0.06129673      -0.09271030       0.26846740      -0.84025490      -0.53436988       1.27266113
I        7.09873094      13.52498835       1.77339255      -0.05570486      -0.10710600       0.16469934      -3.10069744      -2.00251909      -0.67245153
I        3.34411109      12.27677993      11.73702463      -0.11026006      -0.12231428       0.25821244      -0.61317945      -2.47159696       0.17663131
I        9.56773409       5.44267071      11.81419032       0.06412964       0.16953093      -0.32090997       0.85239749      -0.05656546      -0.62262776
I       17.24135738       0.52634224       5.70824635      -0.07017517      -0.24015757      -0.23544057       2.75565038      -2.02236246       0.22247046
I       10.39821993       6.52812532       5.27188630      -0.02340169      -0.02233343       0.34999465       1.27408330      -0.88574529      -1.52099707
I        2.92785153       6.25412769       5.69665175      -0.02918298      -0.24831569       0.11705802       2.84019644       1.04573532      -1.48612818
I        9.42309638      11.67471880       5.70228980      -0.07317342      -0.01756343      -0.05970818       0.32764734      -0.93334272      -0.34307891
I       16.62869663       6.45538847      11.82068516       0.06735177       0.29599726       0.19894211       0.93323712      -6.18796999      -1.89916888
I       10.54828733      -0.14658679      11.68803373       0.10915768       0.14256723       0.14769415       0.69438787       0.72141283       1.81470767
Cs      13.73239060       9.42605736      18.23185359       0.06118483      -0.08857014       0.05764774       0.81573503      -1.59953921      -2.06385034
Cs       7.19331949       2.11434368      18.17599319       0.14894637       0.18037159       0.01902943      -3.06693697      -1.03832483       3.32098767
Cs       6.55020957       3.30380587      25.25173399       0.04583578      -0.15701086      -0.33116532       0.78575146      -3.08206087      -1.47058097
Cs      12.87071926      10.10565264      24.50432133      -0.01730022      -0.10044968      -0.00996262       0.11497636      -1.48726099      -2.07331888
Cs      13.11999034       3.27503235      24.73701211       0.08686279       0.18826066      -0.07774164      -0.44777813       0.91764279      -1.79774578
Cs       6.36679343       9.39080707      25.17903275       0.21896475      -0.00923042      -0.17176281      -4.93934834       0.51453280       2.18192605
Cs       7.06839834       8.96916091      18.80682065       0.06684144      -0.02753171      -0.18521065       1.71736465       1.22064414      -5.11431058
Cs      13.78657211       3.00305625      18.48735796      -0.02233709      -0.15734847      -0.17766181      -1.81352193      -0.55554450       0.58506152
Pb       3.90802635      25.23330592      21.85219539       0.14548484      -0.39501602      -0.42257727       2.62362354      -2.46972741      -1.09637657
Pb       9.96273600       6.10679062      21.11538414       0.44977998      -0.12452220       0.23356752       1.28134760       1.10772399      -1.10143964
Pb       3.73948440       6.00210571      21.64746253       0.00885164       0.06547453       0.01180284       1.25073235       0.14120556      -1.17645640
Pb      10.43013794      25.24235289      21.51019255      -0.26572381       0.06282516       0.01071079       2.31466390      -1.72841794       1.77019572
Pb       3.57413238      25.20123916      15.22766726       0.41643626      -0.04859698       0.24683647      -2.13122659      -2.17562822       0.19305309
Pb      10.05304987       6.22672603      14.92449499       0.22993151      -0.27569312       0.07495281       6.37249661       2.50481036       3.98993472
Pb       3.82129956       6.13930105      15.15791036       0.33737679      -0.20917534      -0.06671021      -2.68928441       3.35815728       0.25669759
Pb      10.24771351      25.10456128      14.77559713      -0.27397976       0.34253587       0.48514503       3.44804122       0.53793105       2.02842878
I        3.28910648       2.66501800      22.16632266      -0.02031441       0.58841652      -0.06072198       2.35275497       0.43841900      -2.40400079
I        9.37516005       9.26082920      21.80435214      -0.04323911      -0.07662285       0.28158170       4.38282396       0.56645628      -0.84297211
I       17.12053931       9.28281395      21.43956510      -0.02614901       0.35384682      -0.21676659       1.13196834      -3.98085171      -0.03946709
I       10.97347584       3.04408424      20.91474915      -0.07546779      -0.01869853      -0.03099139       0.89708547       1.93047657      -1.68283580
I       13.37996054       6.86953563      22.12882565      -0.18530265      -0.01528093      -0.11722294       2.34383035       1.94954765      -2.48201584
I        7.09534647      12.68789336      22.10569077      -0.49699191       0.04037515      -0.05032578      -1.69270646       0.51103375       1.25374364
I        7.14927081       5.61565049      20.98875820      -0.26619502      -0.20141131      -0.19374218       2.81437618       2.93752406       1.90788000
I       13.27958071      24.29690397      21.19394913       0.53654290       0.17230283       0.06644333       2.63232882       0.20398817      -0.83765636
I       16.88928589       9.41507359      15.44235720       0.10119245       0.27923255      -0.01320644      -0.86134574      -1.10229373       1.63645382
I       11.05188362       2.80108761      15.32263331      -0.21518648       0.33192623      -0.03321129       0.75436677       1.16253111      -1.71895676
I        3.39868231       3.13970825       1.95283026      -0.17862943      -0.16270590       0.14266626      -2.60888610      -1.87496277       0.53709571
I        9.63828497       9.69733160       2.03033019       0.04554558      -0.18396977      -0.00790849       0.47900629       1.42365480      -0.42937257
I        6.77531380       5.53086689       2.82075663       0.37165483       0.07766257       0.05195733       1.29436691       1.56499080      -0.41963441
I       13.50470442      24.88126654       3.19086969      -0.03501884      -0.20342706       0.08611475      -0.88296958       3.16774275       3.08344880
I       13.29962036       6.76519222      14.11607810      -0.08069922      -0.00718040       0.14758568      -2.28205578       0.17505597       2.86849110
I        6.66905365      12.91035052      14.70260291       0.75630267      -0.00586834       0.02603776      -3.47086893       0.23338344      -0.84618800
I        3.36977030      11.62532709      24.66679029       0.05280921       0.25937090      -0.00677547       5.73459361       2.83216798      -1.26307593
I        9.67061973       5.54165234      24.32933259       0.02894061       0.02113142       0.21451632      -1.15715047      -1.72435765      -1.51565291
I       16.99081822       0.26768906      18.33437635      -0.01586343       0.11256184       0.08298117       2.01066120       3.54046370      -1.95221500
I       10.62938495       7.07154865      18.02581529       0.01604946      -0.11594720       0.13632706       0.21228235      -0.97507880       0.72677136
I        3.34644653       5.80922804      18.37202483       0.08939679      -0.07058723       0.16677860      -1.72568254       1.00676764       0.56364367
I        9.58209894      12.10139563      18.46553416       0.05422365      -0.09527107      -0.16834439      -2.57788614      -2.22620257       0.10526466
I       17.05393564       6.44419064      24.83557785       0.11561229       0.08810612      -0.33297296      -1.00552218       1.30669559       0.49350190
I       11.38887217       0.06798443      24.64448913      -0.32053862      -0.13535463      -0.09942640       0.36955474      -4.13392183      -0.50204792
Cs      13.85572904      21.86967730       5.87070794      -0.09403503       0.12374345       0.06756381      -3.65635895      -1.52552247      -2.70497763
Cs       7.58711869      15.35308694       5.51043750       0.08535495       0.23134458      -0.11398583       1.62875921       0.21566432       1.41140346
Cs       6.49912599      15.92635149      12.29567820      -0.09316688      -0.13146302      -0.18379257       0.65094616       2.40303544      -0.20757884
Cs      13.28388322      22.28229202      12.19364707      -0.06795935       0.06156537      -0.27363603       0.19403612      -0.96539908       0.86876036
Cs      13.39558787      15.90464663      12.32850361      -0.07365697      -0.04276654      -0.32974969      -3.94680224       0.62142684      -1.31676923
Cs       6.14166421      22.71839423      11.67351409       0.25922579       0.03113622       0.08056265       0.26737117      -3.41785362      -1.04100727
Cs       7.19390633      21.72391950       5.76718103       0.35032815      -0.12382668       0.02321841       0.30256399       1.76636485      -1.19288181
Cs      13.95559615      15.96567385       6.20640812       0.18252938      -0.10970554      -0.10144965      -0.78156731       1.80067803      -1.26602524
Pb       3.78764057      12.16389556       8.48884371      -0.03810158       0.60035964       0.10236819      -1.48407096       2.18555234      -1.81097507
Pb       9.96676737      18.69582335       8.89927121       0.41374479      -0.21867666       0.12424339      -0.35427297       5.77441915      -0.46946787
Pb       3.94913899      18.83690368       8.78168793       0.19819157      -0.24160157       0.29188063       0.36586478      -0.28703606      -2.65671891
Pb      10.10022236      12.26116773       8.68400787       0.09679599       0.62358691       0.10143984      -1.18862336      -0.05265796      -3.02252932
Pb       3.85157777      13.01339594       2.31681646       0.31713993      -0.08536333      -0.21095445      -1.52575969       1.43891627       0.14999173
Pb      10.77691467      19.19832447       2.61219760       0.01226287      -0.40870302       0.29374830      -2.15253525       0.88349000      -3.07368203
Pb       4.23928275      18.95054903       2.56619794      -0.27149503       0.17650056      -0.63958712       2.14153995       5.20284865      -0.10115526
Pb      10.24477952      12.76777280       2.83181122      -0.01098535       0.09831488      -0.37177196       3.24365099      -2.91617150      -1.22478185
I        3.63289293      15.81697000       9.17480204      -0.12016518      -0.17711379       0.00181100       0.47480763       1.18281295       1.20628115
I        9.52220608      21.86685319       9.13582564      -0.11643378      -0.06382483       0.18319121       4.02213958      -1.07144947       0.87885078
I       17.14023921      22.05016966       8.51760620       0.11522803       0.30402364      -0.14513386       0.30255707       1.89742007      -0.65266100
I       10.15783240      15.50301561       7.52934944       0.08702880       0.04319519       0.34356370      -2.29615124      -2.48282031      -1.91064604
I       13.31311553      19.19442004       9.30155810       0.17671964       0.01364300       0.03034193      -0.20754912      -1.73180301      -0.31535972
I        6.72952705       0.47619468       9.24092321       0.24910950       0.00269911       0.01870346       1.34853299      -0.06777025      -1.35111391
I        7.28056950      17.85283217       8.43907216      -0.69196854       0.21683125       0.01114974       0.99483894      -0.40535068       0.94733396
I       13.43745413      12.27257351       8.06769238      -0.19246498      -0.14398276      -0.13665411       2.07011846       0.33650359      -1.69021677
I       17.67781491      22.37141751       3.07893962      -0.13831245      -0.23344221       0.01632574      -2.70809226      -1.87847957      -1.62117372
I       11.09206562      16.03067984       3.52660771      -0.10041850      -0.24605991      -0.16553925       2.48248928       0.31292795       1.53979828
I        2.99253124      15.55265045      14.71071389       0.22785378      -0.04648830       0.10576328       0.81427343      -1.37433595       3.74281501
I        9.27097039      21.94405789      14.30195194       0.11818543      -0.27649313       0.10638477       4.38364691       0.82127828       1.04362330
I        7.11725023      18.30199876      15.93749284       0.06928127      -0.18975998      -0.02887733       1.33683615      -0.48843282      -3.22638238
I       13.44277742      11.79764867      15.47689098      -0.22875772       0.37599690      -0.09778293       0.89568047      -1.88515120      -0.25358438
I       13.99191521      20.19033316       2.20888042      -0.55857719      -0.16866536       0.03314687       1.82093770      -1.91796793      -0.97827175
I        7.19486960       1.23547979       2.34405677      -0.20100006      -0.47767822       0.03786548       0.14570780      -4.20852994      -0.30771265
I        2.97672500      24.80948197      11.98041951      -0.12106817      -0.15130982       0.25204350       1.24263181      -1.05325477      -2.22468105
I        9.96393889      17.47319707      12.07804858       0.04125877       0.19939497      -0.04801828      -1.91314132       0.24995039      -1.61613268
I       17.55466844      13.52058389       5.37444586      -0.08960909      -0.01039144      -0.05639287       1.32923897      -0.03534916      -0.39016266
I       10.53080250      19.36277808       5.69067021       0.10484871       0.19013947       0.15872178       3.80933130       0.56087420       0.54084345
I        4.08174753      18.23755789       5.51228981      -0.14093337       0.09677517       0.29189234       2.51288403       0.30425946      -0.12144835
I       10.00423899      24.90666613       5.88481871      -0.05026750      -0.15328882      -0.46079759       2.45066978       1.36880538      -2.81981067
I       17.37959163      19.65953555      11.82162158      -0.09606004      -0.10897169       0.33231227      -1.32830009       0.40420054       0.49865846
I       10.76453631      12.77614749      12.02984958      -0.10457346       0.14109970      -0.15387476       1.98029981      -0.24543281      -0.35942205
Cs      13.28734619      21.72088923      18.41791788       0.15578468      -0.00285663       0.03098621      -3.73761417      -1.36751510      -2.77181206
Cs       7.56705271      15.21573317      18.93257416      -0.19563396       0.20289696       0.01430781       0.80703954      -0.00850301      -1.00362881
Cs       7.48277036      15.88347539      24.48712183      -0.12709949       0.22807820      -0.10401443       5.63953822      -2.30817524      -1.41753192
Cs      13.28436952      22.04494289      24.36043853      -0.03869303      -0.05759941      -0.02156481       0.03875406       2.78576237      -2.54061101
Cs      13.26307224      15.15296010      25.04110918       0.30689660       0.24798162      -0.03246440       2.72302009       0.60774960       0.87428354
Cs       7.85079775      21.96205925      25.14625282      -0.48956543       0.28736827      -0.21545391      -0.40974071       0.77808811       0.12675993
Cs       7.78704279      21.85759755      17.99688697      -0.11687689      -0.03582643       0.17234893       0.87342111      -2.77783708      -3.29461198
Cs      13.37080009      16.19450161      18.65676060       0.12260460      -0.18512113      -0.06709790       1.54508249      -0.54053695      -2.13535636
Pb       3.73032663      12.57654316      21.40540936       0.07449474      -0.11086347       0.19015820       2.51927343      -1.36870347       0.04864062
Pb      10.11253410      18.71979525      21.79191950       0.30779673      -0.07103839      -0.36178056       0.98359415      -0.14256827      -2.57074367
Pb       3.69590722      19.10600230      21.81360564       0.29555616       0.03816321       0.03830637       0.40511875       1.38662705       0.62282032
Pb      10.10272319      12.10102169      21.67853485      -0.11344091       0.54999826      -0.12499080       0.41533371      -1.44295543       1.42629678
Pb       3.76487710      12.22537306      14.90313832      -0.26806042       0.46398457       0.32623016      -1.26973312      -0.12630985      -2.48802322
Pb      10.33536104      18.86631711      15.21202837      -0.17625739       0.12421854      -0.19216076      -1.87150572       3.89063938       0.20918248
Pb       4.17787498      18.80825959      15.38130754      -0.33302904      -0.16790285      -0.00013891      -3.27569168       2.77862256       1.75926113
Pb      10.26919256      12.62302213      15.17653259      -0.01054377      -0.39493886       0.01438422      -2.75721735      -3.25327787       1.03478338
I        3.74589120      15.74716790      21.99581415      -0.11785356      -0.30975846       0.14876952       0.55443696       2.69708202      -1.02314744
I       10.10273325      22.09233286      21.88173314      -0.04936292      -0.10319384       0.08715716       0.15602167      -0.96904815      -1.47935346
I       17.40619152      22.02548283      21.25812781       0.00637914       0.04441381      -0.13958028       0.58676912       2.17240744       2.16808656
I       10.35550351      15.58636986      21.19792930      -0.03178185       0.02774218       0.09645518      -4.35261752      -3.57455681      -4.05441759
I       13.73592923      19.18073672      21.67719424      -0.39022881      -0.01924837       0.02674749       1.46047862       0.24298075      -1.88695575
I        6.93465073       0.43147716      21.88159133       0.29826462      -0.02723081       0.06715909       0.90535007      -0.61888490      -0.84827233
I        7.08693963      18.89090373      21.39222683       0.29018451      -0.24680090      -0.07878036      -3.74695236       1.80823669       0.15053414
I       13.20524553      12.28776017      20.98991098       0.40153683      -0.14245088       0.06569742       1.70683460      -1.64474131       1.04008384
I       16.93613338      22.19178711      15.70710651       0.19567187       0.09197674       0.05596106       3.33851084      -3.45106439       0.19635740
I       10.54323702      15.56755326      15.89313656       0.11236783       0.29555845      -0.05508545      -1.05257113      -1.47126122      -1.35359587
I        3.42603240      15.91503096       1.23784642       0.17559482       0.20600802       0.32150997       3.08875928       0.18573316      -0.05747099
I        9.92595623      22.11197203       2.34731626       0.04287286       0.54111339      -0.02592640       1.39215733       3.12114543      -0.32802530
I        7.30273053      18.69896355       2.39898747       0.49542186      -0.21433212       0.18215349      -0.28344691      -0.57903276       2.25338218
I       13.52768953      12.67165256       3.27485878      -0.41728713      -0.14456267      -0.08333843       0.52547192       0.28577668      -0.65047236
I       13.39971137      19.98688500      14.78888613       0.01686650      -0.32624162       0.08232617       0.40470099      -1.21868662       2.08042634
I        6.76614399       0.41191378      14.33460973       0.27802638      -0.10990858       0.11752492      -0.14658771      -2.61467736       0.37973006
I        3.89708799      24.41112669      24.78930080       0.21529140      -0.06617782       0.59241129       1.42144576      -2.34766423      -2.21681749
I       10.95806591      18.10494434      24.84110501      -0.30991563       0.06924467      -0.06405486       0.66645513      -1.49354358      -0.98227735
I       16.40627976      12.98828918      18.04246356       0.19390088       0.15683218       0.43912004       0.30391135      -0.41810292      -1.39992562
I       10.67373207      18.93603256      18.40817357      -0.01179205       0.04273805      -0.07810351       1.15123276      -2.13575914       0.72525419
I        3.56991857      17.93930853      18.51576206       0.03595541       0.20745660      -0.19383789      -0.83193752      -1.73362915       0.09177157
I       10.26481543      24.73315916      18.33509159      -0.09360912       0.01164788       0.14106870       0.36263395      -2.77758939      -0.34943818
I       17.38193550      19.34975857      24.81241355      -0.14388815      -0.06938448      -0.47239298       2.45549728       1.76821222       4.75008395
I       10.53438158      13.29476728      24.87883113      -0.06796579      -0.32425457       0.06799900       0.70278217      -1.60571729      -1.69758806
Cs       1.24511383       9.38926288       4.71112678      -0.12604218       0.12858089       0.17704488       3.23266277      -1.13579012      -0.12567957
Cs      20.27004865       2.84021184       5.25559156      -0.10724758       0.12449842       0.25492992       4.07319360       0.64700565      -3.81055215
Cs      18.82651731       3.76790757      11.91809901       0.16230665      -0.30238396      -0.09501785       3.34360949       1.75067457      -3.07045333
Cs       0.48414433       9.68837687      12.50474297      -0.07317453       0.02561332      -0.15419899      -0.96226866       0.07000710       0.83624376
Cs       0.22733812       3.61368279      12.20988700       0.06421358      -0.00163672      -0.10341769      -0.38511990       2.47730399      -2.85517328
Cs      19.50127861       9.42433430      11.29175761      -0.18512211       0.11934371       0.18532863      -3.55498329       0.91529209       2.18335852
Cs      20.26205680       9.48457852       5.63563845      -0.26804544      -0.04383140      -0.00619975       0.90290907       0.91774682       3.01221390
Cs       0.92984938       2.37210798       5.84656597      -0.12130680       0.15393363      -0.13014163      -1.00573302       0.02393166       0.18311495
Pb      16.87245661      25.24995077       9.17934141      -0.03678162      -0.23860989      -0.17225947       2.10264753      -3.35081623       1.65835144
Pb      23.12756329       6.30064109       8.45242422      -0.25781000      -0.38690608       0.42824866       4.94551168       0.21254248       0.06023166
Pb      16.44144844       6.24203308       8.56349918       0.20066670       0.10062522      -0.62033896       2.63381970       5.76152298       4.41432442
Pb      23.06120516      25.07126715       8.99598413      -0.31466106       0.06546681      -0.14507082      -0.73847670      -6.15579205      -3.37893227
Pb      16.79370288      25.15017368       2.60383876      -0.19487496       0.69765782       0.29687105       7.76795077      -0.24818673      -0.03201490
Pb      22.53435523       6.25889923       2.34494424       0.45194087       0.03981562       0.03522824       2.89899852       1.76143411      -4.67915291
Pb      16.41816549       6.42232559       2.23187262      -0.54524930      -0.26398758       0.43177845      -2.41977145      -1.50323498       3.00405608
Pb      22.99846534      25.22824341       2.65473293       0.01031518      -0.08515657      -0.17556182       0.75580357       0.55959446       0.06928475
I       16.56963516       3.00686858       8.83783172      -0.35084879       0.21082999       0.33416355       1.31230297       3.27097627       0.57757986
I       22.43448596       9.45226291       8.94670180       0.00211565      -0.19921687       0.13403815       1.40363105      -2.24901686       0.41373924
I        4.39978112       9.38996570       8.35291173      -0.03141553      -0.13626419      -0.07726444      -0.93483531      -4.38619478       2.01485764
I       23.46119662       2.95474467       8.39585195       0.03675568       0.17735568      -0.08610423       1.10321320       1.24376566       0.89102113
I        0.79228020       7.01272397       9.47952806      -0.14985412       0.03987152       0.09814143       1.56811667      -2.28233969      -3.00506084
I       19.83544304      13.25607194       9.26726730      -0.02055561      -0.07016004      -0.06931672      -0.23324333      -2.90886686       0.30753496
I       19.98408741       6.07341866       8.09995672      -0.63636368       0.01704107      -0.04111294       2.40252194       0.31075981       1.13803683
I        0.61966755      24.60688464       8.26641046       0.20086994      -0.14862344       0.02083452      -0.04693403       3.62453170      -0.58343927
I        4.16156520       9.67421769       2.42558490       0.15296024      -0.08497257       0.21134261      -1.03654281      -0.43057872       0.36869566
I       23.19867619       3.13385093       2.89475417       0.12033857      -0.04923040       0.06540251      -0.16564565      -1.16350313       2.51772854
I       15.40546349       3.17121628      14.40297240       0.29785498      -0.13465479       0.23063118       2.84289476       2.09306287      -2.58767928
I       22.60638420       9.23907841      14.32280532      -0.18315190      -0.11757809      -0.11255118      -0.35120368       2.25242939       1.95099751
I       19.58846735       5.88912020      15.39076911       0.13703782      -0.13905721       0.03519488       4.24926035       2.75416860      -0.65853925
I        0.60469109      24.83884208      15.88215232      -0.10486812      -0.20363343       0.14563257      -1.42752055       1.38237679       1.48088276