320
Lattice="31.705123562890115 0.00098397742904671 0.8597404125717283 0.019921660697184568 29.971723771014627 -2.6265873698904523 -0.4087198441794399 1.5773423540450537 17.106165182112967" Properties=species:S:1:pos:R:3:forces:R:3:momenta:R:3 pbc="T T T"
Cs       0.98044855       3.12945819       4.80156856      -0.02759337      -0.07594763      -0.01050613       0.20196767      -0.38495207       4.05199853
Cs       5.14951157       6.00961786       9.33180875      -0.02448784       0.05076743      -0.08497917       0.74850506      -0.17051464      -0.63968422
Cs       1.19961259      10.25708199       0.09661514       0.01759727      -0.01205392       0.01078494      -2.58894614       0.36745058      -0.88804513
Cs       5.00909119      13.37753697       3.65662421       0.03021640      -0.08146046       0.08899077      -0.43368294      -1.68643712      -1.40956040
Cs       9.00582522       3.21510948       4.92145557       0.07727212      -0.06886310       0.05263549      -0.74687936      -1.50809397      -1.65562254
Cs      13.02206006       6.13436250       9.50235334       0.03116196      -0.02176975      -0.06323726      -0.41135634      -0.24220022      -0.75700894
Cs       9.02589154      10.47678180       0.24540621       0.00479517       0.02562139      -0.07912470      -1.03088114       1.13264743      -0.39937540
Cs      12.56928168      12.99978502       4.76308403       0.12627025       0.12492207      -0.10995440       0.04897153      -0.77771124      -0.65660379
Pb       2.47422663      15.72422515       8.30601782      -0.23798109      -0.09040089       0.00685031      -0.40535309       6.26365173       2.15555163
Pb       6.37988450      16.14059206       7.79870829       0.35579555      -0.34993487       0.17151246      -0.48798724      -0.12761892       0.23212382
Pb       3.66501036       8.13560763       4.66962020       0.18395900      -0.16897908      -0.09759760       1.41814800       2.03485210      -2.84199815
Pb      -0.08357858       8.03473925       4.30965451      -0.66501184       0.19974570       0.01792808      -0.11210078       1.26954930      -0.64315849
Pb      10.47007904      16.23588981       8.26405588       0.07331131      -0.08102829      -0.18319393       3.13635942       1.22996496       0.95414175
Pb      14.30646045      15.89400105       8.61507393      -0.09696365      -0.02023189      -0.03692102      -2.19895084       0.04847272      -0.62360372
Pb      11.76830782       8.19931168       5.01268345      -0.01853138      -0.01337727      -0.26606972       0.78011264      -2.46997230       0.01578285
Pb       7.65586619       8.42092738       4.58368444       0.09349617      -0.58761831       0.15413774      -0.98121121      -3.39983058       0.39810700
I        4.91513966       1.69583060       2.84878329      -0.34266344       0.11085058       0.13218643      -0.66219670       1.27254094      -0.71842143
I        1.91139042       6.54275386       2.34283504      -0.02278319      -0.12367076       0.08217186       0.85760154      -1.30047578       4.37104662
I        4.02796197       1.67399182       7.01132260       0.03782630       0.19637728      -0.32604648       0.38936361       0.51243081      -2.13401897
I        1.48822548       7.26609227       6.89472819       0.21869331      -0.15613941       0.08510191      -1.08104459       0.86808524      -0.98121325
I        5.81362355       5.56174773       5.19198831      -0.00511339       0.41483039      -0.07056117       2.02496542      -1.03723534       0.63012068
I        0.50229042       3.24781743       9.08334276       0.10487832       0.31513648      -0.01192733       1.57159439      -1.65811430       2.23084497
I        5.48932661       9.95733882       6.42403748       0.17667261       0.08229198       0.05513823       0.59087099       0.36278435       0.51288494
I        0.23534196      14.13568694       6.44221164       0.36149528      -0.12703840      -0.20160833       0.46832499      -1.28615502      -1.60892028
I        5.67335231       9.01830392       2.15408565      -0.00491657      -0.00244559       0.03377743      -1.58182341      -1.73950275       2.84431358
I        0.59776003      14.02730974       2.08567361      -0.04810558       0.08904992       0.05424394       2.89145585       0.46382423       0.36397297
I        4.63525591      13.29604545       8.50948805      -0.04902711       0.04758715      -0.04780617      -1.32963006       0.76175716       1.92562149
I        1.66714479      10.59499771       4.23235247       0.24208671       0.18985361      -0.10142510       1.70116908       1.45285406       1.08245728
I       12.64031980       2.13869339       3.05839311      -0.25736197       0.02329618       0.06553255       1.61051609       0.64136056       2.12545911
I        9.93788620       6.47391135       2.95326649      -0.16987340       0.15032788       0.07737852       0.17910193       0.72398254       1.67831772
I       12.65337368       1.87808790       7.15015879      -0.04592916      -0.02621247       0.30347430      -0.54095558      -1.04864462       0.69255453
I        9.53089635       7.36502008       7.19684793       0.00376523       0.18951687      -0.09107035       0.48519446      -0.66708235      -1.20070724
I       13.67410317       5.55216828       5.38263362      -0.08553282       0.18250496       0.00138862       0.59038658      -2.05768242      -0.99689497
I        8.24459964       3.72893747       9.16442900       0.09267940       0.09223275      -0.13252495      -1.24585744      -1.63673013       2.43547999
I       13.85364475      10.08262820       6.67493382       0.02313911      -0.24712818      -0.11741109      -0.05692973       1.98399738       0.43265449
I        8.73711595      14.70574369       5.93476293      -0.04311254      -0.06100085      -0.04303498      -1.97321860      -0.41816078       0.71549244
I       13.66986544       8.95379649       2.28557615      -0.02233038      -0.09784287       0.32265186      -1.30177119       1.79418820       0.39104154
I        8.46349027      14.34426538       1.69469933      -0.03190706      -0.05628298       0.20029734       0.24018224      -0.57413653      -1.08455170
I       12.08556366      13.47846173       8.89866297      -0.07382881       0.09652209       0.05721047      -0.11356132       0.78704771       0.30892022
I        9.70716606      10.75213902       4.10700260       0.01794313      -0.11200774       0.10160663       1.33367990       1.16245967       1.74359018
Cs       0.77608863       3.91812937      13.35465115      -0.02759337      -0.07594763      -0.01050613       0.20196767      -0.38495207       4.05199853
Cs       5.35387149       5.22094668       0.77872616      -0.02448784       0.05076743      -0.08497917       0.74850506      -0.17051464      -0.63968422
Cs       0.99525267      11.04575317       8.64969773       0.01759727      -0.01205392       0.01078494      -2.58894614       0.36745058      -0.88804513
Cs       4.80473127      14.16620815      12.20970680       0.03021640      -0.08146046       0.08899077      -0.43368294      -1.68643712      -1.40956040
Cs       8.80146530       4.00378066      13.47453816       0.07727212      -0.06886310       0.05263549      -0.74687936      -1.50809397      -1.65562254
Cs      13.22641998       5.34569132       0.94927075       0.03116196      -0.02176975      -0.06323726      -0.41135634      -0.24220022      -0.75700894
Cs       8.82153162      11.26545298       8.79848880       0.00479517       0.02562139      -0.07912470      -1.03088114       1.13264743      -0.39937540
Cs      12.36492176      13.78845620      13.31616662       0.12627025       0.12492207      -0.10995440       0.04897153      -0.77771124      -0.65660379
Pb       2.67858655      14.93555397      -0.24706477      -0.23798109      -0.09040089       0.00685031      -0.40535309       6.26365173       2.15555163
Pb       6.58424442      15.35192088      -0.75437430       0.35579555      -0.34993487       0.17151246      -0.48798724      -0.12761892       0.23212382
Pb       3.46065044       8.92427881      13.22270279       0.18395900      -0.16897908      -0.09759760       1.41814800       2.03485210      -2.84199815
Pb      -0.28793850       8.82341043      12.86273710      -0.66501184       0.19974570       0.01792808      -0.11210078       1.26954930      -0.64315849
Pb      10.67443896      15.44721863      -0.28902671       0.07331131      -0.08102829      -0.18319393       3.13635942       1.22996496       0.95414175
Pb      14.51082037      15.10532987       0.06199134      -0.09696365      -0.02023189      -0.03692102      -2.19895084       0.04847272      -0.62360372
Pb      11.56394790       8.98798286      13.56576604      -0.01853138      -0.01337727      -0.26606972       0.78011264      -2.46997230       0.01578285
Pb       7.45150627       9.20959856      13.13676703       0.09349617      -0.58761831       0.15413774      -0.98121121      -3.39983058       0.39810700
I        4.71077974       2.48450178      11.40186588      -0.34266344       0.11085058       0.13218643      -0.66219670       1.27254094      -0.71842143
I        1.70703050       7.33142504      10.89591763      -0.02278319      -0.12367076       0.08217186       0.85760154      -1.30047578       4.37104662
I        3.82360205       2.46266300      15.56440519       0.03782630       0.19637728      -0.32604648       0.38936361       0.51243081      -2.13401897
I        1.28386556       8.05476345      15.44781078       0.21869331      -0.15613941       0.08510191      -1.08104459       0.86808524      -0.98121325
I        5.60926363       6.35041891      13.74507090      -0.00511339       0.41483039      -0.07056117       2.02496542      -1.03723534       0.63012068
I        0.70665034       2.45914625       0.53026017       0.10487832       0.31513648      -0.01192733       1.57159439      -1.65811430       2.23084497
I        5.28496669      10.74601000      14.97712007       0.17667261       0.08229198       0.05513823       0.59087099       0.36278435       0.51288494
I        0.03098204      14.92435812      14.99529423       0.36149528      -0.12703840      -0.20160833       0.46832499      -1.28615502      -1.60892028
I        5.46899239       9.80697510      10.70716824      -0.00491657      -0.00244559       0.03377743      -1.58182341      -1.73950275       2.84431358
I        0.39340011      14.81598092      10.63875620      -0.04810558       0.08904992       0.05424394       2.89145585       0.46382423       0.36397297
I        4.83961583      12.50737427      -0.04359454      -0.04902711       0.04758715      -0.04780617      -1.32963006       0.76175716       1.92562149
I        1.46278487      11.38366889      12.78543506       0.24208671       0.18985361      -0.10142510       1.70116908       1.45285406       1.08245728
I       12.43595988       2.92736457      11.61147570      -0.25736197       0.02329618       0.06553255       1.61051609       0.64136056       2.12545911
I        9.73352628       7.26258253      11.50634908      -0.16987340       0.15032788       0.07737852       0.17910193       0.72398254       1.67831772
I       12.44901376       2.66675908      15.70324138      -0.04592916      -0.02621247       0.30347430      -0.54095558      -1.04864462       0.69255453
I        9.32653643       8.15369126      15.74993052       0.00376523       0.18951687      -0.09107035       0.48519446      -0.66708235      -1.20070724
I       13.46974325       6.34083946      13.93571621      -0.08553282       0.18250496       0.00138862       0.59038658      -2.05768242      -0.99689497
I        8.44895956       2.94026629       0.61134641       0.09267940       0.09223275      -0.13252495      -1.24585744      -1.63673013       2.43547999
I       13.64928483      10.87129938      15.22801641       0.02313911      -0.24712818      -0.11741109      -0.05692973       1.98399738       0.43265449
I        8.53275603      15.49441487      14.48784552      -0.04311254      -0.06100085      -0.04303498      -1.97321860      -0.41816078       0.71549244
I       13.46550552       9.74246767      10.83865874      -0.02233038      -0.09784287       0.32265186      -1.30177119       1.79418820       0.39104154
I        8.25913035      15.13293656      10.24778192      -0.03190706      -0.05628298       0.20029734       0.24018224      -0.57413653      -1.08455170
I       12.28992358      12.68979055       0.34558038      -0.07382881       0.09652209       0.05721047      -0.11356132       0.78704771       0.30892022
I        9.50280614      11.54081020      12.66008519       0.01794313      -0.11200774       0.10160663       1.33367990       1.16245967       1.74359018
Cs       0.99040938      18.11532008       3.48827488      -0.02759337      -0.07594763      -0.01050613       0.20196767      -0.38495207       4.05199853
Cs       5.15947240      20.99547975       8.01851507      -0.02448784       0.05076743      -0.08497917       0.74850506      -0.17051464      -0.63968422
Cs       1.20957342      25.24294388      -1.21667854       0.01759727      -0.01205392       0.01078494      -2.58894614       0.36745058      -0.88804513
Cs       5.01905202      28.36339886       2.34333053       0.03021640      -0.08146046       0.08899077      -0.43368294      -1.68643712      -1.40956040
Cs       9.01578605      18.20097137       3.60816189       0.07727212      -0.06886310       0.05263549      -0.74687936      -1.50809397      -1.65562254
Cs      13.03202089      21.12022439       8.18905966       0.03116196      -0.02176975      -0.06323726      -0.41135634      -0.24220022      -0.75700894
Cs       9.03585237      25.46264369      -1.06788747       0.00479517       0.02562139      -0.07912470      -1.03088114       1.13264743      -0.39937540
Cs      12.57924251      27.98564691       3.44979035       0.12627025       0.12492207      -0.10995440       0.04897153      -0.77771124      -0.65660379
Pb       2.48418746      30.71008704       6.99272414      -0.23798109      -0.09040089       0.00685031      -0.40535309       6.26365173       2.15555163
Pb       6.36992367       1.15473017       9.11200197       0.35579555      -0.34993487       0.17151246      -0.48798724      -0.12761892       0.23212382
Pb       3.67497119      23.12146952       3.35632652       0.18395900      -0.16897908      -0.09759760       1.41814800       2.03485210      -2.84199815
Pb      -0.07361775      23.02060114       2.99636083      -0.66501184       0.19974570       0.01792808      -0.11210078       1.26954930      -0.64315849
Pb      10.46011821       1.25002792       9.57734956       0.07331131      -0.08102829      -0.18319393       3.13635942       1.22996496       0.95414175
Pb      14.29649962       0.90813916       9.92836761      -0.09696365      -0.02023189      -0.03692102      -2.19895084       0.04847272      -0.62360372
Pb      11.77826865      23.18517357       3.69938977      -0.01853138      -0.01337727      -0.26606972       0.78011264      -2.46997230       0.01578285
Pb       7.66582702      23.40678927       3.27039076       0.09349617      -0.58761831       0.15413774      -0.98121121      -3.39983058       0.39810700
I        4.92510049      16.68169249       1.53548961      -0.34266344       0.11085058       0.13218643      -0.66219670       1.27254094      -0.71842143
I        1.92135125      21.52861575       1.02954136      -0.02278319      -0.12367076       0.08217186       0.85760154      -1.30047578       4.37104662
I        4.03792280      16.65985371       5.69802892       0.03782630       0.19637728      -0.32604648       0.38936361       0.51243081      -2.13401897
I        1.49818631      22.25195416       5.58143451       0.21869331      -0.15613941       0.08510191      -1.08104459       0.86808524      -0.98121325
I        5.82358438      20.54760962       3.87869463      -0.00511339       0.41483039      -0.07056117       2.02496542      -1.03723534       0.63012068
I        0.51225125      18.23367932       7.77004908       0.10487832       0.31513648      -0.01192733       1.57159439      -1.65811430       2.23084497
I        5.49928744      24.94320071       5.11074380       0.17667261       0.08229198       0.05513823       0.59087099       0.36278435       0.51288494
I        0.24530279      29.12154883       5.12891796       0.36149528      -0.12703840      -0.20160833       0.46832499      -1.28615502      -1.60892028
I        5.68331314      24.00416581       0.84079197      -0.00491657      -0.00244559       0.03377743      -1.58182341      -1.73950275       2.84431358
I        0.60772086      29.01317163       0.77237993      -0.04810558       0.08904992       0.05424394       2.89145585       0.46382423       0.36397297
I        4.64521674      28.28190734       7.19619437      -0.04902711       0.04758715      -0.04780617      -1.32963006       0.76175716       1.92562149
I        1.67710562      25.58085960       2.91905879       0.24208671       0.18985361      -0.10142510       1.70116908       1.45285406       1.08245728
I       12.65028063      17.12455528       1.74509943      -0.25736197       0.02329618       0.06553255       1.61051609       0.64136056       2.12545911
I        9.94784703      21.45977324       1.63997281      -0.16987340       0.15032788       0.07737852       0.17910193       0.72398254       1.67831772
I       12.66333451      16.86394979       5.83686511      -0.04592916      -0.02621247       0.30347430      -0.54095558      -1.04864462       0.69255453
I        9.54085718      22.35088197       5.88355425       0.00376523       0.18951687      -0.09107035       0.48519446      -0.66708235      -1.20070724
I       13.68406400      20.53803017       4.06933994      -0.08553282       0.18250496       0.00138862       0.59038658      -2.05768242      -0.99689497
I        8.25456047      18.71479936       7.85113532       0.09267940       0.09223275      -0.13252495      -1.24585744      -1.63673013       2.43547999
I       13.86360558      25.06849009       5.36164014       0.02313911      -0.24712818      -0.11741109      -0.05692973       1.98399738       0.43265449
I        8.74707678      29.69160558       4.62146925      -0.04311254      -0.06100085      -0.04303498      -1.97321860      -0.41816078       0.71549244
I       13.67982627      23.93965838       0.97228247      -0.02233038      -0.09784287       0.32265186      -1.30177119       1.79418820       0.39104154
I        8.47345110      29.33012727       0.38140565      -0.03190706      -0.05628298       0.20029734       0.24018224      -0.57413653      -1.08455170
I       12.09552449      28.46432362       7.58536929      -0.07382881       0.09652209       0.05721047      -0.11356132       0.78704771       0.30892022
I        9.71712689      25.73800091       2.79370892       0.01794313      -0.11200774       0.10160663       1.33367990       1.16245967       1.74359018
Cs       0.78604946      18.90399125      12.04135747      -0.02759337      -0.07594763      -0.01050613       0.20196767      -0.38495207       4.05199853
Cs       5.36383232      20.20680857      -0.53456753      -0.02448784       0.05076743      -0.08497917       0.74850506      -0.17051464      -0.63968422
Cs       1.00521350      26.03161505       7.33640405       0.01759727      -0.01205392       0.01078494      -2.58894614       0.36745058      -0.88804513
Cs       4.81469210      29.15207003      10.89641312       0.03021640      -0.08146046       0.08899077      -0.43368294      -1.68643712      -1.40956040
Cs       8.81142613      18.98964254      12.16124448       0.07727212      -0.06886310       0.05263549      -0.74687936      -1.50809397      -1.65562254
Cs      13.23638081      20.33155321      -0.36402294       0.03116196      -0.02176975      -0.06323726      -0.41135634      -0.24220022      -0.75700894
Cs       8.83149245      26.25131486       7.48519512       0.00479517       0.02562139      -0.07912470      -1.03088114       1.13264743      -0.39937540
Cs      12.37488259      28.77431808      12.00287294       0.12627025       0.12492207      -0.10995440       0.04897153      -0.77771124      -0.65660379
Pb       2.68854738      29.92141586      -1.56035846      -0.23798109      -0.09040089       0.00685031      -0.40535309       6.26365173       2.15555163
Pb       6.57428359       0.36605900       0.55891938       0.35579555      -0.34993487       0.17151246      -0.48798724      -0.12761892       0.23212382
Pb       3.47061127      23.91014069      11.90940911       0.18395900      -0.16897908      -0.09759760       1.41814800       2.03485210      -2.84199815
Pb      -0.27797767      23.80927231      11.54944342      -0.66501184       0.19974570       0.01792808      -0.11210078       1.26954930      -0.64315849
Pb      10.66447813       0.46135675       1.02426697       0.07331131      -0.08102829      -0.18319393       3.13635942       1.22996496       0.95414175
Pb      14.50085954       0.11946799       1.37528502      -0.09696365      -0.02023189      -0.03692102      -2.19895084       0.04847272      -0.62360372
Pb      11.57390873      23.97384474      12.25247236      -0.01853138      -0.01337727      -0.26606972       0.78011264      -2.46997230       0.01578285
Pb       7.46146710      24.19546044      11.82347335       0.09349617      -0.58761831       0.15413774      -0.98121121      -3.39983058       0.39810700
I        4.72074057      17.47036366      10.08857220      -0.34266344       0.11085058       0.13218643      -0.66219670       1.27254094      -0.71842143
I        1.71699133      22.31728692       9.58262395      -0.02278319      -0.12367076       0.08217186       0.85760154      -1.30047578       4.37104662
I        3.83356288      17.44852488      14.25111151       0.03782630       0.19637728      -0.32604648       0.38936361       0.51243081      -2.13401897
I        1.29382639      23.04062533      14.13451710       0.21869331      -0.15613941       0.08510191      -1.08104459       0.86808524      -0.98121325
I        5.61922446      21.33628079      12.43177722      -0.00511339       0.41483039      -0.07056117       2.02496542      -1.03723534       0.63012068
I        0.71661117      17.44500814      -0.78303352       0.10487832       0.31513648      -0.01192733       1.57159439      -1.65811430       2.23084497
I        5.29492752      25.73187188      13.66382639       0.17667261       0.08229198       0.05513823       0.59087099       0.36278435       0.51288494
I        0.04094287      29.91022000      13.68200055       0.36149528      -0.12703840      -0.20160833       0.46832499      -1.28615502      -1.60892028
I        5.47895322      24.79283698       9.39387456      -0.00491657      -0.00244559       0.03377743      -1.58182341      -1.73950275       2.84431358
I        0.40336094      29.80184280       9.32546252      -0.04810558       0.08904992       0.05424394       2.89145585       0.46382423       0.36397297
I        4.84957666      27.49323616      -1.35688823      -0.04902711       0.04758715      -0.04780617      -1.32963006       0.76175716       1.92562149
I        1.47274570      26.36953077      11.47214138       0.24208671       0.18985361      -0.10142510       1.70116908       1.45285406       1.08245728
I       12.44592071      17.91322645      10.29818202      -0.25736197       0.02329618       0.06553255       1.61051609       0.64136056       2.12545911
I        9.74348711      22.24844441      10.19305540      -0.16987340       0.15032788       0.07737852       0.17910193       0.72398254       1.67831772
I       12.45897459      17.65262096      14.38994770      -0.04592916      -0.02621247       0.30347430      -0.54095558      -1.04864462       0.69255453
I        9.33649726      23.13955314      14.43663684       0.00376523       0.18951687      -0.09107035       0.48519446      -0.66708235      -1.20070724
I       13.47970408      21.32670134      12.62242253      -0.08553282       0.18250496       0.00138862       0.59038658      -2.05768242      -0.99689497
I        8.45892039      17.92612818      -0.70194728       0.09267940       0.09223275      -0.13252495      -1.24585744      -1.63673013       2.43547999
I       13.65924566      25.85716126      13.91472273       0.02313911      -0.24712818      -0.11741109      -0.05692973       1.98399738       0.43265449
I        8.54271686      30.48027675      13.17455184      -0.04311254      -0.06100085      -0.04303498      -1.97321860      -0.41816078       0.71549244
I       13.47546635      24.72832955       9.52536506      -0.02233038      -0.09784287       0.32265186      -1.30177119       1.79418820       0.39104154
I        8.26909118      30.11879844       8.93448824      -0.03190706      -0.05628298       0.20029734       0.24018224      -0.57413653      -1.08455170
I       12.29988441      27.67565244      -0.96771331      -0.07382881       0.09652209       0.05721047      -0.11356132       0.78704771       0.30892022
I        9.51276697      26.52667208      11.34679151       0.01794313      -0.11200774       0.10160663       1.33367990       1.16245967       1.74359018
Cs      16.83301033       3.12995018       5.23143877      -0.02759337      -0.07594763      -0.01050613       0.20196767      -0.38495207       4.05199853
Cs      21.00207335       6.01010985       9.76167896      -0.02448784       0.05076743      -0.08497917       0.74850506      -0.17051464      -0.63968422
Cs      17.05217437      10.25757398       0.52648535       0.01759727      -0.01205392       0.01078494      -2.58894614       0.36745058      -0.88804513
Cs      20.86165297      13.37802896       4.08649442       0.03021640      -0.08146046       0.08899077      -0.43368294      -1.68643712      -1.40956040
Cs      24.85838700       3.21560147       5.35132578       0.07727212      -0.06886310       0.05263549      -0.74687936      -1.50809397      -1.65562254
Cs      28.87462184       6.13485449       9.93222355       0.03116196      -0.02176975      -0.06323726      -0.41135634      -0.24220022      -0.75700894
Cs      24.87845332      10.47727379       0.67527642       0.00479517       0.02562139      -0.07912470      -1.03088114       1.13264743      -0.39937540
Cs      28.42184346      13.00027701       5.19295424       0.12627025       0.12492207      -0.10995440       0.04897153      -0.77771124      -0.65660379
Pb      18.32678841      15.72471714       8.73588803      -0.23798109      -0.09040089       0.00685031      -0.40535309       6.26365173       2.15555163
Pb      22.23244628      16.14108405       8.22857850       0.35579555      -0.34993487       0.17151246      -0.48798724      -0.12761892       0.23212382
Pb      19.51757214       8.13609962       5.09949041       0.18395900      -0.16897908      -0.09759760       1.41814800       2.03485210      -2.84199815
Pb      15.76898320       8.03523124       4.73952472      -0.66501184       0.19974570       0.01792808      -0.11210078       1.26954930      -0.64315849
Pb      26.32264082      16.23638180       8.69392609       0.07331131      -0.08102829      -0.18319393       3.13635942       1.22996496       0.95414175
Pb      30.15902223      15.89449304       9.04494414      -0.09696365      -0.02023189      -0.03692102      -2.19895084       0.04847272      -0.62360372
Pb      27.62086960       8.19980367       5.44255366      -0.01853138      -0.01337727      -0.26606972       0.78011264      -2.46997230       0.01578285
Pb      23.50842797       8.42141937       5.01355465       0.09349617      -0.58761831       0.15413774      -0.98121121      -3.39983058       0.39810700
I       20.76770144       1.69632259       3.27865350      -0.34266344       0.11085058       0.13218643      -0.66219670       1.27254094      -0.71842143
I       17.76395220       6.54324585       2.77270525      -0.02278319      -0.12367076       0.08217186       0.85760154      -1.30047578       4.37104662
I       19.88052375       1.67448381       7.44119281       0.03782630       0.19637728      -0.32604648       0.38936361       0.51243081      -2.13401897
I       17.34078726       7.26658426       7.32459840       0.21869331      -0.15613941       0.08510191      -1.08104459       0.86808524      -0.98121325
I       21.66618533       5.56223972       5.62185852      -0.00511339       0.41483039      -0.07056117       2.02496542      -1.03723534       0.63012068
I       16.35485220       3.24830942       9.51321297       0.10487832       0.31513648      -0.01192733       1.57159439      -1.65811430       2.23084497
I       21.34188839       9.95783081       6.85390769       0.17667261       0.08229198       0.05513823       0.59087099       0.36278435       0.51288494
I       16.08790374      14.13617893       6.87208185       0.36149528      -0.12703840      -0.20160833       0.46832499      -1.28615502      -1.60892028
I       21.52591409       9.01879591       2.58395586      -0.00491657      -0.00244559       0.03377743      -1.58182341      -1.73950275       2.84431358
I       16.45032181      14.02780173       2.51554382      -0.04810558       0.08904992       0.05424394       2.89145585       0.46382423       0.36397297
I       20.48781769      13.29653744       8.93935826      -0.04902711       0.04758715      -0.04780617      -1.32963006       0.76175716       1.92562149
I       17.51970657      10.59548970       4.66222268       0.24208671       0.18985361      -0.10142510       1.70116908       1.45285406       1.08245728
I       28.49288158       2.13918538       3.48826332      -0.25736197       0.02329618       0.06553255       1.61051609       0.64136056       2.12545911
I       25.79044798       6.47440334       3.38313670      -0.16987340       0.15032788       0.07737852       0.17910193       0.72398254       1.67831772