320
Lattice="36.61494431704515 0.8521064442996575 0.6472952383376436 -0.4899562435077865 21.43320960287554 0.4582089290160639 -0.349194964961731 -0.4123068262220005 19.635594233834194" Properties=species:S:1:pos:R:3:forces:R:3:momenta:R:3 energy=-986.1431222963323 stress="0.0 0.0 0.0 0.0 0.0 0.0 0.0 0.0 0.0" pbc="T T T"
Cs       7.67087252      19.59248141       1.02351587       0.05181187      -0.05509578       0.04642381       0.19433164       1.57102108      -0.38150781
Cs      14.40544674       6.73110445      18.15758474      -0.07415246       0.19600750      -0.00070847      -2.01783472      -0.39806655      -1.42026418
Cs       5.27779493       3.42709301       0.73236254      -0.00692538       0.00634328      -0.00344263       0.08674391       0.07073206       1.01775860
Cs      16.97724412       1.61695239      18.21946633       0.09675884      -0.00889578       0.02173776       0.24085845       0.10025180       0.60353274
Cs       7.91023833      19.23562583       6.09321813      -0.11710466       0.25399930      -0.12288537       1.80159450       1.18115129       0.19029110
Cs      14.37001993       7.12488304       3.50118425       0.17628319       0.00107230       0.01511895       0.02420448      -1.19598346       1.68442712
Cs       5.41255212       3.29137073       5.68906655      -0.05911613      -0.04947278      -0.07428418       0.03896375      -1.86171587      -2.28494609
Cs      17.34219925       1.88182266       3.55919431       0.01316496       0.01009854      -0.07805531      -1.52185809       3.77316699      -2.96919965
Pb       2.52719575      19.94652160      18.39710327      -0.33046106       0.00669095      -0.07952503       0.62210258       1.33827566      -3.16293661
Pb      19.55925999       6.50563553       1.11242663      -0.13576179      -0.06795056       0.29418504       0.04322685       2.02740201       1.36461131
Pb       9.82635278       3.98954219      17.96820524       0.19242132       0.30116436      -0.06401535      -2.40319015       1.04265356       2.91794394
Pb      12.52342317       0.94587218       0.73750584      -0.04165279      -0.10296775       0.03778099      -3.47792520      -1.43236671       1.31118090
Pb       2.77655062      20.27100102       3.62988840       0.16293713       0.18640203      -0.04998487       0.73051664       0.37220712      -1.78101303
Pb      19.26376290       6.30850849       5.97731792      -0.22874508      -0.03052511       0.04490951       0.69847088      -1.30428731       1.06033514
Pb      10.24328918       4.67931479       3.06211354      -0.15962949      -0.20489144       0.36918844      -1.06401184       2.06197158      -1.21308583
Pb      12.41721858       1.13053777       5.53345751       0.03155421      -0.06546995       0.53570115      -1.28937182      -0.40077000       0.79966927
I        1.94946795       0.67474619       0.85434252       0.10892886      -0.05626058      -0.20244464       1.17566747      -1.52691380       0.15155110
I        1.92249051       3.66919672      17.89828497      -0.15276263       0.29772321      -0.09450746       1.27627187       1.97696768       1.47042036
I       11.34482721       6.41045364       0.77323199       0.10005418       0.14736325      -0.02734484       0.34516102      -2.44382401       0.69938003
I       10.69941781      20.04600963      18.36457801      -0.05403337       0.10464885      -0.08746981      -4.36042349       1.40704574      -0.60661671
I       17.81276494      19.00090063      18.61103408       0.02010185      -0.09634112       0.12644300       2.09093131       0.91998623       1.58294119
I        4.12259301       7.46675700       0.92760659      -0.01973746      -0.05211869      -0.17481731      -0.85490981      -1.29204138       1.27198389
I       13.13984399       2.61582353      18.15108162      -0.14840249       0.25282348       0.04915200      -1.66224712       1.40878072      -1.57542832
I        9.43503825       2.54752152       0.72853208      -0.13648677      -0.23927714       0.03384848      -0.61343668       0.11825308       1.64924136
I        5.08546084      21.49926573      18.17103047       0.35837597       0.08078742       0.08268912      -0.44446939      -0.94629623       0.17900221
I       16.94557364       5.00507438       1.07402876      -0.42887727      -0.11372767      -0.00782678       0.26492399       0.10738349       0.35217182
I        7.01250112       5.35372112      17.97359057       0.16926968      -0.00142999      -0.01141016       1.12707356      -0.46654951       0.93544737
I       14.82742936      21.13060675       1.23020349       0.02814570      -0.11571369       0.08252448      -0.26235677      -0.90915656      -0.09740719
I        1.98027574       0.52190683       5.69706589       0.04992015       0.07431340      -0.10640150       0.78570190       0.71856784       0.76075629
I        2.42844115       4.15243341       3.25628111      -0.14698002      -0.08803666      -0.11627011      -0.26883003      -1.62103040       0.30877691
I       11.31586475       6.34630604       5.73590462       0.01684287      -0.02901716      -0.13089969       1.54710909       1.01008312      -0.21255601
I       10.98893378      20.49349682       3.74034128      -0.04850205       0.02355985      -0.06313964      -1.03414197       0.59553067       2.26347116
I       18.23854903      19.21734263       3.76460092      -0.16378261       0.04191264       0.07851456       0.37190057       1.33318289      -2.55525392
I        4.06448559       7.55506603       5.87516825       0.07847349      -0.27252734      -0.08062045       1.79511604       0.43761003      -0.97480400
I       13.27016381       3.01518017       3.13717413       0.12147319       0.15954223       0.01820943       0.45843732       0.81798288      -0.59871458
I        9.27253506       2.44820823       5.53683826       0.15724299       0.01536719      -0.04897637       0.45259560       0.82808366       0.43262197
I        5.59108241      21.89175813       3.34698314      -0.19719142      -0.24152342       0.19091348       1.33102130       1.41546923       0.28308016
I       16.50134558       4.77483236       6.14508625       0.01161447       0.11640757      -0.17386987      -1.47571351      -1.39721205       0.31688682
I        7.36513599       5.87823324       3.30378495       0.06953315       0.00141254      -0.06297236      -1.24313004      -0.51388263       0.62228012
I       14.69106470      21.03891541       6.29615364      -0.04703251      -0.07541182      -0.10418518       1.48298197       0.02189320       0.45819899
Cs       7.83329723      19.49010317      10.85829911      -0.07898621       0.02938310      -0.00018613      -0.11906057       0.16426907       1.97277949
Cs      14.24154220       7.56854100       8.18165596       0.09038366      -0.18498034       0.07452839       0.91399541       2.14674175       0.96273594
Cs       5.12941581       3.04638429      10.46021689       0.14806748       0.08794679      -0.03516220      -1.70468949       1.28713921      -1.43261415
Cs      17.23530762       1.63800858       8.29430595       0.00479099       0.07197222       0.09870043       1.04760507      -0.76105731       0.60721759
Cs       7.72378007      19.30319695      15.69699135      -0.07223614      -0.00689023       0.03664877      -1.06383388       0.35808758      -0.87381699
Cs      14.32319316       7.08777810      13.14038571       0.04069788      -0.09240886       0.07753914      -0.18445457      -0.29000396      -0.37833155
Cs       5.13658608       3.07735988      15.26204581      -0.02823951       0.04775240      -0.03070145       0.54017970       1.63618767      -0.41349227
Cs      16.94480608       1.84855411      13.39587563       0.03942358      -0.06778930      -0.28871760       2.51966143      -3.26952922       1.32011032
Pb       2.64475777      20.02464551       8.45540290       0.53325422       0.51759051       0.13836581       1.13011285       1.62218145      -0.64678020
Pb      19.12052320       6.21519831      10.87529936      -0.03633615       0.13776678      -0.07757175      -0.29335186       0.18138284      -2.28993216
Pb      10.06452502       4.36429277       7.98243949       0.39352675      -0.06209377       0.12496005      -1.09635437      -1.68516826       0.96875532
Pb      12.37531005       1.00105603      10.62179105       0.25439217      -0.08838567      -0.14605119      -1.64694824       0.59001100       0.14512211
Pb       2.63564857      20.09281681      13.30968524       0.05744278       0.16509818       0.10725312      -2.57121215       1.02993227       0.24181949
Pb      19.20726643       6.12952017      15.93582995       0.02017752       0.11076908      -0.20044659      -0.50488818       0.33647399       2.57529934
Pb      10.27760471       4.31533691      12.96443687      -0.35542398       0.14940900      -0.08712348       1.29218630       1.92911014       0.64632193
Pb      12.19167028       0.79343886      15.66976402       0.39324077      -0.24735805      -0.17908042       2.43247467       0.28914513       1.65829527
I        2.24214679       0.72616639      10.49955073      -0.13224938      -0.24092154      -0.06962639       0.48137256      -0.57875763      -0.49776943
I        2.24492112       4.01413717       8.17234135      -0.10023399       0.08011128      -0.12048451       1.10547706      -1.00963816      -0.41256210
I       11.22392588       6.23977906      10.68340966      -0.08452725      -0.07116682      -0.01171449      -0.25419341       1.36851486       0.70186959
I       10.85341114      20.73360416       8.75105907      -0.04009852      -0.10111825      -0.39019861      -0.65249885       0.02159671      -2.13768346
I       18.00292871      18.87722814       8.78944426       0.03809123       0.37844171       0.03299294      -0.49625326      -0.70510396       4.02853721
I        4.08063234       7.39362107      10.62191029       0.07584927      -0.16433150       0.15611973      -0.97274790      -0.22565789       1.14890620
I       13.32627442       3.13564383       8.32173180      -0.16964921      -0.23549184      -0.24639119       1.78324926       0.85200078      -0.60493553
I        9.21590691       2.37703344      10.32116576       0.15595134      -0.09134713       0.38053305       0.19672753      -0.11507416       0.78408449
I        5.55053445      21.64230326       8.22807295      -0.27554306      -0.19600206       0.12533737      -1.00607820       1.23500938       0.02675165
I       16.30451708       4.93811885      10.43025336       0.01145436      -0.11740412       0.23445812      -1.53278957      -2.01628481       1.56067080
I        7.37678083       5.69649824       7.97951177      -0.25127108       0.18016698       0.09671551      -0.16579778      -1.81307546       1.40432434
I       14.62349239      20.59911844      11.01769460      -0.14252994       0.36857885       0.06974144      -2.47600446       1.56614949       0.31243087
I        1.82834044       0.30309406      15.31082601       0.05554189       0.04058383       0.35822049       1.74404918      -0.51436941       2.19422580
I        1.92016874       3.99976342      13.02094705       0.02471461       0.19313784       0.15991647       1.89121053      -0.75153734      -0.82067956
I       11.19921272       6.04279303      15.65982821      -0.09610628      -0.09468649      -0.11645083      -0.51674158       1.94209584      -1.16118690
I       10.83478393      20.47817045      13.53059695      -0.07984080      -0.08991679      -0.05046776       2.26858381      -2.19428404       0.40052741
I       17.99315357      18.95733181      13.67694470       0.07435355       0.03739629      -0.08342118       0.69537221      -0.82715473      -0.10015502
I        3.85250684       7.22511029      15.69658231       0.18427400      -0.16654170      -0.02908864      -1.15538031      -0.86588992      -0.51783710
I       13.34054173       2.87305965      13.21662539      -0.18423547       0.09741735       0.15144462      -0.09053064      -0.11838844      -1.51582143
I        9.23739777       2.16269415      15.58876117      -0.17518824      -0.07708693      -0.21583793       1.36078347      -0.10049261       0.49395734
I        5.44112372      21.57395379      13.22783100       0.03099648      -0.02898255       0.13994565      -2.35335425      -2.18786455       0.38868473
I       16.46994085       4.69168948      15.81116566      -0.10562452       0.03385541      -0.03148767       0.15826791      -3.70596147       2.22155146
I        7.34918675       5.75975423      12.72339179       0.23441597      -0.25098781       0.23141659      -0.76694307      -0.03160690       0.06450067
I       14.63642241      20.85900005      16.18066860      -0.23906943       0.01120849      -0.07045991      -1.15205653       0.83790001       0.63991360
Cs       8.29791739       8.78404639       0.95790516      -0.03362463       0.02073631      -0.06112019      -0.40963690       1.14750510      -0.92136359
Cs      14.01308772      17.49318191      18.21764738      -0.03481469       0.13456845       0.08928221       2.00651029       1.76820433      -0.70261642
Cs       5.11498938      14.13836583       0.73123956       0.09097510      -0.02458364       0.13741490       1.92418891      -1.00959383      -0.22057142
Cs      16.73621880      12.45093403      18.46250393       0.15405761      -0.01860347      -0.16583386      -1.07016912      -0.80884910       0.19213541
Cs       8.32918688       8.92111518       5.73126921      -0.11883483      -0.07378941       0.07541436      -1.02314611       0.69052515       0.13877114
Cs      14.32641168      17.90315985       3.63399182      -0.03277928       0.05550771       0.03680870       0.21042583       0.18421711       2.22457583
Cs       5.17014077      13.74635949       5.78724684      -0.01718232       0.11890541       0.04578704      -0.22541369      -1.66338516      -1.29389158
Cs      17.25770841      12.80997097       3.51425172       0.04833982       0.03763344       0.11039242      -1.39077192       0.27836190       1.14855195
Pb       2.86240375       9.15882710      18.13576284       0.19549096      -0.09076914       0.28733315      -1.10151183       0.21259767       1.34019189
Pb      19.26263811      17.33467227       1.35933244      -0.29475096      -0.18290215      -0.08374930      -1.19783462      -0.31739639       3.09028380
Pb      10.01197600      14.86544013      18.16929821      -0.03072006      -0.04258486      -0.02334918       0.47802059       2.07652378      -0.89755211
Pb      12.65472218      11.62693026       1.01130716      -0.22668058       0.17563277       0.14141209      -0.40131783       2.66589788       2.80493852
Pb       3.33688946       9.48819216       3.35511968      -0.50231082      -0.25787137       0.08366583       1.63596680       1.43721710       0.20166547
Pb      19.03772292      17.23111070       6.34118501       0.23869504      -0.36262191      -0.10721708       2.33551052       1.06994050      -1.02281089
Pb      10.08942918      15.06248010       3.33894025       0.04302598       0.13970330       0.08442920      -0.09500579       2.55605459      -1.72995097
Pb      12.34116958      11.76119909       5.85258916       0.13430401       0.06305146      -0.05128305       1.83034802       1.21611910      -0.72788027
I        2.10467432      11.33159639       0.98602514      -0.04329429       0.14075311      -0.09321281       1.25831409      -0.60520200       0.92225934
I        1.59667930      14.34759722      18.08305386       0.02216198       0.22716011      -0.10995826       0.16276423       0.50098213      -0.84957523
I       11.16982138      17.12335609       1.04359097       0.01371806       0.08459646       0.09254223       1.54137679       2.58411090      -0.01258820
I       11.20690742       9.66933850      18.12298651      -0.02920420      -0.23897419      -0.10815466       0.71888515      -0.75150171       0.95061682
I       18.12351364       8.11009523      18.39849562       0.01169408      -0.04627527      -0.07833911      -2.38232118       0.39998043      -1.88674788
I        3.89854916      18.27069869       1.30010572      -0.18042009       0.04633712      -0.31072210      -2.27612718      -0.19491942       0.20463336
I       13.15411721      13.43960879      18.43271891      -0.11704270      -0.02711493      -0.02760224       1.46627153       1.86293695       0.56372923
I        9.45367479      13.17290422       0.88961546      -0.06853135      -0.17247287       0.08513503      -0.15145817       0.67975430      -2.24389848
I        5.67922779      10.43767020      18.20188289       0.09738539       0.20362586      -0.03766218       0.18562701      -1.40281403       0.32328126
I       16.38695314      15.81361187       1.06075085       0.31621225       0.15928361       0.14418090       1.39885828       0.71437643      -0.96339977
I        7.12561860      16.04137727      18.05410264      -0.05408926       0.08989069       0.07828736      -1.30401731      -2.35221643       3.68453687
I       15.43218824      10.38829458       1.21023142      -0.05975933      -0.19997812      -0.10010773       0.23392688       2.15802238       0.76975603
I        1.99151450      11.21013463       5.73046511       0.01082047       0.03904823       0.20309160      -2.65828976      -2.53981466       0.52882206
I        2.00725007      14.89573379       3.60681788       0.01227740      -0.04385173      -0.20804778       1.51685795       1.37991246       1.78887821
I       10.89828462      17.07078204       6.08710031       0.08057770      -0.14797996      -0.08176680       0.16785806       0.65548037      -1.39578661
I       11.47286185       9.65504691       3.61783290      -0.03184137       0.21137223      -0.32552267      -0.39893754       0.81322798      -0.68390498
I       18.23652813       8.26350074       3.59332452       0.23485872       0.24840648      -0.06595615       0.70710895      -1.62215033       0.34591187
I        3.98867695      18.39029363       5.98682497      -0.23929866      -0.35445888       0.04026965       1.17244209      -1.84770115       0.98971563
I       13.24792190      13.84091288       3.39624666      -0.01189795       0.00570426       0.09398491      -0.71014600      -0.55070386       3.20906209
I        9.22710088      12.98487325       5.72190735      -0.08926465      -0.00609328       0.09311054      -0.67580475      -1.51168928       1.45100310
I        5.93664382      10.90093736       3.36758184       0.32085915       0.23159471      -0.09346379       1.55640987      -0.85465851      -1.17236936
I       16.43199083      15.55913648       6.12090524      -0.05344478       0.04973520       0.03807899       1.00029095       1.66861144       3.45202768
I        7.23107835      16.29084958       3.52055541      -0.05728679       0.02469872      -0.12055933      -0.80651369      -1.39836993      -0.57598540
I       15.18975191      10.50060554       5.84713833      -0.00271352      -0.10867690      -0.03244319      -0.17085174       0.40360532       2.21565897
Cs       7.90778860       8.84530879      10.55473757       0.16900029      -0.08441602       0.10741877      -0.46516640       0.83891137       0.20194415
Cs      13.91860291      17.67057945       8.60292626       0.01762139       0.11648525      -0.12350097      -0.85681817       3.20826842       4.20486324
Cs       5.18435514      13.73363685      10.65718614      -0.02522378       0.12667285       0.15229595       1.62017109       1.72738873       2.05881986
Cs      17.06947465      12.19902622       8.70541561       0.02769515       0.15362921      -0.17003479      -0.42780968      -1.58393732      -1.35688456
Cs       7.98393058       8.52111740      15.65028887       0.08933968      -0.06690980      -0.02630777       0.00892548      -1.12962428      -1.10811043
Cs      14.27113421      17.84831600      13.40162379      -0.13459444      -0.02020141       0.04860442       1.31476414      -0.95794194      -0.39598015
Cs       5.10016169      13.73771513      15.63479896      -0.00179097       0.10207718       0.07782607       0.82230969      -1.18122259       1.10104679
Cs      17.11279130      12.72981684      13.28961082      -0.06278817      -0.05852709       0.11019870       1.24303857      -0.79626646      -0.22877996
Pb       3.10113148       9.23612023       8.36288072      -0.35405637       0.21141532      -0.30425162      -0.60346969      -0.04682595      -0.99373706
Pb      19.05744682      17.07293755      11.17514038      -0.16611696      -0.36950039      -0.04870730      -0.03795393       0.76377726      -1.00018642
Pb       9.88596417      15.10854360       8.34653982      -0.05881894       0.06725259      -0.08345253       0.40024112       0.73622605       0.94006672
Pb      12.17996284      11.77197955      10.74908454       0.32346594      -0.35005010       0.14886207      -1.54689518      -2.93377254       0.92520941
Pb       3.19356668       9.19663268      13.32138639      -0.26529000       0.13726119      -0.23178100       2.02256591       1.93758599      -1.14691895
Pb      18.90598950      16.98318848      16.26652584      -0.13873996       0.04439514       0.01272150       0.46795155      -1.50959245      -1.35006082
Pb       9.97867222      14.69520612      13.22152097      -0.01611397       0.47488803       0.08835497       2.00789975       0.13623031       1.57898080
Pb      12.38519393      11.52977470      15.69367710       0.07428194      -0.06201098      -0.00211764      -1.80495613      -0.97628383       0.90221000
I        1.90013955      11.08288456      10.81684022       0.06948407       0.02412269       0.06692046      -1.03748381      -0.20591407       1.62263957
I        1.97908066      14.89985170       8.40038207       0.16566473      -0.27368490       0.01877659       0.71538482       0.46934141       1.62078281
I       10.90937136      16.90459615      10.71759445       0.00900820      -0.12193629       0.21111356       0.93121280      -1.24117551      -0.69786047
I       11.40216624       9.78814258       8.18531582      -0.21061057       0.02574038       0.15388667      -0.07912098      -0.50161732       0.56507011
I       18.21081430       8.22805226       8.46390961       0.07826955       0.27769089      -0.00255540      -0.56406231      -0.70827285       1.40995626
I        3.75538482      18.30490310      11.07322101       0.02153424      -0.34140971      -0.29310460      -1.56137243      -0.75871623      -0.69629046
I       13.13942758      13.76571839       8.42233819      -0.13022987       0.10643033      -0.00851294       2.44600801      -1.61202776      -1.33387739
I        9.03096162      12.94081979      10.81197404      -0.06455078      -0.29937435      -0.18844400      -0.53331973       0.76993474       2.19770379
I        5.70741697      10.82728532       8.34257530       0.38034996       0.14468884      -0.08405113       0.48791779       0.75491903      -0.58472107
I       16.22812722      15.55362503      10.74274864       0.25088584       0.09713791       0.19301431       1.43753831       0.45427672       0.80311036
I        6.97639426      16.41495966       8.42005087       0.18934939      -0.20867729      -0.01335514       1.12270763      -1.97411769       0.18427685
I       14.91701515      10.09380477      11.13032253      -0.09746728       0.23996442      -0.16589332       1.78646141      -1.10529282       1.92142987
I        1.99501028      11.04018032      15.69996647      -0.14219787       0.12434727      -0.18869667      -1.37351075       3.17476014       0.43399950
I        2.34608873      14.85751856      12.96929987      -0.27922831      -0.08040163       0.32601253       0.27132538      -1.18868625       0.43719990
I       11.01136111      16.59639898      15.60621640       0.10933668       0.19086203       0.14090429      -1.34464820       0.54371493      -1.42335242
I       11.40807853       9.71150653      13.28103619      -0.26474455       0.01762320      -0.04139715      -0.36529046      -0.46851112      -0.69771498
I       18.29277014       8.20467415      13.43959599      -0.13055260      -0.09995472       0.08630660      -0.74672313       1.08637503       2.40553641
I        3.57212039      18.18369138      15.97418030      -0.02864598      -0.23041518      -0.11417629       1.74763536       0.27916460       0.34746527
I       13.16404397      13.61549407      13.26732141      -0.00915715       0.05359068      -0.06134217      -0.11305440       1.60363042      -1.72699414
I        9.19623201      12.83011271      15.71610555      -0.07195413      -0.17403756      -0.04428432       0.48142176      -0.04305092       0.59501744
I        5.81761310      10.84383534      13.51586221       0.11095391      -0.04323684      -0.21872186       1.27097226      -2.17475955       1.26399018
I       16.13572363      15.46613521      15.96606858       0.06847995      -0.01684202      -0.04804728      -1.30894723      -0.23060907      -0.65846900
I        7.28586891      16.29296928      13.30777258      -0.15685877      -0.12894756      -0.06070207       0.59723029       0.25292756       0.88818032
I       15.18658750      10.15786717      15.61831425      -0.12456243      -0.05061238       0.16151211      -1.91064501      -0.62245982      -0.01854162
Cs      26.03888120      19.89918974       1.41973799       0.07883616       0.08984924      -0.01542361      -0.32881097       0.44216156       2.98087104
Cs      32.42261703       7.45809698      18.61050012      -0.03113140      -0.13939913       0.07110289      -1.90307786       0.25336723       0.42553884
Cs      23.64827895       3.92687368       1.28951007       0.02224070      -0.17015134      -0.11544961       2.03369785      -1.11361257      -0.18706211
Cs      35.11184569       1.99602044      18.40858986       0.18665197       0.01126968       0.04189209       1.76670262       1.54521409       0.71312822
Cs      26.11289723      20.04913963       6.31100832       0.01743010      -0.20711699       0.14735659      -0.23283232      -0.55345128      -0.42817856
Cs      33.11226170       7.63973360       4.13565735      -0.27404424      -0.02884228      -0.23188220       0.49226972       2.27731891       0.51116181
Cs      23.77846100       3.64798891       6.06210225      -0.10324094      -0.04469850       0.13544483      -1.33832505      -0.58456692       2.25338719
Cs      35.66468374       2.14282396       3.55701593       0.03265236       0.09470851       0.16188282      -1.22717718      -0.65104119      -2.97172753
Pb      20.83262431      20.59174826      18.63055110      -0.09188180      -0.02729885      -0.00502220       0.14736237       2.20021680       1.42866330
Pb       1.05028123       5.86680281       0.76273196       0.06170173      -0.03989781       0.16658840      -0.28483180       1.94405996      -0.54126749
Pb      28.44341538       4.25848790      18.22717751       0.23235132      -0.03418235       0.15172518       0.27234349       3.89510997      -1.08366469
Pb      30.95149143       1.43130591       1.05716455       0.10586120      -0.18286866      -0.09379661      -1.28009101       0.67039498       1.36147243
Pb      21.24858045      20.60762585       3.90247594      -0.00264286       0.17946755       0.07894292       2.90148489      -0.87738883      -3.11840748
Pb       1.03420367       5.80551423       5.60295526       0.07841811       0.13954228       0.00087051      -1.75605475       0.81392980      -0.23973352
Pb      28.45469474       4.66730189       3.45375042       0.36600587      -0.11216528       0.15906375      -0.47462158      -0.76324683       0.06274589
Pb      30.77126354       1.26364575       5.94635331      -0.15615523       0.20613818       0.29360815       3.88029338       0.90876910       0.84378978
I       20.65383572       1.17635494       1.00807569      -0.16209337       0.14841427       0.19917514      -0.05612774      -1.24794756       2.26288000
I       20.23082435       4.21603659      18.41096150       0.11292601      -0.01800128      -0.23685796      -1.24290421      -0.39458851      -0.55779850
I       29.64828335       6.56102129       1.25149528       0.04441091       0.01876499      -0.06798585      -0.05163195      -0.04342792       1.71158577
I       28.96861294      20.46844627      18.64437037       0.19992311       0.31167993       0.17130680       2.16027558      -0.88406992       0.01132010
I       -0.49000778      18.15613338      18.06039229       0.05518628      -0.01179401       0.06712001      -1.68736293       1.49112200       0.80289000
I       22.48362995       7.92520119       1.17489576       0.15379092       0.10480249      -0.09043253      -1.56040679       2.15620545      -0.58286912
I       31.72486242       3.08408721      18.34655168      -0.37135973      -0.25079845       0.00942955       1.07638666       1.35770571      -0.89442392
I       27.71059523       2.60842206       0.85747639       0.14169551      -0.02512366       0.21536427      -1.01534304       0.71869213      -0.14495913
I       23.47573195      22.15082296      18.55514273       0.22753080      -0.03573623       0.05992358       0.78308137       0.41275484      -0.97378234
I       34.84663305       5.29390042       1.44987124       0.15410608       0.11976646      -0.05252210       1.81269399      -0.01896207       0.45102353
I       25.73377046       5.56902034      18.36656505      -0.37003086       0.14266844      -0.03402893      -3.69612953      -2.17372613      -0.04622365
I       33.27326612      21.28805862       1.78820058      -0.30243437       0.08749628      -0.18306046       1.07557436       0.13611726       1.12400044
I       20.51814961       1.04728994       5.84089005       0.02305069      -0.06146039       0.17255944      -0.97965532      -1.00070467       0.23094092
I       20.40444910       4.46312572       3.67837623       0.14475331       0.07366388      -0.22312180      -2.30037051      -2.34993306       0.41771018