320
Lattice="25.356093371687486 -0.1065490082268892 -0.19187677835240669 0.07755788227136919 25.376386568457004 0.27590338859444424 0.1691801122122475 -0.29781874292918886 25.404906270035514" Properties=species:S:1:pos:R:3:forces:R:3:momenta:R:3 pbc="T T T"
Cs      13.94994701       9.43110414       6.11182468      -0.04106907       0.03613588       0.03167127       0.16350813      -0.04835415       4.74876591
Cs       7.73870571       2.90905648       6.19572275      -0.06803372      -0.01211844      -0.02529117       0.26513074      -0.43385792      -0.24476867
Cs       6.20733226       3.70319721      12.55861456       0.15562292      -0.17879458       0.00228638      -1.70766455      -0.45999754      -1.31108724
Cs      12.99410474      10.03315156      12.41008802      -0.01402470      -0.12950060       0.12119803      -0.54236433      -1.53586419      -0.75834526
Cs      13.09583106       3.82040657      12.59765062       0.10647008      -0.02103622      -0.03889070      -0.58973118      -1.47107689      -2.59958146
Cs       6.68980021      10.23005335      12.73756980       0.09019101      -0.13248652      -0.02251162       0.24005777      -0.67641591      -0.65657453
Cs       7.30215878       8.90655295       6.50897058      -0.02943746       0.12513572      -0.11460237      -1.26809427       2.09783140      -0.48587365
Cs      13.51015021       2.57795333       6.43032821      -0.01430783       0.08728319      -0.05298442      -0.35439030      -1.12592735      -0.46802274
Pb       3.98620836      -0.09463740       9.33620363      -0.01152344       0.06701232       0.08323488       2.18209520       4.40018897       2.37479213
Pb      10.11509731       6.45001529       9.17404202       0.17374344      -0.04133575       0.35082871      -2.27514006       0.19438988      -0.30602449
Pb       3.79934225       6.26032305       9.53335842      -0.10020007       0.14188587      -0.00681612      -0.42540307       3.28354655      -1.92334973
Pb      10.22221818      -0.05867692       9.04050768      -0.21941994       0.06034020       0.10192669       0.99014359       2.68283035       0.02260542
Pb       3.66494399       0.37488031       3.12359112       0.15093862      -0.21585584      -0.14678673       2.17405102       0.81196642       0.33727069
Pb      10.29855478       6.50788400       2.87681186       0.09812146       0.33377697       0.01832403       1.25150565       1.39015788       0.03991083
Pb       4.09245574       6.61661567       3.33795237      -0.31259246       0.11763430      -0.22113708      -0.81444570      -0.59411305       0.71115775
Pb      10.06557858       0.34856959       2.65928169      -0.02460364      -0.45852389       0.10332449      -2.54371050      -2.65642301       0.06007540
I        3.52220712       3.17893190       9.75497620      -0.25013347      -0.08132654       0.15674154      -0.28340921      -0.91920345      -0.50825463
I        9.65852634       9.52740082       9.85593101      -0.12526677       0.20903150       0.08200103       0.16014108      -0.64956465       3.81266643
I       17.04910735       9.38871993       9.04513806       0.00190794       0.20503425      -0.08582114      -0.21882236       1.38674493       0.14355076
I       10.51624951       3.30503678       8.98013626       0.09721601      -0.27004268      -0.10779497      -1.63789226       1.11946636       0.38516839
I       13.29727063       6.93255647      10.07983835       0.03425999      -0.11455056      -0.11720276       1.74559767      -2.26245891       0.29984240
I        6.91858786      13.21765714       9.98669968       0.12641689       0.01307897       0.00571364       0.86858080      -1.69888250       1.98880096
I        6.94526191       5.63859218       8.93025888       0.02238677       0.09215651      -0.01172620       0.69233182       0.12706249      -0.01135325
I       13.25024306      24.89565996       9.24805002       0.26621825      -0.07452059      -0.12613512      -0.13570569      -0.00989963      -0.56281565
I       17.00454988       9.66335133       3.62762724       0.04075219       0.10600628       0.04783082      -0.25724010       0.14375819       1.23844705
I       10.67378859       3.20616641       3.55174848       0.07720536       0.11926630       0.06263676       3.44522506       1.15207635      -0.16136009
I        3.50364717       3.27822201      15.46219459      -0.09566889      -0.05866391      -0.10827285      -1.74995018      -0.32783003       1.79818121
I        9.52108160       9.40881637      15.31529138       0.18775599       0.18243789      -0.01851290       1.52240490       0.75793747       1.63538988
I        7.29514625       5.93319430      16.46995238      -0.30879879      -0.10444499       0.03180286       1.42892661      -0.08034932       2.63571534
I       13.50200005      25.05673799      16.44241499      -0.01512311      -0.07423673      -0.01931212       1.12249746      -0.97793716       0.85678072
I       13.41553678       7.07486333       2.37484881       0.13872755      -0.00738864       0.06127750       1.18337395      -0.60186897      -1.58801225
I        7.01001848      13.27687839       2.53066634      -0.04831551       0.18026890      -0.02084461       0.41854249      -1.27125628      -0.45918122
I        3.53552625      12.27745692      12.62250679      -0.05660867       0.09195856       0.19675219       1.43619173      -2.28123343      -0.77757848
I        9.65813939       5.81415283      12.74266827       0.01236120      -0.00047467      -0.36826962      -1.44481790      -0.94600766       0.62105385
I       17.01807341       0.77236001       6.13428459      -0.03524507      -0.09717292      -0.10624061      -1.23955010       2.41472653       0.95630987
I       10.75603724       7.24485695       6.32448153      -0.00174269      -0.16401645      -0.01386446      -1.85415611      -0.91051755       1.35873905
I        3.14752646       6.04321348       6.22706997      -0.00620169      -0.02398726       0.29975787      -1.88216799       1.80666380       1.05444496
I        9.80450422      12.17626246       6.03697562      -0.03670600       0.06588722       0.35796901       0.51720017      -0.57489912      -1.01411007
I       16.92954603       6.83841289      12.58896230       0.05950227       0.00751800      -0.11978392       0.65805548      -0.87007064      -0.90915279
I       10.76622878       0.49986451      12.39663529      -0.02477493       0.01862895      -0.26247622       0.74322825       0.55731234       0.71886689
Cs      14.03453707       9.28219477      18.81427782      -0.04106907       0.03613588       0.03167127       0.16350813      -0.04835415       4.74876591
Cs       7.82329577       2.76014711      18.89817589      -0.06803372      -0.01211844      -0.02529117       0.26513074      -0.43385792      -0.24476867
Cs       6.29192232       3.55428784      25.26106770       0.15562292      -0.17879458       0.00228638      -1.70766455      -0.45999754      -1.31108724
Cs      13.07869480       9.88424219      25.11254116      -0.01402470      -0.12950060       0.12119803      -0.54236433      -1.53586419      -0.75834526
Cs      13.18042112       3.67149720      25.30010376       0.10647008      -0.02103622      -0.03889070      -0.58973118      -1.47107689      -2.59958146
Cs       6.77439027      10.08114398      25.44002294       0.09019101      -0.13248652      -0.02251162       0.24005777      -0.67641591      -0.65657453
Cs       7.38674884       8.75764358      19.21142372      -0.02943746       0.12513572      -0.11460237      -1.26809427       2.09783140      -0.48587365
Cs      13.59474027       2.42904396      19.13278135      -0.01430783       0.08728319      -0.05298442      -0.35439030      -1.12592735      -0.46802274
Pb       4.07079842      -0.24354677      22.03865677      -0.01152344       0.06701232       0.08323488       2.18209520       4.40018897       2.37479213
Pb      10.19968737       6.30110592      21.87649516       0.17374344      -0.04133575       0.35082871      -2.27514006       0.19438988      -0.30602449
Pb       3.88393231       6.11141368      22.23581156      -0.10020007       0.14188587      -0.00681612      -0.42540307       3.28354655      -1.92334973
Pb      10.30680824      -0.20758629      21.74296082      -0.21941994       0.06034020       0.10192669       0.99014359       2.68283035       0.02260542
Pb       3.74953405       0.22597094      15.82604426       0.15093862      -0.21585584      -0.14678673       2.17405102       0.81196642       0.33727069
Pb      10.38314484       6.35897463      15.57926500       0.09812146       0.33377697       0.01832403       1.25150565       1.39015788       0.03991083
Pb       4.17704580       6.46770630      16.04040551      -0.31259246       0.11763430      -0.22113708      -0.81444570      -0.59411305       0.71115775
Pb      10.15016864       0.19966022      15.36173483      -0.02460364      -0.45852389       0.10332449      -2.54371050      -2.65642301       0.06007540
I        3.60679718       3.03002253      22.45742934      -0.25013347      -0.08132654       0.15674154      -0.28340921      -0.91920345      -0.50825463
I        9.74311640       9.37849145      22.55838415      -0.12526677       0.20903150       0.08200103       0.16014108      -0.64956465       3.81266643
I       17.13369741       9.23981056      21.74759120       0.00190794       0.20503425      -0.08582114      -0.21882236       1.38674493       0.14355076
I       10.60083957       3.15612741      21.68258940       0.09721601      -0.27004268      -0.10779497      -1.63789226       1.11946636       0.38516839
I       13.38186069       6.78364710      22.78229149       0.03425999      -0.11455056      -0.11720276       1.74559767      -2.26245891       0.29984240
I        7.00317792      13.06874777      22.68915282       0.12641689       0.01307897       0.00571364       0.86858080      -1.69888250       1.98880096
I        7.02985197       5.48968281      21.63271202       0.02238677       0.09215651      -0.01172620       0.69233182       0.12706249      -0.01135325
I       13.33483312      24.74675059      21.95050315       0.26621825      -0.07452059      -0.12613512      -0.13570569      -0.00989963      -0.56281565
I       17.08913994       9.51444196      16.33008038       0.04075219       0.10600628       0.04783082      -0.25724010       0.14375819       1.23844705
I       10.75837865       3.05725704      16.25420162       0.07720536       0.11926630       0.06263676       3.44522506       1.15207635      -0.16136009
I        3.41905711       3.42713138       2.75974145      -0.09566889      -0.05866391      -0.10827285      -1.74995018      -0.32783003       1.79818121
I        9.43649154       9.55772574       2.61283824       0.18775599       0.18243789      -0.01851290       1.52240490       0.75793747       1.63538988
I        7.21055619       6.08210367       3.76749924      -0.30879879      -0.10444499       0.03180286       1.42892661      -0.08034932       2.63571534
I       13.41741000      25.20564736       3.73996185      -0.01512311      -0.07423673      -0.01931212       1.12249746      -0.97793716       0.85678072
I       13.50012684       6.92595396      15.07730195       0.13872755      -0.00738864       0.06127750       1.18337395      -0.60186897      -1.58801225
I        7.09460854      13.12796902      15.23311948      -0.04831551       0.18026890      -0.02084461       0.41854249      -1.27125628      -0.45918122
I        3.62011631      12.12854755      25.32495993      -0.05660867       0.09195856       0.19675219       1.43619173      -2.28123343      -0.77757848
I        9.57354933       5.96306220       0.04021513       0.01236120      -0.00047467      -0.36826962      -1.44481790      -0.94600766       0.62105385
I       17.10266347       0.62345064      18.83673773      -0.03524507      -0.09717292      -0.10624061      -1.23955010       2.41472653       0.95630987
I       10.84062730       7.09594758      19.02693467      -0.00174269      -0.16401645      -0.01386446      -1.85415611      -0.91051755       1.35873905
I        3.23211652       5.89430411      18.92952311      -0.00620169      -0.02398726       0.29975787      -1.88216799       1.80666380       1.05444496
I        9.88909428      12.02735309      18.73942876      -0.03670600       0.06588722       0.35796901       0.51720017      -0.57489912      -1.01411007
I       17.01413609       6.68950352      25.29141544       0.05950227       0.00751800      -0.11978392       0.65805548      -0.87007064      -0.90915279
I       10.85081884       0.35095514      25.09908843      -0.02477493       0.01862895      -0.26247622       0.74322825       0.55731234       0.71886689
Cs      13.98872595      22.11929742       6.24977637      -0.04106907       0.03613588       0.03167127       0.16350813      -0.04835415       4.74876591
Cs       7.77748465      15.59724976       6.33367444      -0.06803372      -0.01211844      -0.02529117       0.26513074      -0.43385792      -0.24476867
Cs       6.24611120      16.39139049      12.69656625       0.15562292      -0.17879458       0.00228638      -1.70766455      -0.45999754      -1.31108724
Cs      13.03288368      22.72134484      12.54803971      -0.01402470      -0.12950060       0.12119803      -0.54236433      -1.53586419      -0.75834526
Cs      13.13461000      16.50859985      12.73560231       0.10647008      -0.02103622      -0.03889070      -0.58973118      -1.47107689      -2.59958146
Cs       6.72857915      22.91824663      12.87552149       0.09019101      -0.13248652      -0.02251162       0.24005777      -0.67641591      -0.65657453
Cs       7.34093772      21.59474623       6.64692227      -0.02943746       0.12513572      -0.11460237      -1.26809427       2.09783140      -0.48587365
Cs      13.54892915      15.26614661       6.56827990      -0.01430783       0.08728319      -0.05298442      -0.35439030      -1.12592735      -0.46802274
Pb       4.02498730      12.59355588       9.47415532      -0.01152344       0.06701232       0.08323488       2.18209520       4.40018897       2.37479213
Pb      10.15387625      19.13820857       9.31199371       0.17374344      -0.04133575       0.35082871      -2.27514006       0.19438988      -0.30602449
Pb       3.83812119      18.94851633       9.67131011      -0.10020007       0.14188587      -0.00681612      -0.42540307       3.28354655      -1.92334973
Pb      10.26099712      12.62951636       9.17845937      -0.21941994       0.06034020       0.10192669       0.99014359       2.68283035       0.02260542
Pb       3.70372293      13.06307359       3.26154281       0.15093862      -0.21585584      -0.14678673       2.17405102       0.81196642       0.33727069
Pb      10.33733372      19.19607728       3.01476355       0.09812146       0.33377697       0.01832403       1.25150565       1.39015788       0.03991083
Pb       4.13123468      19.30480895       3.47590406      -0.31259246       0.11763430      -0.22113708      -0.81444570      -0.59411305       0.71115775
Pb      10.10435752      13.03676287       2.79723338      -0.02460364      -0.45852389       0.10332449      -2.54371050      -2.65642301       0.06007540
I        3.56098606      15.86712518       9.89292789      -0.25013347      -0.08132654       0.15674154      -0.28340921      -0.91920345      -0.50825463
I        9.69730528      22.21559410       9.99388270      -0.12526677       0.20903150       0.08200103       0.16014108      -0.64956465       3.81266643
I       17.08788629      22.07691321       9.18308975       0.00190794       0.20503425      -0.08582114      -0.21882236       1.38674493       0.14355076
I       10.55502845      15.99323006       9.11808795       0.09721601      -0.27004268      -0.10779497      -1.63789226       1.11946636       0.38516839
I       13.33604957      19.62074975      10.21779004       0.03425999      -0.11455056      -0.11720276       1.74559767      -2.26245891       0.29984240
I        6.87980892       0.52946386       9.84874799       0.12641689       0.01307897       0.00571364       0.86858080      -1.69888250       1.98880096
I        6.98404085      18.32678546       9.06821057       0.02238677       0.09215651      -0.01172620       0.69233182       0.12706249      -0.01135325
I       13.21146412      12.20746667       9.11009832       0.26621825      -0.07452059      -0.12613512      -0.13570569      -0.00989963      -0.56281565
I       17.04332882      22.35154461       3.76557893       0.04075219       0.10600628       0.04783082      -0.25724010       0.14375819       1.23844705
I       10.71256753      15.89435969       3.68970017       0.07720536       0.11926630       0.06263676       3.44522506       1.15207635      -0.16136009
I        3.54242611      15.96641529      15.60014628      -0.09566889      -0.05866391      -0.10827285      -1.74995018      -0.32783003       1.79818121
I        9.55986054      22.09700965      15.45324307       0.18775599       0.18243789      -0.01851290       1.52240490       0.75793747       1.63538988
I        7.33392519      18.62138758      16.60790407      -0.30879879      -0.10444499       0.03180286       1.42892661      -0.08034932       2.63571534
I       13.46322111      12.36854470      16.30446329      -0.01512311      -0.07423673      -0.01931212       1.12249746      -0.97793716       0.85678072
I       13.45431572      19.76305661       2.51280050       0.13872755      -0.00738864       0.06127750       1.18337395      -0.60186897      -1.58801225
I        6.97123954       0.58868511       2.39271465      -0.04831551       0.18026890      -0.02084461       0.41854249      -1.27125628      -0.45918122
I        3.57430519      24.96565020      12.76045848      -0.05660867       0.09195856       0.19675219       1.43619173      -2.28123343      -0.77757848
I        9.69691833      18.50234611      12.88061996       0.01236120      -0.00047467      -0.36826962      -1.44481790      -0.94600766       0.62105385
I       17.05685235      13.46055329       6.27223628      -0.03524507      -0.09717292      -0.10624061      -1.23955010       2.41472653       0.95630987
I       10.79481618      19.93305023       6.46243322      -0.00174269      -0.16401645      -0.01386446      -1.85415611      -0.91051755       1.35873905
I        3.18630540      18.73140676       6.36502166      -0.00620169      -0.02398726       0.29975787      -1.88216799       1.80666380       1.05444496
I        9.84328316      24.86445574       6.17492731      -0.03670600       0.06588722       0.35796901       0.51720017      -0.57489912      -1.01411007
I       16.96832497      19.52660617      12.72691399       0.05950227       0.00751800      -0.11978392       0.65805548      -0.87007064      -0.90915279
I       10.80500772      13.18805779      12.53458698      -0.02477493       0.01862895      -0.26247622       0.74322825       0.55731234       0.71886689
Cs      14.07331601      21.97038805      18.95222951      -0.04106907       0.03613588       0.03167127       0.16350813      -0.04835415       4.74876591
Cs       7.86207471      15.44834039      19.03612758      -0.06803372      -0.01211844      -0.02529117       0.26513074      -0.43385792      -0.24476867
Cs       6.33070126      16.24248112      25.39901939       0.15562292      -0.17879458       0.00228638      -1.70766455      -0.45999754      -1.31108724
Cs      13.11747374      22.57243547      25.25049285      -0.01402470      -0.12950060       0.12119803      -0.54236433      -1.53586419      -0.75834526
Cs      13.21920006      16.35969048      25.43805545       0.10647008      -0.02103622      -0.03889070      -0.58973118      -1.47107689      -2.59958146
Cs       6.81316921      22.76933726      25.57797463       0.09019101      -0.13248652      -0.02251162       0.24005777      -0.67641591      -0.65657453
Cs       7.42552778      21.44583686      19.34937541      -0.02943746       0.12513572      -0.11460237      -1.26809427       2.09783140      -0.48587365
Cs      13.63351921      15.11723724      19.27073304      -0.01430783       0.08728319      -0.05298442      -0.35439030      -1.12592735      -0.46802274
Pb       4.10957736      12.44464651      22.17660846      -0.01152344       0.06701232       0.08323488       2.18209520       4.40018897       2.37479213
Pb      10.23846631      18.98929920      22.01444685       0.17374344      -0.04133575       0.35082871      -2.27514006       0.19438988      -0.30602449
Pb       3.92271125      18.79960696      22.37376325      -0.10020007       0.14188587      -0.00681612      -0.42540307       3.28354655      -1.92334973
Pb      10.34558718      12.48060699      21.88091251      -0.21941994       0.06034020       0.10192669       0.99014359       2.68283035       0.02260542
Pb       3.78831299      12.91416422      15.96399595       0.15093862      -0.21585584      -0.14678673       2.17405102       0.81196642       0.33727069
Pb      10.42192378      19.04716791      15.71721669       0.09812146       0.33377697       0.01832403       1.25150565       1.39015788       0.03991083
Pb       4.21582474      19.15589958      16.17835720      -0.31259246       0.11763430      -0.22113708      -0.81444570      -0.59411305       0.71115775
Pb      10.18894758      12.88785350      15.49968652      -0.02460364      -0.45852389       0.10332449      -2.54371050      -2.65642301       0.06007540
I        3.64557612      15.71821581      22.59538103      -0.25013347      -0.08132654       0.15674154      -0.28340921      -0.91920345      -0.50825463
I        9.78189534      22.06668473      22.69633584      -0.12526677       0.20903150       0.08200103       0.16014108      -0.64956465       3.81266643
I       17.17247635      21.92800384      21.88554289       0.00190794       0.20503425      -0.08582114      -0.21882236       1.38674493       0.14355076
I       10.63961851      15.84432069      21.82054109       0.09721601      -0.27004268      -0.10779497      -1.63789226       1.11946636       0.38516839
I       13.42063963      19.47184038      22.92024318       0.03425999      -0.11455056      -0.11720276       1.74559767      -2.26245891       0.29984240
I        6.96439897       0.38055448      22.55120112       0.12641689       0.01307897       0.00571364       0.86858080      -1.69888250       1.98880096
I        7.06863091      18.17787609      21.77066371       0.02238677       0.09215651      -0.01172620       0.69233182       0.12706249      -0.01135325
I       13.29605418      12.05855730      21.81255146       0.26621825      -0.07452059      -0.12613512      -0.13570569      -0.00989963      -0.56281565
I       17.12791888      22.20263524      16.46803207       0.04075219       0.10600628       0.04783082      -0.25724010       0.14375819       1.23844705
I       10.79715759      15.74545032      16.39215331       0.07720536       0.11926630       0.06263676       3.44522506       1.15207635      -0.16136009
I        3.45783606      16.11532467       2.89769315      -0.09566889      -0.05866391      -0.10827285      -1.74995018      -0.32783003       1.79818121
I        9.47527049      22.24591903       2.75078994       0.18775599       0.18243789      -0.01851290       1.52240490       0.75793747       1.63538988
I        7.24933514      18.77029696       3.90545094      -0.30879879      -0.10444499       0.03180286       1.42892661      -0.08034932       2.63571534
I       13.37863106      12.51745408       3.60201016      -0.01512311      -0.07423673      -0.01931212       1.12249746      -0.97793716       0.85678072
I       13.53890578      19.61414724      15.21525364       0.13872755      -0.00738864       0.06127750       1.18337395      -0.60186897      -1.58801225
I        7.05582959       0.43977573      15.09516778      -0.04831551       0.18026890      -0.02084461       0.41854249      -1.27125628      -0.45918122
I        3.65889525      24.81674083      25.46291162      -0.05660867       0.09195856       0.19675219       1.43619173      -2.28123343      -0.77757848
I        9.61232828      18.65125549       0.17816683       0.01236120      -0.00047467      -0.36826962      -1.44481790      -0.94600766       0.62105385
I       17.14144241      13.31164392      18.97468942      -0.03524507      -0.09717292      -0.10624061      -1.23955010       2.41472653       0.95630987
I       10.87940624      19.78414086      19.16488636      -0.00174269      -0.16401645      -0.01386446      -1.85415611      -0.91051755       1.35873905
I        3.27089546      18.58249739      19.06747480      -0.00620169      -0.02398726       0.29975787      -1.88216799       1.80666380       1.05444496
I        9.92787322      24.71554637      18.87738045      -0.03670600       0.06588722       0.35796901       0.51720017      -0.57489912      -1.01411007
I       17.05291503      19.37769680      25.42936713       0.05950227       0.00751800      -0.11978392       0.65805548      -0.87007064      -0.90915279
I       10.88959778      13.03914842      25.23704012      -0.02477493       0.01862895      -0.26247622       0.74322825       0.55731234       0.71886689
Cs       1.27190032       9.48437864       6.20776307      -0.04106907       0.03613588       0.03167127       0.16350813      -0.04835415       4.74876591
Cs      20.41675240       2.85578198       6.09978436      -0.06803372      -0.01211844      -0.02529117       0.26513074      -0.43385792      -0.24476867
Cs      18.88537895       3.64992271      12.46267617       0.15562292      -0.17879458       0.00228638      -1.70766455      -0.45999754      -1.31108724
Cs       0.31605805      10.08642606      12.50602641      -0.01402470      -0.12950060       0.12119803      -0.54236433      -1.53586419      -0.75834526
Cs       0.41778437       3.87368107      12.69358901       0.10647008      -0.02103622      -0.03889070      -0.58973118      -1.47107689      -2.59958146
Cs      19.36784690      10.17677885      12.64163141       0.09019101      -0.13248652      -0.02251162       0.24005777      -0.67641591      -0.65657453
Cs      19.98020547       8.85327845       6.41303219      -0.02943746       0.12513572      -0.11460237      -1.26809427       2.09783140      -0.48587365
Cs       0.83210352       2.63122783       6.52626660      -0.01430783       0.08728319      -0.05298442      -0.35439030      -1.12592735      -0.46802274
Pb      16.66425505      -0.14791190       9.24026524      -0.01152344       0.06701232       0.08323488       2.18209520       4.40018897       2.37479213
Pb      22.79314400       6.39674079       9.07810363       0.17374344      -0.04133575       0.35082871      -2.27514006       0.19438988      -0.30602449
Pb      16.47738894       6.20704855       9.43742003      -0.10020007       0.14188587      -0.00681612      -0.42540307       3.28354655      -1.92334973
Pb      22.90026487      -0.11195142       8.94456929      -0.21941994       0.06034020       0.10192669       0.99014359       2.68283035       0.02260542
Pb      16.34299068       0.32160581       3.02765273       0.15093862      -0.21585584      -0.14678673       2.17405102       0.81196642       0.33727069
Pb      22.97660147       6.45460950       2.78087347       0.09812146       0.33377697       0.01832403       1.25150565       1.39015788       0.03991083
Pb      16.77050243       6.56334117       3.24201398      -0.31259246       0.11763430      -0.22113708      -0.81444570      -0.59411305       0.71115775
Pb      22.74362527       0.29529509       2.56334330      -0.02460364      -0.45852389       0.10332449      -2.54371050      -2.65642301       0.06007540
I       16.20025381       3.12565740       9.65903781      -0.25013347      -0.08132654       0.15674154      -0.28340921      -0.91920345      -0.50825463
I       22.33657303       9.47412632       9.75999262      -0.12526677       0.20903150       0.08200103       0.16014108      -0.64956465       3.81266643
I        4.37106066       9.44199443       9.14107645       0.00190794       0.20503425      -0.08582114      -0.21882236       1.38674493       0.14355076
I       23.19429620       3.25176228       8.88419787       0.09721601      -0.27004268      -0.10779497      -1.63789226       1.11946636       0.38516839
I        0.61922394       6.98583097      10.17577674       0.03425999      -0.11455056      -0.11720276       1.74559767      -2.26245891       0.29984240
I       19.59663455      13.16438264       9.89076129       0.12641689       0.01307897       0.00571364       0.86858080      -1.69888250       1.98880096
I       19.62330860       5.58531768       8.83432049       0.02238677       0.09215651      -0.01172620       0.69233182       0.12706249      -0.01135325
I        0.57219638      24.94893446       9.34398841       0.26621825      -0.07452059      -0.12613512      -0.13570569      -0.00989963      -0.56281565
I        4.32650319       9.71662583       3.72356563       0.04075219       0.10600628       0.04783082      -0.25724010       0.14375819       1.23844705
I       23.35183528       3.15289191       3.45581009       0.07720536       0.11926630       0.06263676       3.44522506       1.15207635      -0.16136009
I       16.18169386       3.22494751      15.36625620      -0.09566889      -0.05866391      -0.10827285      -1.74995018      -0.32783003       1.79818121
I       22.19912829       9.35554187      15.21935299       0.18775599       0.18243789      -0.01851290       1.52240490       0.75793747       1.63538988
I       19.97319294       5.87991980      16.37401399      -0.30879879      -0.10444499       0.03180286       1.42892661      -0.08034932       2.63571534
I        0.82395337      25.11001249      16.53835338      -0.01512311      -0.07423673      -0.01931212       1.12249746      -0.97793716       0.85678072