320
Lattice="31.705123562890115 0.00098397742904671 0.8597404125717283 0.019921660697184568 29.971723771014627 -2.6265873698904523 -0.4087198441794399 1.5773423540450537 17.106165182112967" Properties=species:S:1:pos:R:3:forces:R:3:momenta:R:3 pbc="T T T"
Cs       1.28199639       0.57623320       2.77713475      -0.10779395      -0.00113563       0.06556129      -1.82430909      -0.62420184       0.00269579
Cs       4.90492038       3.37301601       7.29565855       0.07444401      -0.08383237      -0.02115038       0.33784777      -1.85976607       1.25154440
Cs       0.74676474       9.27732173      15.39504763      -0.04393881      -0.06993512      -0.02011148      -0.71035570      -0.95697814      -0.90173629
Cs       5.15580037      10.61715307       2.48986641      -0.04736887      -0.04194616      -0.10020593       1.10621201      -1.21493455      -0.76233105
Cs       8.77375081      29.81039214       0.68615551      -0.04370781       0.12312944      -0.00829702      -0.56716442      -0.17085096      -0.54874242
Cs      13.06993657       3.53197528       7.48394576      -0.06876328       0.06143745       0.02487021      -0.88762761      -1.85753656      -2.02428121
Cs       8.58546317       9.35827592      15.29684233       0.05815042      -0.02480593       0.04958088      -3.48982077       0.13185050      -0.06928713
Cs      12.80816314      10.26159406       2.65709781       0.00757248       0.02352152       0.00529214      -1.17210359      -1.57587715      -1.69568052
Pb       2.35783359      13.34795732       6.17231425       0.03362295      -0.10341328      -0.08617050      -0.21317014       0.86457664      -1.77188657
Pb       6.35995179      13.26122630       6.26969570       0.12457655      -0.06482017      -0.20469145       0.97392315      -0.54808101       0.56734709
Pb       3.69652223       5.57135376       2.75775714       0.21040117      -0.16624139      -0.08902437      -1.41725819      -2.50256024       1.50059089
Pb      31.55427177       5.60245531       3.60380920      -0.41083510      -0.03554058       0.17781302       0.27202177       1.12423018       1.28314351
Pb      10.43270378      13.47210267       6.48360118      -0.03672690      -0.25220302      -0.16140130       0.68970107      -2.20608248      -4.48268187
Pb      14.31307506      13.34523480       6.61466499      -0.21042106       0.05710542      -0.22558802       0.08049633       1.27733690      -2.18097486
Pb      11.55300947       5.35668038       3.01891514      -0.21016502       0.00596016       0.26889008      -0.53809851      -0.31113369      -3.55938747
Pb       7.63793767       5.25901407       2.71174073       0.29195428      -0.05274530       0.05034604       1.22751054       1.38338862      -0.26240077
I        4.46555677      29.27763753      -1.67607539       0.13383042      -0.25754308      -0.17775349      -0.25358458      -0.71383735       0.40656445
I        1.64099026       3.93827547       0.78713512       0.08017706      -0.14744039      -0.13974148      -0.54159226      -0.09188514       0.85561517
I        4.40473113      29.29825826       2.48647612      -0.06901582      -0.08850352       0.13022364      -1.55064366      -2.40014036       1.34259589
I        1.96094945       4.59083750       5.23442029      -0.26293877       0.15578365      -0.16585331      -0.55291640      -2.11454745      -0.39640551
I        5.61732001       2.91648256       3.44128275      -0.10298477      -0.05667704      -0.05406643      -0.21595017       0.99120394      -0.29694732
I        0.45975519       0.86704212       6.93850862       0.01570611       0.13839489      -0.01493372       0.42652684      -0.07182054      -0.03586306
I        5.92449116       7.22196447       4.40043053      -0.29982311       0.25418799       0.21303551       1.62450900       1.13786847       0.01117277
I        0.24213274      11.46447076       4.33313998       0.19886744       0.15985066       0.01405289       0.30950725      -0.34504299       0.11207879
I        5.69159670       5.75617946       0.07328863       0.03746372       0.21126918       0.02089584      -0.01762772       0.43567022       0.75887466
I        0.39629806      11.64004239      -0.01501485       0.22117032       0.03388443       0.14799403       2.00090180       0.00400743       1.59185038
I        4.22410282      10.69966185       6.52407058       0.13345949       0.11017565       0.11001743       1.43921550      -1.49972764      -0.90142276
I        1.83814585       8.14978387       2.21208367       0.00739214      -0.00265881       0.04904254       0.30499033       0.34952333       0.32432445
I       12.47884394      29.27885595      -1.32576896      -0.10324758      -0.01400908      -0.10564652       0.04066166      -1.17917011       1.29257231
I        9.72807833       3.35689549       1.19426018       0.19722740      -0.03597752      -0.08282027       1.25926164       0.76359393      -0.86910198
I       12.21706279      29.27229724       2.75397379       0.08596435      -0.03967693       0.09758236      -2.33363330       1.34316270       0.48507263
I        9.38089501       4.73328231       5.46456796       0.06511181       0.01942038      -0.10236635      -0.10245693      -1.75009604       0.16729698
I       13.60522830       3.10326909       3.54934782       0.37415783      -0.27269611       0.00033741       0.19408035      -1.76934993      -1.70770269
I        8.32172205       0.83242307       7.29157511      -0.15428115      -0.06285911       0.03423939       0.57248895      -1.41686227       1.45027789
I       13.52387483       6.95796208       5.17557386       0.01656999       0.09138207       0.07048825       0.56274673       1.18112190      -0.54962961
I        8.50759209      11.60108487       4.21813779      -0.12974684       0.44928317       0.41607026      -1.99823480       0.10431245      -0.18586584
I       13.55619683       6.67031552       0.93158433       0.27536618      -0.06403132      -0.12611187      -0.86078074      -0.91361865       1.28721054
I        8.33605630      11.31468564       0.04250360      -0.00124461      -0.02326370       0.10698343       0.42456874       3.07121604      -2.05426035
I       12.41183518      10.86618054       6.97894132      -0.18753708      -0.03278345       0.00982423       0.52501695      -1.59979872      -0.04802382
I        9.70032925       7.89297229       2.49391683      -0.15264559       0.09995293      -0.17720700       1.70277068       1.65111371      -0.31117169
Cs       1.07763647       1.36490438      11.33021734      -0.10779395      -0.00113563       0.06556129      -1.82430909      -0.62420184       0.00269579
Cs       4.70056046       4.16168719      15.84874114       0.07444401      -0.08383237      -0.02115038       0.33784777      -1.85976607       1.25154440
Cs       0.95112466       8.48865056       6.84196504      -0.04393881      -0.06993512      -0.02011148      -0.71035570      -0.95697814      -0.90173629
Cs       4.95144045      11.40582425      11.04294900      -0.04736887      -0.04194616      -0.10020593       1.10621201      -1.21493455      -0.76233105
Cs       8.56939089      30.59906332       9.23923810      -0.04370781       0.12312944      -0.00829702      -0.56716442      -0.17085096      -0.54874242
Cs      12.86557665       4.32064646      16.03702835      -0.06876328       0.06143745       0.02487021      -0.88762761      -1.85753656      -2.02428121
Cs       8.78982309       8.56960475       6.74375974       0.05815042      -0.02480593       0.04958088      -3.48982077       0.13185050      -0.06928713
Cs      12.60380322      11.05026524      11.21018040       0.00757248       0.02352152       0.00529214      -1.17210359      -1.57587715      -1.69568052
Pb       2.15347367      14.13662850      14.72539684       0.03362295      -0.10341328      -0.08617050      -0.21317014       0.86457664      -1.77188657
Pb       6.15559187      14.04989748      14.82277829       0.12457655      -0.06482017      -0.20469145       0.97392315      -0.54808101       0.56734709
Pb       3.49216231       6.36002494      11.31083973       0.21040117      -0.16624139      -0.08902437      -1.41725819      -2.50256024       1.50059089
Pb      31.34991185       6.39112648      12.15689179      -0.41083510      -0.03554058       0.17781302       0.27202177       1.12423018       1.28314351
Pb      10.22834386      14.26077385      15.03668377      -0.03672690      -0.25220302      -0.16140130       0.68970107      -2.20608248      -4.48268187
Pb      14.10871514      14.13390598      15.16774758      -0.21042106       0.05710542      -0.22558802       0.08049633       1.27733690      -2.18097486
Pb      11.34864955       6.14535156      11.57199773      -0.21016502       0.00596016       0.26889008      -0.53809851      -0.31113369      -3.55938747
Pb       7.43357775       6.04768525      11.26482332       0.29195428      -0.05274530       0.05034604       1.22751054       1.38338862      -0.26240077
I        4.26119685      30.06630871       6.87700720       0.13383042      -0.25754308      -0.17775349      -0.25358458      -0.71383735       0.40656445
I        1.43663034       4.72694665       9.34021771       0.08017706      -0.14744039      -0.13974148      -0.54159226      -0.09188514       0.85561517
I        4.20037121      30.08692944      11.03955871      -0.06901582      -0.08850352       0.13022364      -1.55064366      -2.40014036       1.34259589
I        1.75658953       5.37950868      13.78750288      -0.26293877       0.15578365      -0.16585331      -0.55291640      -2.11454745      -0.39640551
I        5.41296009       3.70515374      11.99436534      -0.10298477      -0.05667704      -0.05406643      -0.21595017       0.99120394      -0.29694732
I        0.25539527       1.65571330      15.49159121       0.01570611       0.13839489      -0.01493372       0.42652684      -0.07182054      -0.03586306
I        5.72013124       8.01063565      12.95351312      -0.29982311       0.25418799       0.21303551       1.62450900       1.13786847       0.01117277
I        0.03777282      12.25314194      12.88622257       0.19886744       0.15985066       0.01405289       0.30950725      -0.34504299       0.11207879
I        5.48723678       6.54485064       8.62637122       0.03746372       0.21126918       0.02089584      -0.01762772       0.43567022       0.75887466
I        0.19193814      12.42871357       8.53806774       0.22117032       0.03388443       0.14799403       2.00090180       0.00400743       1.59185038
I        4.01974290      11.48833303      15.07715317       0.13345949       0.11017565       0.11001743       1.43921550      -1.49972764      -0.90142276
I        1.63378593       8.93845505      10.76516626       0.00739214      -0.00265881       0.04904254       0.30499033       0.34952333       0.32432445
I       12.27448402      30.06752713       7.22731363      -0.10324758      -0.01400908      -0.10564652       0.04066166      -1.17917011       1.29257231
I        9.52371841       4.14556667       9.74734277       0.19722740      -0.03597752      -0.08282027       1.25926164       0.76359393      -0.86910198
I       12.01270287      30.06096842      11.30705638       0.08596435      -0.03967693       0.09758236      -2.33363330       1.34316270       0.48507263
I        9.17653509       5.52195349      14.01765055       0.06511181       0.01942038      -0.10236635      -0.10245693      -1.75009604       0.16729698
I       13.40086838       3.89194027      12.10243041       0.37415783      -0.27269611       0.00033741       0.19408035      -1.76934993      -1.70770269
I        8.11736213       1.62109425      15.84465770      -0.15428115      -0.06285911       0.03423939       0.57248895      -1.41686227       1.45027789
I       13.31951491       7.74663326      13.72865645       0.01656999       0.09138207       0.07048825       0.56274673       1.18112190      -0.54962961
I        8.30323217      12.38975605      12.77122038      -0.12974684       0.44928317       0.41607026      -1.99823480       0.10431245      -0.18586584
I       13.35183691       7.45898670       9.48466692       0.27536618      -0.06403132      -0.12611187      -0.86078074      -0.91361865       1.28721054
I        8.13169638      12.10335682       8.59558619      -0.00124461      -0.02326370       0.10698343       0.42456874       3.07121604      -2.05426035
I       12.20747526      11.65485172      15.53202391      -0.18753708      -0.03278345       0.00982423       0.52501695      -1.59979872      -0.04802382
I        9.49596933       8.68164347      11.04699942      -0.15264559       0.09995293      -0.17720700       1.70277068       1.65111371      -0.31117169
Cs       1.29195722      15.56209509       1.46384107      -0.10779395      -0.00113563       0.06556129      -1.82430909      -0.62420184       0.00269579
Cs       4.91488121      18.35887790       5.98236487       0.07444401      -0.08383237      -0.02115038       0.33784777      -1.85976607       1.25154440
Cs       0.75672557      24.26318362      14.08175395      -0.04393881      -0.06993512      -0.02011148      -0.71035570      -0.95697814      -0.90173629
Cs       5.16576120      25.60301496       1.17657273      -0.04736887      -0.04194616      -0.10020593       1.10621201      -1.21493455      -0.76233105
Cs       8.76378998      14.82453026       1.99944920      -0.04370781       0.12312944      -0.00829702      -0.56716442      -0.17085096      -0.54874242
Cs      13.07989740      18.51783717       6.17065208      -0.06876328       0.06143745       0.02487021      -0.88762761      -1.85753656      -2.02428121
Cs       8.59542400      24.34413781      13.98354865       0.05815042      -0.02480593       0.04958088      -3.48982077       0.13185050      -0.06928713
Cs      12.81812397      25.24745595       1.34380413       0.00757248       0.02352152       0.00529214      -1.17210359      -1.57587715      -1.69568052
Pb       2.36779442      28.33381921       4.85902057       0.03362295      -0.10341328      -0.08617050      -0.21317014       0.86457664      -1.77188657
Pb       6.36991262      28.24708819       4.95640202       0.12457655      -0.06482017      -0.20469145       0.97392315      -0.54808101       0.56734709
Pb       3.70648306      20.55721565       1.44446346       0.21040117      -0.16624139      -0.08902437      -1.41725819      -2.50256024       1.50059089
Pb      31.56423260      20.58831719       2.29051552      -0.41083510      -0.03554058       0.17781302       0.27202177       1.12423018       1.28314351
Pb      10.44266461      28.45796456       5.17030750      -0.03672690      -0.25220302      -0.16140130       0.68970107      -2.20608248      -4.48268187
Pb      14.32303589      28.33109669       5.30137131      -0.21042106       0.05710542      -0.22558802       0.08049633       1.27733690      -2.18097486
Pb      11.56297030      20.34254227       1.70562146      -0.21016502       0.00596016       0.26889008      -0.53809851      -0.31113369      -3.55938747
Pb       7.64789850      20.24487596       1.39844705       0.29195428      -0.05274530       0.05034604       1.22751054       1.38338862      -0.26240077
I        4.45559594      14.29177565      -0.36278170       0.13383042      -0.25754308      -0.17775349      -0.25358458      -0.71383735       0.40656445
I        1.65095109      18.92413736      -0.52615856       0.08017706      -0.14744039      -0.13974148      -0.54159226      -0.09188514       0.85561517
I        4.39477030      14.31239638       3.79976981      -0.06901582      -0.08850352       0.13022364      -1.55064366      -2.40014036       1.34259589
I        1.97091028      19.57669939       3.92112661      -0.26293877       0.15578365      -0.16585331      -0.55291640      -2.11454745      -0.39640551
I        5.62728084      17.90234445       2.12798907      -0.10298477      -0.05667704      -0.05406643      -0.21595017       0.99120394      -0.29694732
I        0.46971602      15.85290401       5.62521494       0.01570611       0.13839489      -0.01493372       0.42652684      -0.07182054      -0.03586306
I        5.93445199      22.20782636       3.08713685      -0.29982311       0.25418799       0.21303551       1.62450900       1.13786847       0.01117277
I        0.25209357      26.45033265       3.01984630       0.19886744       0.15985066       0.01405289       0.30950725      -0.34504299       0.11207879
I        5.70155753      20.74204135      -1.24000505       0.03746372       0.21126918       0.02089584      -0.01762772       0.43567022       0.75887466
I        0.40625889      26.62590428      -1.32830853       0.22117032       0.03388443       0.14799403       2.00090180       0.00400743       1.59185038
I        4.23406365      25.68552374       5.21077690       0.13345949       0.11017565       0.11001743       1.43921550      -1.49972764      -0.90142276
I        1.84810668      23.13564576       0.89878999       0.00739214      -0.00265881       0.04904254       0.30499033       0.34952333       0.32432445
I       12.46888311      14.29299407      -0.01247527      -0.10324758      -0.01400908      -0.10564652       0.04066166      -1.17917011       1.29257231
I        9.73803916      18.34275738      -0.11903350       0.19722740      -0.03597752      -0.08282027       1.25926164       0.76359393      -0.86910198
I       12.20710196      14.28643536       4.06726748       0.08596435      -0.03967693       0.09758236      -2.33363330       1.34316270       0.48507263
I        9.39085584      19.71914420       4.15127428       0.06511181       0.01942038      -0.10236635      -0.10245693      -1.75009604       0.16729698
I       13.61518913      18.08913098       2.23605414       0.37415783      -0.27269611       0.00033741       0.19408035      -1.76934993      -1.70770269
I        8.33168288      15.81828496       5.97828143      -0.15428115      -0.06285911       0.03423939       0.57248895      -1.41686227       1.45027789
I       13.53383566      21.94382397       3.86228018       0.01656999       0.09138207       0.07048825       0.56274673       1.18112190      -0.54962961
I        8.51755292      26.58694676       2.90484411      -0.12974684       0.44928317       0.41607026      -1.99823480       0.10431245      -0.18586584
I       13.56615766      21.65617741      -0.38170935       0.27536618      -0.06403132      -0.12611187      -0.86078074      -0.91361865       1.28721054
I        8.34601713      26.30054753      -1.27079008      -0.00124461      -0.02326370       0.10698343       0.42456874       3.07121604      -2.05426035
I       12.42179601      25.85204243       5.66564764      -0.18753708      -0.03278345       0.00982423       0.52501695      -1.59979872      -0.04802382
I        9.71029008      22.87883418       1.18062315      -0.15264559       0.09995293      -0.17720700       1.70277068       1.65111371      -0.31117169
Cs       1.08759730      16.35076626      10.01692366      -0.10779395      -0.00113563       0.06556129      -1.82430909      -0.62420184       0.00269579
Cs       4.71052129      19.14754907      14.53544746       0.07444401      -0.08383237      -0.02115038       0.33784777      -1.85976607       1.25154440
Cs       0.96108549      23.47451244       5.52867136      -0.04393881      -0.06993512      -0.02011148      -0.71035570      -0.95697814      -0.90173629
Cs       4.96140128      26.39168613       9.72965532      -0.04736887      -0.04194616      -0.10020593       1.10621201      -1.21493455      -0.76233105
Cs       8.55943006      15.61320143      10.55253179      -0.04370781       0.12312944      -0.00829702      -0.56716442      -0.17085096      -0.54874242
Cs      12.87553748      19.30650834      14.72373467      -0.06876328       0.06143745       0.02487021      -0.88762761      -1.85753656      -2.02428121
Cs       8.79978392      23.55546663       5.43046606       0.05815042      -0.02480593       0.04958088      -3.48982077       0.13185050      -0.06928713
Cs      12.61376405      26.03612712       9.89688672       0.00757248       0.02352152       0.00529214      -1.17210359      -1.57587715      -1.69568052
Pb       2.16343450      29.12249038      13.41210316       0.03362295      -0.10341328      -0.08617050      -0.21317014       0.86457664      -1.77188657
Pb       6.16555270      29.03575936      13.50948461       0.12457655      -0.06482017      -0.20469145       0.97392315      -0.54808101       0.56734709
Pb       3.50212314      21.34588682       9.99754605       0.21040117      -0.16624139      -0.08902437      -1.41725819      -2.50256024       1.50059089
Pb      31.35987268      21.37698837      10.84359811      -0.41083510      -0.03554058       0.17781302       0.27202177       1.12423018       1.28314351
Pb      10.23830469      29.24663573      13.72339009      -0.03672690      -0.25220302      -0.16140130       0.68970107      -2.20608248      -4.48268187
Pb      14.11867597      29.11976786      13.85445390      -0.21042106       0.05710542      -0.22558802       0.08049633       1.27733690      -2.18097486
Pb      11.35861038      21.13121344      10.25870405      -0.21016502       0.00596016       0.26889008      -0.53809851      -0.31113369      -3.55938747
Pb       7.44353858      21.03354713       9.95152964       0.29195428      -0.05274530       0.05034604       1.22751054       1.38338862      -0.26240077
I        4.25123602      15.08044682       8.19030089       0.13383042      -0.25754308      -0.17775349      -0.25358458      -0.71383735       0.40656445
I        1.44659117      19.71280853       8.02692403       0.08017706      -0.14744039      -0.13974148      -0.54159226      -0.09188514       0.85561517
I        4.19041038      15.10106755      12.35285240      -0.06901582      -0.08850352       0.13022364      -1.55064366      -2.40014036       1.34259589
I        1.76655036      20.36537056      12.47420920      -0.26293877       0.15578365      -0.16585331      -0.55291640      -2.11454745      -0.39640551
I        5.42292092      18.69101562      10.68107166      -0.10298477      -0.05667704      -0.05406643      -0.21595017       0.99120394      -0.29694732
I        0.26535610      16.64157518      14.17829753       0.01570611       0.13839489      -0.01493372       0.42652684      -0.07182054      -0.03586306
I        5.73009207      22.99649753      11.64021944      -0.29982311       0.25418799       0.21303551       1.62450900       1.13786847       0.01117277
I        0.04773365      27.23900382      11.57292889       0.19886744       0.15985066       0.01405289       0.30950725      -0.34504299       0.11207879
I        5.49719761      21.53071252       7.31307754       0.03746372       0.21126918       0.02089584      -0.01762772       0.43567022       0.75887466
I        0.20189897      27.41457545       7.22477406       0.22117032       0.03388443       0.14799403       2.00090180       0.00400743       1.59185038
I        4.02970373      26.47419491      13.76385949       0.13345949       0.11017565       0.11001743       1.43921550      -1.49972764      -0.90142276
I        1.64374676      23.92431693       9.45187258       0.00739214      -0.00265881       0.04904254       0.30499033       0.34952333       0.32432445
I       12.26452319      15.08166524       8.54060732      -0.10324758      -0.01400908      -0.10564652       0.04066166      -1.17917011       1.29257231
I        9.53367924      19.13142855       8.43404909       0.19722740      -0.03597752      -0.08282027       1.25926164       0.76359393      -0.86910198
I       12.00274204      15.07510653      12.62035007       0.08596435      -0.03967693       0.09758236      -2.33363330       1.34316270       0.48507263
I        9.18649592      20.50781537      12.70435687       0.06511181       0.01942038      -0.10236635      -0.10245693      -1.75009604       0.16729698
I       13.41082921      18.87780215      10.78913673       0.37415783      -0.27269611       0.00033741       0.19408035      -1.76934993      -1.70770269
I        8.12732296      16.60695613      14.53136402      -0.15428115      -0.06285911       0.03423939       0.57248895      -1.41686227       1.45027789
I       13.32947574      22.73249514      12.41536277       0.01656999       0.09138207       0.07048825       0.56274673       1.18112190      -0.54962961
I        8.31319300      27.37561793      11.45792670      -0.12974684       0.44928317       0.41607026      -1.99823480       0.10431245      -0.18586584
I       13.36179774      22.44484858       8.17137324       0.27536618      -0.06403132      -0.12611187      -0.86078074      -0.91361865       1.28721054
I        8.14165721      27.08921870       7.28229251      -0.00124461      -0.02326370       0.10698343       0.42456874       3.07121604      -2.05426035
I       12.21743609      26.64071360      14.21873023      -0.18753708      -0.03278345       0.00982423       0.52501695      -1.59979872      -0.04802382
I        9.50593016      23.66750535       9.73370574      -0.15264559       0.09995293      -0.17720700       1.70277068       1.65111371      -0.31117169
Cs      17.13455817       0.57672519       3.20700496      -0.10779395      -0.00113563       0.06556129      -1.82430909      -0.62420184       0.00269579
Cs      20.75748216       3.37350800       7.72552876       0.07444401      -0.08383237      -0.02115038       0.33784777      -1.85976607       1.25154440
Cs      16.59932652       9.27781372      15.82491784      -0.04393881      -0.06993512      -0.02011148      -0.71035570      -0.95697814      -0.90173629
Cs      21.00836215      10.61764506       2.91973662      -0.04736887      -0.04194616      -0.10020593       1.10621201      -1.21493455      -0.76233105
Cs      24.62631259      29.81088413       1.11602572      -0.04370781       0.12312944      -0.00829702      -0.56716442      -0.17085096      -0.54874242
Cs      28.92249835       3.53246727       7.91381597      -0.06876328       0.06143745       0.02487021      -0.88762761      -1.85753656      -2.02428121
Cs      24.43802495       9.35876791      15.72671254       0.05815042      -0.02480593       0.04958088      -3.48982077       0.13185050      -0.06928713
Cs      28.66072492      10.26208605       3.08696802       0.00757248       0.02352152       0.00529214      -1.17210359      -1.57587715      -1.69568052
Pb      18.21039537      13.34844931       6.60218446       0.03362295      -0.10341328      -0.08617050      -0.21317014       0.86457664      -1.77188657
Pb      22.21251357      13.26171829       6.69956591       0.12457655      -0.06482017      -0.20469145       0.97392315      -0.54808101       0.56734709
Pb      19.54908401       5.57184575       3.18762735       0.21040117      -0.16624139      -0.08902437      -1.41725819      -2.50256024       1.50059089
Pb      15.70170999       5.60196332       3.17393900      -0.41083510      -0.03554058       0.17781302       0.27202177       1.12423018       1.28314351
Pb      26.28526556      13.47259466       6.91347139      -0.03672690      -0.25220302      -0.16140130       0.68970107      -2.20608248      -4.48268187
Pb      30.16563684      13.34572679       7.04453520      -0.21042106       0.05710542      -0.22558802       0.08049633       1.27733690      -2.18097486
Pb      27.40557125       5.35717237       3.44878535      -0.21016502       0.00596016       0.26889008      -0.53809851      -0.31113369      -3.55938747
Pb      23.49049945       5.25950606       3.14161094       0.29195428      -0.05274530       0.05034604       1.22751054       1.38338862      -0.26240077
I       20.31811855      29.27812952      -1.24620518       0.13383042      -0.25754308      -0.17775349      -0.25358458      -0.71383735       0.40656445
I       17.49355204       3.93876746       1.21700533       0.08017706      -0.14744039      -0.13974148      -0.54159226      -0.09188514       0.85561517
I       20.25729291      29.29875025       2.91634633      -0.06901582      -0.08850352       0.13022364      -1.55064366      -2.40014036       1.34259589
I       17.81351123       4.59132949       5.66429050      -0.26293877       0.15578365      -0.16585331      -0.55291640      -2.11454745      -0.39640551
I       21.46988179       2.91697455       3.87115296      -0.10298477      -0.05667704      -0.05406643      -0.21595017       0.99120394      -0.29694732
I       16.31231697       0.86753411       7.36837883       0.01570611       0.13839489      -0.01493372       0.42652684      -0.07182054      -0.03586306
I       21.77705294       7.22245646       4.83030074      -0.29982311       0.25418799       0.21303551       1.62450900       1.13786847       0.01117277
I       16.09469452      11.46496275       4.76301019       0.19886744       0.15985066       0.01405289       0.30950725      -0.34504299       0.11207879
I       21.54415848       5.75667145       0.50315884       0.03746372       0.21126918       0.02089584      -0.01762772       0.43567022       0.75887466
I       16.24885984      11.64053438       0.41485536       0.22117032       0.03388443       0.14799403       2.00090180       0.00400743       1.59185038
I       20.07666460      10.70015384       6.95394079       0.13345949       0.11017565       0.11001743       1.43921550      -1.49972764      -0.90142276
I       17.69070763       8.15027586       2.64195388       0.00739214      -0.00265881       0.04904254       0.30499033       0.34952333       0.32432445
I       28.33140572      29.27934794      -0.89589875      -0.10324758      -0.01400908      -0.10564652       0.04066166      -1.17917011       1.29257231
I       25.58064011       3.35738748       1.62413039       0.19722740      -0.03597752      -0.08282027       1.25926164       0.76359393      -0.86910198