320
Lattice="25.356093371687486 -0.1065490082268892 -0.19187677835240669 0.07755788227136919 25.376386568457004 0.27590338859444424 0.1691801122122475 -0.29781874292918886 25.404906270035514" Properties=species:S:1:pos:R:3:forces:R:3:momenta:R:3 energy=-973.3333173879265 stress="0.0 0.0 0.0 0.0 0.0 0.0 0.0 0.0 0.0" pbc="T T T"
Cs      13.60013639       8.41828960       5.29925406       0.06842671       0.03960223      -0.03800572       1.20205230      -5.27039397      -4.09085930
Cs       7.40889321       2.65592828       5.61282458       0.09950630      -0.28843652      -0.03380924      -0.94444761       2.34315215      -1.62555191
Cs       6.36619039       2.20987024      11.52409788       0.12343634       0.13632548       0.02524183       1.35326538      -0.00731976       1.77785330
Cs      13.24076167       8.93493178      11.64342877      -0.16797381       0.17825274       0.10758575       0.08237279       0.11611249      -2.39854663
Cs      13.09211583       2.76725507      11.32186710       0.03593563      -0.07358753       0.22512465      -1.38138223       0.42421230       2.66396625
Cs       6.61984819       9.26673909      11.26873928       0.14711790      -0.00228188       0.10148475      -3.78880203      -0.09880299       0.03511887
Cs       6.90261987       8.33526505       5.06421270       0.10005263      -0.04979978       0.16527248       2.32567147      -0.12414349      -2.00076028
Cs      13.55428722       2.02742403       4.66889838       0.15404926      -0.07372115       0.14986805       2.07251878      -0.80698645      -0.58834898
Pb       4.28020130      24.70194289       8.67966555      -0.67851986      -0.21810282      -0.36395047      -0.55281158       0.07342624       4.08957393
Pb      10.52153221       5.54237916       8.78617777      -0.26419662       0.19998215      -0.16245806       0.70212718      -1.29481299       0.42695801
Pb       4.08156257       5.45583396       8.56782475      -0.21484880       0.27889163      -0.11427264       0.49101829       4.08951184       0.13279161
Pb      10.60086563      24.53796438       8.64926141      -0.05953201      -0.17329552      -0.04602871      -0.90680553      -4.95152530       1.43275022
Pb       3.71000320      24.74658286       2.34052493       0.09692374       0.20485265      -0.19376344      -1.70570310      -1.60661439       1.69713900
Pb       9.95698629       5.89430547       2.17078898       0.39569156      -0.41273209      -0.26662752      -1.37554412      -3.56742263       0.97481080
Pb       3.74857693       5.62634030       2.11823312       0.04607373       0.03849562       0.03891022      -0.86638416       2.03631833      -0.80216635
Pb      10.05540826      24.93897916       2.51969638      -0.00289360       0.05860032      -0.01502844      -2.00154333       0.72360748      -0.97845106
I        3.02830276       2.40940702       8.74153235       0.09054815      -0.18592539       0.10861748       0.51279531      -1.45954808      -3.54352412
I        9.63760322       8.89417874       8.80156254       0.14601591      -0.51523113       0.03048982      -2.75686631      -2.73626738      -3.02945750
I       17.64279218       8.73619889       8.05101574      -0.27315532       0.14498163       0.03811412      -2.27867087       2.38862258       0.51652002
I       10.99279013       2.31334573       7.83165728       0.05655267       0.24732328       0.09130591      -2.36956306      -1.08743593       0.08070853
I       13.48167863       6.36321885       9.18120196      -0.01719633      -0.07924258      -0.10352597       3.43318762       0.97495153       0.05345093
I        7.23314482      12.42121921       8.66061655      -0.20525709       0.03440793      -0.04418817       2.00432453       3.00766565       1.52262805
I        7.25880979       4.84728876       8.69324886      -0.17731959       0.08525310      -0.17095007      -0.61616867       0.27115366       0.20620528
I       13.45592455      23.59697915       7.78662811      -0.35275068       0.26692650       0.16241405       2.91864568      -0.16866720       1.06955650
I       17.29320729       8.85759008       2.52015680      -0.03509950      -0.27653513       0.07387312       3.66896451      -1.43227541      -2.49924089
I       10.54142904       2.59449451       2.51773358      -0.02370875      -0.06482980       0.02317052      -2.54187011       0.20593788      -0.00953378
I        3.47908223       2.57835456      14.48754095      -0.01052172      -0.03159844      -0.03431258       2.38190511      -2.42663062       0.82626115
I        9.71434916       8.63345315      14.09734450      -0.05008501      -0.03104160      -0.03717558      -1.63686813      -0.89146230      -0.01479620
I        7.13761749       5.22589373      15.66494591       0.14899051      -0.00978513      -0.10488350      -0.06528866      -1.02931096      -1.75783169
I       13.29989684      24.05631438      15.84621444       0.12161541       0.01909209       0.03883510       0.71772028      -1.16934321       1.32327350
I       13.24723572       6.10543825       1.57776832       0.14892615      -0.03340592       0.15841008      -2.63930524       0.07005956      -0.51779659
I        7.11803464      12.71735374       1.34057160      -0.01700643      -0.14907389      -0.01323443       1.65645348      -2.11248377       0.47229638
I        3.75688215      11.67437254      11.59394258      -0.15200793       0.04261349      -0.16181858      -1.79668075       1.21410326      -0.19584579
I        9.64469333       4.71813230      11.75572939       0.11402441       0.03255168      -0.03157536      -0.08990304      -0.96811438       2.42258070
I       17.27879700      -0.27427183       5.37431045      -0.12949634       0.07745837      -0.09515553      -2.27087044       0.51177092       2.13958597
I       10.23340577       6.13043221       5.36566892       0.08537636       0.01072330       0.09670982      -0.52534552       1.28197040       1.07141544
I        3.41921795       5.22958897       5.34498239      -0.02184917       0.12795858       0.07469505      -2.10087817      -0.65917578       1.89434813
I        9.36684709      11.50227040       5.22993020       0.20262843      -0.04379278      -0.41391389       0.86029444      -1.20663470      -2.32735322
I       17.17199857       5.94841704      11.39331226       0.01562823      -0.00880517       0.71505027       0.30828413       0.35175926       4.57807028
I       10.59017483      -0.65611434      11.65323511       0.05475049       0.18222858       0.03602466       2.72101564       1.27887277      -2.08791241
Cs      13.87228105       8.21223248      18.38667147       0.00857382       0.23647603      -0.11603546      -1.70707602      -1.27659473       0.40382099
Cs       7.21813629       1.90779167      17.73814474       0.07683257       0.24200825       0.20116249       0.32645474      -1.86056852      -1.09637661
Cs       6.50574859       2.66801826      24.44047354       0.11542440      -0.02632585      -0.02496980      -0.10583870      -1.55172181      -3.14917705
Cs      13.52026573       8.68367460      24.68252968      -0.11786613       0.01325069      -0.19336394       0.54616994       0.92882512      -0.10107216
Cs      13.21235067       2.45037766      23.91823057       0.00543395      -0.04198694       0.20609550       2.37555693       0.92700651      -0.81944885
Cs       6.79040280       9.07359179      23.82850964       0.03622095      -0.06727663       0.13656062       1.79248955       1.10791386       2.28778050
Cs       7.41566074       8.60572352      17.85701264      -0.09890350       0.02918676      -0.05465319       1.78983874      -0.49882373       0.62008167
Cs      13.71990711       2.42687430      18.06147416       0.14055165      -0.23636672       0.01355008       4.04363150       0.19300702       1.77258938
Pb       3.99306484      24.63463454      21.11244618      -0.18472950      -0.23619689       0.63787878       2.33052289       2.19834103       4.68329175
Pb      10.33362918       5.63021746      21.03856715      -0.22400084       0.05177670       0.38497051       1.28495981      -3.83455226      -0.47210809
Pb       3.97547281       5.40587480      20.95829836      -0.09867739       0.16162632       0.25928845       1.45165155      -2.22028021       0.06508999
Pb      10.27092512      24.58390089      21.44004013      -0.17790247       0.16108178       0.04656411      -0.15599360       0.30637244      -1.36236396
Pb       4.02437891      24.75064575      14.88960141      -0.04209293      -0.32596373       0.08748092      -0.90800676       2.85840492       0.07624064
Pb      10.44172362       5.61267927      14.89458402      -0.40831236       0.02500451      -0.23575546      -3.16232981       2.58845019       1.91247646
Pb       4.15770821       5.71181673      14.74154042       0.09455429       0.08996785      -0.04181010       3.27280805       0.04647752       2.48315689
Pb      10.42519173      24.68686508      15.28076101       0.09574149      -0.31013112      -0.04988420       0.32531670       0.66772076       0.28716711
I        3.44846124       2.33672899      21.76137544      -0.03697077       0.26723297      -0.17344820       0.55635382      -0.09517556       2.07804928
I        9.90378615       8.93997472      21.50187837       0.20775058      -0.14274917       0.04681787      -2.59216384       1.67393035      -1.44005167
I       17.35974679       8.68695350      20.20670706      -0.08234708       0.15650513       0.26789777      -0.50964400      -2.53918021       2.18414178
I       10.61697917       2.59860838      20.56620101       0.01966752      -0.32404972      -0.01755480       0.84183056       1.00176358      -1.22914669
I       13.65542113       6.06784649      21.05478023      -0.25140469       0.14870909       0.22592049      -3.99972148       0.42478359      -2.62818835
I        7.36193403      12.22205734      21.79564137       0.09586054       0.14123466      -0.02942406       1.17525439       0.84934641       2.98467476
I        7.15849953       5.28493368      20.76376286       0.00273402      -0.19221151      -0.14190161       0.90328761      -0.47364583       0.95615458
I       13.24080021      24.30644742      21.20842623       0.12423153      -0.08934846      -0.13171231      -0.34901368       0.02808800       0.35198248
I       17.22266574       8.81061351      14.93728181       0.07609418      -0.36794685       0.13299367      -5.12790785      -0.57511823       1.59062704
I       10.86417029       2.44767369      15.38223652      -0.02540997      -0.11072536       0.04162195      -1.98370413       0.69639235       3.33307904
I        2.97894169       2.57701761       1.58044182       0.14941752      -0.02722675       0.07049577       2.49871185      -2.83638611      -1.84673939
I        9.69357890       8.80221985       1.43153674      -0.25274330      -0.01425549      -0.14913576      -0.91259269      -0.17783600       0.36081671
I        7.08339012       4.90282052       2.61734828      -0.49697321       0.18328236      -0.09353270      -1.82888575       0.02920742      -0.27368220
I       13.23828921      24.24385448       2.86457078       0.14207754      -0.03066709      -0.03956662      -0.87147154       1.43151106      -0.38634806
I       13.47848228       6.00462108      14.34774655       0.07670697       0.01717724      -0.00346837       1.22914758      -2.30832849      -1.42832056
I        7.31227503      12.33233752      14.33855811      -0.54786458       0.12456363      -0.05383104      -2.47482782       1.85718478       0.76851897
I        3.54418140      11.24397712      24.30650728       0.01724080       0.01090984      -0.07011022       1.83588083       2.23220605      -0.07143513
I       10.16107306       4.79243959      24.25501315      -0.08686983       0.09410160       0.02789243      -0.31961394      -0.77585551       0.19271759
I       17.22624740      -0.17787706      17.90610742      -0.31002031       0.01038566       0.27364534       0.38249926       0.90843976       2.08941337
I       10.48517732       6.19696869      17.98648018       0.19402790       0.07366897      -0.10094775       0.72476203       1.40225924       0.95325606
I        3.46960465       5.17997407      17.73156959      -0.00900588      -0.19520650       0.59189110       0.46609136      -0.86629198      -1.53964576
I        9.95638901      11.50565385      17.87109438       0.04572409       0.07088079       0.48816128       4.69982167      -2.38661393       2.68402353
I       16.94891323       5.91834967      24.47137639      -0.01895853      -0.00671765      -0.38424041      -0.02692464      -1.31160023       1.12592901
I       10.29030830      -0.53307369      24.40670288       0.10914326       0.08493415      -0.10009868      -1.79584992      -1.34231631      -1.42464055
Cs      13.32304690      21.15496336       5.19326297      -0.00670166      -0.10303176      -0.00856823      -1.25528649      -1.39972093      -3.17983891
Cs       7.91765908      14.91055638       5.30046287      -0.08787714      -0.05004490      -0.03299879      -2.50125185       0.38237943      -1.93677481
Cs       6.65673384      15.18245055      11.09429055       0.06585335      -0.07003591       0.29357086      -0.00460594      -1.12749644       0.77845573
Cs      12.90548892      21.56329110      11.95594473      -0.00190868       0.04336413      -0.02094047       2.03295190       0.90885238      -0.48804050
Cs      13.08297160      15.71536364      11.95930728       0.10148856      -0.07093413      -0.12252011       3.07776691       1.10634963      -0.63027951
Cs       6.89196767      22.13942408      12.26683875       0.10772747      -0.07943629      -0.10526638      -0.28339063      -0.16023257       2.43682387
Cs       7.41695623      20.77075577       5.45431946      -0.05538937       0.07971317      -0.07434264       1.74581466       0.53353809      -0.20433166
Cs      13.54320898      14.70744741       4.89900750       0.08839430      -0.06495804       0.05282203       3.34124672       4.58479645       0.50405011
Pb       3.94423276      12.08278032       8.13421923       0.36324541      -0.18682368       0.48519978       1.98675906      -2.12990941       2.91957666
Pb      10.19266321      18.18568485       8.50879681       0.22524285       0.04859895       0.29292990      -0.86691596       2.71822985      -2.75267321
Pb       3.88456143      18.31435676       8.55302104       0.10917499       0.03461553       0.17850781      -0.67669318      -1.18311997      -0.42145506
Pb      10.34274046      11.87625965       8.14914581      -0.05510190       0.11666350       0.52574587      -2.72028396      -2.03706763      -2.87610262
Pb       3.91931359      12.14436981       1.92256198       0.20629399       0.15366183      -0.17979448      -3.81756963      -2.82725610       1.12521714
Pb      10.10254046      18.35914674       2.00869362      -0.23257973      -0.21367770       0.35126759      -1.19084670       2.39117395       1.64753869
Pb       3.83094726      18.48660331       2.13872585       0.08269641      -0.34100624      -0.01878710      -0.74886853       2.58261701      -0.53215563
Pb      10.28769032      11.84282197       1.79996251       0.09809165       0.28870235       0.35925983       1.14826835      -1.06415443       0.57466535
I        3.45025992      15.13537320       8.93175624      -0.04678910      -0.04117437      -0.02190741       1.74707825      -1.12698618       0.62271178
I        9.76709140      21.39745364       9.20248198      -0.11332051       0.10034128      -0.04854985      -1.59742113      -0.64383478       0.64148742
I       16.83601572      21.50801875       8.28121344       0.15460141      -0.13721229      -0.04471600      -1.65241730       0.92693226      -0.54956484
I       11.25567119      15.14136660       8.34998057      -0.07229659      -0.02173990      -0.12931146      -2.59186711      -0.51384441      -0.88746034
I       13.57583612      19.11970556       9.03133852      -0.25431161      -0.14348325       0.06540409       1.90948068      -1.09558085      -1.06542357
I        7.03487678      -0.20252324       8.66785238       0.12736987       0.00302212       0.07185246       1.75101481      -1.12461946       0.11075839
I        7.28004529      17.27426936       8.10246192      -0.32778833       0.15167685       0.03480596       1.46841925       0.40115155      -0.79015295
I       13.45429571      11.61955549       7.66996952       0.28685016      -0.19961010      -0.03969185       1.38093156      -0.75131030       1.15189050
I       17.18159557      21.47174139       2.34163188      -0.11366112      -0.00862909       0.09434649       0.33526438       2.36074206      -0.17849238
I       10.63348517      14.81926639       2.44561120       0.03180512       0.64688112      -0.03004188       2.57805521      -0.94401627       1.11935126
I        3.22317465      15.21735284      14.42311794       0.05779718       0.03573833      -0.12461891      -1.02626216       0.79964061       2.29725435
I        9.71810965      21.46227650      14.84573235       0.02987922       0.07491432      -0.01221711       0.77446193       0.89793440      -0.85623248
I        7.26107734      17.65815690      15.51190212      -0.29505501      -0.03041350       0.11558517      -2.76545924       0.10499094       1.48359151
I       13.38972403      11.08048368      15.36662221       0.30767633      -0.02533715       0.02255490       3.05835040       0.80530639       0.62931982
I       13.19286937      18.82883277       2.44965378       0.33819684       0.04982064      -0.30081199      -3.83257351       0.86886507      -0.22965447
I        6.79811545       0.03938624       1.68324287       0.01856765       0.02594107       0.03990532       3.53154693      -1.49618889       0.65956735
I        3.39030336      24.21545222      11.76715929       0.15674458       0.09656167       0.21310453      -0.47650895      -1.16982679       1.67381957
I        9.67301440      17.84976882      11.93032986       0.07215935       0.01100873      -0.17949173       1.40542590      -2.66953988       0.58736472
I       17.09016814      12.29150212       5.38078575       0.03519865       0.18063258      -0.10302187       2.83588866      -0.96750884       0.73390907
I       10.23520173      18.46781956       5.49164099       0.14674151      -0.04010693      -0.06476374       4.25744306       0.68069684       0.33107599
I        3.32479096      17.87228614       5.43584702       0.04029875       0.01396938      -0.03076426      -2.35875157       2.51820542      -0.47635146
I        9.74492004      24.27110627       5.54785819      -0.17316303       0.04769709       0.19104852       1.52815791       1.21043550      -2.18395029
I       17.54447898      18.65741023      11.84953254      -0.18323410      -0.10955649       0.04828661      -2.26399632      -1.33786288      -0.16045341
I       10.97413168      12.26352843      11.59416521      -0.01679154      -0.06090842      -0.26395000      -1.42752512       1.83960231      -0.16786639
Cs      13.42244178      21.04954400      18.64889964       0.15216506       0.15720679      -0.10776238       3.02608920      -2.10176875      -0.37248907
Cs       7.59116802      14.69422276      18.41568180       0.00918422       0.08698930      -0.14756571       1.93225512      -2.79007195       0.09652577
Cs       6.73787370      15.53114459      24.18960720       0.00976968      -0.02244384       0.10594403      -2.14841381       0.12431648       4.16931775
Cs      12.93401994      21.73303046      25.13655202       0.02003451       0.04597774       0.04005591      -0.26315763      -2.90256584       0.55951936
Cs      13.54295407      15.86906859      24.20256829       0.01090495      -0.04630064       0.08764580      -0.45987057      -1.59429591      -1.67300654
Cs       6.78133626      22.37763570      24.87021618       0.04433610      -0.06943042      -0.01293342       0.14263514      -2.47994187      -5.46943402
Cs       7.01657487      21.11172473      18.48041439       0.03780595      -0.10057638      -0.21958411       2.88768295       0.08150591       1.99202504
Cs      13.56989057      14.36527459      18.09213194      -0.09013951      -0.05445226      -0.16952113      -0.67699569       2.11212371       0.19817682
Pb       4.34584194      11.90529501      21.06442190      -0.42501203      -0.21308424       0.06013994      -0.83550787      -4.67375877       0.44414530
Pb      10.29202013      18.49809689      21.27423819       0.08460304       0.04562895      -0.03837486      -0.17098088      -2.52716005      -1.48280992
Pb       3.83443083      18.27522134      21.31590236       0.04446318       0.20497312      -0.09986803       1.25086613      -1.65694126       2.80576619
Pb      10.68346310      12.06946730      21.20149504      -0.15029863      -0.34727184      -0.21874696       0.90024989      -0.95083373       0.47409811
Pb       3.85345347      12.05882232      14.72686527       0.27735005       0.10314264      -0.15098936      -0.77954295       2.04155619       0.77534211
Pb      10.20042968      18.17438475      14.89873214      -0.08009260       0.09103032       0.09452588      -1.00915713      -1.56664866      -2.37728554
Pb       4.06538771      18.06233338      14.85359975       0.03881327       0.26213565       0.07378877       2.84394488      -1.40809392       0.43791137
Pb      10.28478328      11.76710042      14.68019612      -0.02028208       0.12266430      -0.16337176       1.25992623      -3.16599184      -0.35277891
I        4.00991385      15.06449076      21.95787475      -0.18187588       0.10110268      -0.07852084      -1.51301931       1.87692854       0.14124179
I        9.65776735      21.60630316      22.30710381       0.05232867      -0.14637797      -0.12348506      -2.99966103       0.06132193      -0.37571012
I       17.31022266      21.44216815      20.68967025      -0.14416290       0.01650906       0.14237497       0.77888929       0.81909798       2.24667060
I       10.87532476      15.23822365      20.93153302       0.01420359       0.22763368      -0.02342540       0.11256216       1.84026757      -0.40841406
I       13.56643772      19.26008256      22.08398776      -0.13178242      -0.10935373      -0.03994107       1.06633092       1.67485540      -2.31949473
I        6.79993711      -0.20115789      21.65380283       0.27743926       0.00501749      -0.02436479       0.07753295       1.34837645       0.03728712
I        7.22054967      18.01980559      20.88387020      -0.06198713      -0.07159661       0.01392958      -0.43279753      -2.42729081       0.97762079
I       13.80538250      11.79740124      20.58472907      -0.33898386      -0.20270697       0.03088882       0.56342127      -0.71192014      -1.12897080
I       16.99668162      21.45958601      15.37393285       0.02354875      -0.19217114       0.22961788       2.11155395      -3.93061050      -0.55732036
I       10.59141570      15.00160487      15.26505849       0.20123005       0.05746174       0.12354177       2.81001752       0.02060465      -0.33280298
I        3.28720565      15.32841433       1.33426938      -0.00638478      -0.04649863       0.09192082       3.07108242       0.11537742       0.50888226
I        9.42866869      21.60407611       2.46895449      -0.00199987      -0.31252967      -0.16761003       1.09087509       0.17865955       1.21708620
I        6.97265000      17.36188947       2.37162080      -0.18855726       0.17867785       0.05698284      -1.04586990      -2.17601237      -0.54400766
I       13.61360131      11.31053385       2.41236261      -0.25062723       0.00507500       0.07497076      -0.76859890       0.06842334      -0.12307399
I       13.38484782      18.77494109      14.30916982       0.02914254      -0.03995074       0.07172920       0.42471595      -2.77140399      -0.34605349
I        7.04037846      -0.16775456      14.41856026      -0.12948169       0.00953646      -0.00640103       3.10680715      -3.08425741       2.33702192
I        3.38995582      24.16595425      24.58188540      -0.00164616       0.03663707      -0.14884556       0.45163957       0.01460288      -0.33635532
I        9.96926802      17.81674374      24.51732463       0.04626047      -0.05314958      -0.04108517       0.51881306      -1.93341045      -0.38994199
I       16.69549413      11.98438607      17.94907826       0.30866513       0.17653975       0.23240269       0.71714337      -1.44651767      -0.86155811
I       10.44965652      18.99274655      18.34000445       0.04338074      -0.07017980      -0.15433921      -1.56752541      -1.53106762      -0.90137898
I        3.56096681      17.70322398      18.08857424      -0.01262277      -0.00323282       0.22183059       1.31607581      -1.04424262      -0.90843243
I        9.39125876      24.04668235      18.37623100       0.09261517       0.06537787      -0.11751871       1.65209127       2.85784205      -0.37789882
I       17.17368103      18.32530368      24.44690371      -0.04203857      -0.10446184       0.35135531      -2.54337620       1.74398213       0.74352579
I       11.45564960      12.37900696      24.23747097      -0.00210784      -0.11446588       0.09923741       0.24895262      -3.42471978      -0.84389183
Cs       0.93686615       8.87271021       5.36379428       0.12527737      -0.29427458       0.09567406      -2.00641224      -1.88132746      -0.20597753
Cs      20.50106799       2.50088401       5.35767794      -0.11274940      -0.06287992      -0.12298550      -1.15689481       0.68297034      -1.79456127
Cs      19.09117082       2.23780888      11.85463757       0.00681993       0.05168386      -0.07740442       0.26681955      -0.52170996      -2.09185074
Cs       0.30022320       9.27290093      11.85601637       0.15886425       0.09310062       0.07494482      -0.26638855      -2.73604129      -1.04480198
Cs       0.51324865       2.85178895      11.93765191      -0.13727289      -0.07744551      -0.09418348       0.50541268       1.72667609      -1.97354757
Cs      19.24006288       9.41689705      11.54822686       0.05174571      -0.09738499       0.03873279      -1.33921174       2.38453047      -1.02968560
Cs      20.27730164       8.19699889       5.14497744      -0.08435886       0.04225912      -0.01938555       2.21204797       3.85229697      -0.40634575
Cs       0.81832219       2.06939293       5.85754364      -0.03730863       0.04408198      -0.07666555      -0.04415173      -2.52616619      -0.33754210
Pb      16.45595782      24.57273851       8.77386283       0.13570478       0.09246114       0.10304702       3.84154617      -2.12085085      -3.14890629
Pb      22.88563236       5.78729991       8.63960062       0.35095614      -0.49583928      -0.19723320      -0.86213687       1.68944837      -0.40042845
Pb      16.68926970       5.55918172       8.50423092      -0.01820006       0.05670156      -0.12450949      -3.71233321      -1.54467329       2.06998223
Pb      22.82178366      24.55435805       8.44072513       0.17719261       0.16844537       0.17899420      -0.57221860      -0.41136882      -1.58743337
Pb      16.64219996      24.76083740       2.73885595      -0.03769941      -0.05897549      -0.32496285       2.49152413      -1.25193648      -2.83799670
Pb      22.95350964       5.53675557       2.09172208      -0.09937677      -0.09556842      -0.15481473      -1.78595090       2.83541008      -1.70396752
Pb      16.44741905       5.56935480       2.16371643      -0.15011053       0.08898435       0.14674465      -1.03336210      -0.54794768      -2.20946647
Pb      22.66175101      24.58638024       2.17870227      -0.19832308       0.11054559       0.32040252      -1.02212612      -0.77686081      -3.79526012
I       15.85099111       2.35740125       8.94433247      -0.00405872       0.17580696      -0.08092451      -2.13331888      -1.42674222      -0.15537302
I       22.43147571       8.77932578       9.21560838      -0.06780217      -0.08685927      -0.03325696       1.02107636      -0.41408615       1.33416169
I        4.46932226       8.72727433       8.09122398      -0.05840005       0.02115809       0.01789595       1.14617335      -0.66411624       2.00316121
I       23.25990400       2.52227288       8.10387742       0.02359715      -0.17808331       0.01115484      -0.21465738      -0.90269126      -1.08933669
I        0.91105222       6.21828116       9.54206947      -0.35548055      -0.08525216      -0.17180367      -0.29235320       2.05621829      -0.77991803
I       19.88911640      12.44764395       8.56914462      -0.14016073       0.04017671       0.12844669      -0.20860375      -2.14665013      -0.64903674
I       19.69797043       4.94262501       8.03928302       0.27375532       0.12684726      -0.01176400       2.25558662      -0.66652323      -1.10218434
I        0.59254835      24.00522689       8.37925745       0.36588936       0.09680189       0.02200602       0.13702870      -0.28093097       2.81400145
I        3.97928861       8.98224419       2.58517544       0.10760421      -0.23570330      -0.04849905       0.67634030       0.17052104      -2.07955281
I       23.27625663       2.44909347       3.05853652       0.01871198      -0.12039084      -0.25930297      -0.26173991      -0.06022349      -1.73550951
I       16.32527695       2.36101062      14.17716552      -0.21116174       0.34576560      -0.00606446      -0.17776338      -0.06203953       2.12856071
I       22.50711012       8.62662382      14.10290508      -0.06758966       0.09382882       0.01789746       1.61189508       0.82590151       1.12870769
I       19.91454589       4.92462882      15.13015237      -0.18430250       0.06953408       0.02289819       1.64683976       3.33572485      -5.30046336
I        0.76068379      24.14894872      15.61360335       0.32747001       0.00901322      -0.09727503      -2.19680062       2.13378117       0.22182969