320
Lattice="25.356093371687486 -0.1065490082268892 -0.19187677835240669 0.07755788227136919 25.376386568457004 0.27590338859444424 0.1691801122122475 -0.29781874292918886 25.404906270035514" Properties=species:S:1:pos:R:3:forces:R:3:momenta:R:3 energy=-959.281859067427 stress="0.0 0.0 0.0 0.0 0.0 0.0 0.0 0.0 0.0" pbc="T T T"
Cs      14.28071893       9.16885360       5.75966772      -0.10073682      -0.48372530      -0.02441380       0.60542693      -1.30780337       1.52732438
Cs       7.99288544       2.27057008       6.13373031      -0.14741620       0.26113253      -0.09002301       0.31129653       0.67578142       0.00113704
Cs       6.63168876       3.44541679      12.19458834       0.04109061      -0.03881813       0.07146093       3.69218914       2.11169020       1.73025613
Cs      13.05000133       9.73296827      11.58328420      -0.22394483       0.04773144       0.13430315      -0.37725546      -0.39215041      -1.45662216
Cs      13.67629518       3.48156843      11.51423492      -0.01796377      -0.15164539       0.11348426      -1.42455291       1.26056302      -3.31178213
Cs       6.30003987       9.47849977      11.62355810       0.17219499       0.09798368       0.12607115       4.71758928       1.91440723       1.35860792
Cs       7.58299507       8.57445373       5.96464392      -0.34909840      -0.16394119      -0.11492675       3.34949341      -0.51332156       0.62758728
Cs      13.11606457       2.52473970       5.26637420       0.07746437      -0.06881579      -0.02831252       1.73475995      -0.07178806      -3.30331447
Pb       3.78740439      24.92765357       9.15760319       0.30674587       0.28217068      -0.20900825      -1.21016236      -1.04826681       5.77608278
Pb      10.09940337       5.74413121       9.01466199       0.15667150       0.23848103      -0.06782161       2.22579419       0.36354559       2.54249784
Pb       3.71863701       6.26912500       9.04868532      -0.05071161      -0.90747008       0.00937663      -2.81220414       4.32575608       4.48414574
Pb       9.97064016      24.66333564       9.53717044       0.08602613       0.90562067       0.09576846       2.18046045      -1.44395602      -1.72508930
Pb       3.92070867      25.03972077       2.64404804      -0.11536316       0.12139816       0.37441997       0.09626606      -3.02759126     -10.91076194
Pb      10.13197151       5.91707092       2.31705759      -0.52117800       0.38719876       0.73011520       4.07598384       0.78741061       5.03839388
Pb       3.70447783       6.28948326       2.58097353       0.29590730      -0.35229666      -0.08734150       4.38439898       3.14854588       5.23211656
Pb      10.55029332      24.80203437       2.69321691      -0.11794974       0.22485722      -0.62666839      -2.67755763      -1.47348185       8.33186174
I        3.54750740       2.75927987      10.14514779      -0.08987440       0.41721023      -0.28055821       3.56097392       2.44172691       2.10266207
I       10.47708784       9.56988413       9.87293810      -0.24892446      -0.40528702      -0.06738232      -0.51011502       5.59703622      -3.42422224
I       16.97198072       9.11769475       8.94722773      -0.02748000       0.43472866      -0.11597648      -1.97450510      -2.32457717      -4.64319352
I       11.00589690       2.84403785       8.83064162      -0.11697205      -0.25418433      -0.07454347      -0.38853117       3.85453396       4.78725916
I       13.58753166       5.93866488       9.67773327      -0.24605719       0.22696337      -0.09219403      -3.21150809       0.71080075      -0.03316359
I        6.82986338      13.03840386       9.64702973       0.11589053      -0.01370959      -0.25468276       1.02390642      -0.77407096       4.49319013
I        7.05406006       5.65556642       8.43750920       0.08808684       0.03185639       0.01611948      -2.23063959       2.07003170      -0.22324327
I       13.20599309      24.22339683       8.62743178       0.38217977       0.07338324       0.04261075       1.97507290      -1.91821890       0.68574466
I       17.43805891       8.92773426       2.78272790      -0.03338619       0.28066384       0.04358951      -2.75633331       4.16122674       1.17271541
I        9.62825327       2.73871836       2.92234918       0.54494951      -0.15061533       0.05804366      -0.31503075      -0.81718460       0.32160584
I        2.82710140       2.82213149      14.90991803       0.32652891      -0.22806406       0.12882774      -4.88957824      -2.13246583       0.12066220
I        8.86194977       9.37579608      15.12248131       0.32037184       0.06571948      -0.34382434      -1.79146641      -2.24523996       3.96635148
I        7.54518432       5.63610118      14.64348877      -0.82901331      -0.09802459       0.29789281      -3.28578176       1.05985139       1.29714960
I       13.18271598      24.31624862      15.63428899       0.60653998      -0.09241395       0.15531627      -3.20443577       0.03205295       1.16191828
I       13.39244557       6.60675498       2.68025012      -0.15963824      -0.11360566      -0.11975320       3.12695488      -1.68231200      -3.32026202
I        7.14639307      13.58133083       2.16759144      -0.14984467      -0.25029093       0.05624513      -2.97562844       1.47873409       4.88757815
I        2.85642453      12.39650524      11.86472988       0.19845730      -0.04895348       0.06852634       3.94967975       2.09352964       2.51668199
I       10.16484167       5.25435696      12.01600265      -0.06773795       0.05728942       0.28047504      -0.83785395       3.48985491      -1.42965800
I       16.85400352       0.15553337       5.26238348       0.04028239       0.11407514       0.11679994       1.20717560      -1.38592366      -6.75319193
I       10.55000513       6.45336957       6.04973838       0.16368361       0.03865861      -0.96179652      -0.67809280       1.26667828       0.20097512
I        2.90948916       5.64722274       5.87524776       0.20297916       0.20146286      -0.33898391       3.75445690       4.51359554      -0.28608848
I        9.41104084      11.45212454       5.70097325       0.10410642       0.27851493      -0.22027630       1.65190014       3.57947556      -3.46729034
I       17.64336747       6.08543550      11.85645469      -0.06243929      -0.15118931       0.00397307      -2.48202690      -0.33307181      -2.41153392
I       11.15748102       0.12585132      12.01292233      -0.25815240      -0.11676236       0.28359311      -3.57584728      -1.31236740      -2.15477632
Cs      14.28116016       8.98415873      18.08462718      -0.05985676      -0.15253927      -0.11409288      -2.94552105       3.81901614       2.26704326
Cs       7.58573525       3.51497597      18.42866901      -0.17447616      -0.15887513       0.00571712       2.07968078       4.19646706       2.50084525
Cs       6.57779548       2.79699284      24.89855420       0.03564461       0.10715180       0.12848420       0.61854581       2.35371099      -3.20785124
Cs      12.57252186       8.51242213      24.76409470       0.03658142       0.18997219      -0.03544092       2.09008554       3.22039796      -1.98449255
Cs      13.82482974       4.11001872      24.53282307      -0.28283645      -0.22534741       0.01544771       2.67708788       2.00896561       2.49250066
Cs       6.57163207      10.29769168      24.46291787       0.07009476      -0.16790809       0.02920977       0.41656610       3.23982924      -0.97761928
Cs       7.20794376       9.41561906      18.14587477       0.09192795      -0.22352565      -0.07804936      -1.47471140       1.84277020      -2.87954495
Cs      13.64472047       2.34107819      17.80091990       0.20790467      -0.04409857       0.08957855       4.83872335       0.63499641       2.22118436
Pb       4.00663599      24.84674028      21.67015883      -0.04742293       0.20226157      -0.12683813      -2.50245281      -2.97541901       0.32461758
Pb      10.40695349       6.13236722      21.45693626       0.02066960      -0.40568791      -0.24700318      -3.34479905       1.03276455       1.40763605
Pb       4.12214107       6.23887235      21.71162536      -0.23356579      -0.54530530       0.17533087       4.66945557      -0.49663386      -5.45261516
Pb      10.31821211      25.10547141      21.59641352       0.40472967       0.38353108       0.38126006      -1.45556419       0.75270051      -1.26647648
Pb       3.95071317      24.57550948      15.46253935       0.10702966       1.03274070      -0.04519489       1.73600966       1.78600363      -2.60619319
Pb      10.72952351       6.16375733      15.17774624      -0.16627970       0.47729941      -0.39791712      -2.63753456      -5.20845229      -0.70267687
Pb       3.96077031       5.75010389      15.40319640       0.09404814      -0.27030059      -0.26748453       4.05464283      -1.04226331       4.22812651
Pb      10.09039119      25.31669423      15.88729303       0.27939159      -0.02785678      -0.70588126       2.64808291      -0.57802228       3.38299887
I        3.87197841       2.84308559      21.84191016      -0.10351510       0.03579435       0.02719287      -0.52655093       0.87188547       2.04793707
I        9.48129126       8.93886695      21.99076038       0.07034204       0.44621154       0.10527139      -6.32318835      -0.80501127      -1.78117339
I       16.64313931       8.95420749      20.74487550       0.30884819      -0.00851061      -0.09666673       0.46543663      -1.19882066       2.17057775
I       11.10703964       2.92998583      20.35952339      -0.27523170      -0.09667534       0.18952991      -0.47103875      -2.95409025      -3.63181017
I       13.55598369       6.36754443      21.71607436       0.06026728       0.08911933      -0.08379399       0.70988394       1.63753751      -4.71425965
I        6.86078925      12.68160209      21.83362462      -0.32451262      -0.12766972      -0.19980895       0.37336928       3.77875766      -0.68955256
I        7.21525690       6.06520013      21.48993273       0.11545636      -0.20047554      -0.12552432      -0.71023803      -2.28200978       0.49984554
I       13.64002825      24.68503041      19.74427626      -0.09136729      -0.22997932       0.32220469       1.53298135      -4.10775707       1.65402173
I       17.36640828       9.08631292      15.07812811      -0.00618045      -0.31534322       0.04115351      -2.31444607      -0.85212444      -1.02376665
I       10.80745442       2.93629853      15.67925314       0.02419993       0.34353578       0.06561853      -2.03040584       1.83929563       2.35029903
I        3.78393934       2.86954934       1.67968589      -0.31087894       0.13339368       0.00890034       0.41172308      -1.48246205       1.00254891
I        9.38359883       8.95663542       1.37530460       0.10322343       0.70122561       0.32603212      -1.19306407       2.08060359       1.31428258
I        6.75382592       5.22719321       3.20362153       0.35539754       0.16774842      -0.02438769       3.73883569      -2.88467430      -3.30766089
I       13.55913307      24.33793507       3.04927895       0.18370679       0.12251254      -0.02014550      -1.64154314       3.96980920       3.15624378
I       13.69949438       6.95890749      14.07326887       0.05358700      -0.18294482       0.25898620       3.31886146       0.79359607       4.08874470
I        6.81829635      13.48317856      14.47798069       0.01071835      -0.25544307       0.06699506       1.16382151      -1.04050006       2.43150749
I        3.33839920      12.29046285      24.41053418      -0.25295593      -0.16661023      -0.06268537      -0.36363635      -0.67763161       1.10068087
I       10.03951440       5.32553887      24.70885431       0.04368396      -0.06657786      -0.02111235       0.52568786      -0.28976364       1.29165026
I       16.79247463      -0.03520161      17.95386045       0.18574072       0.03774337       0.31485778      -4.37346835      -1.69128906       0.96151622
I       10.23498841       7.17850800      18.22415097       0.28961272      -0.11534243       0.34194741       3.23491104       0.75456577      -5.61201652
I        4.57335028       5.14552902      18.44575021      -0.33564467       0.07976846      -0.19984661       0.50183830      -0.08687907      -5.08357800
I        9.84351921      11.83203338      18.33550152      -0.18636559       0.53887985       0.05972432       1.35712419       1.30061057       4.72306569
I       16.22385911       6.53691065      24.55674887       0.28131034       0.08528722       0.06282984       1.02187035      -1.97378257       6.52092515
I       11.48601008       0.35425832      24.50946251      -0.10734079      -0.16063388       0.09582724      -1.96193902      -4.01164070       2.68969070
Cs      13.87947372      21.71530646       5.70910840       0.11120081      -0.12970308      -0.01512220      -1.15777112      -3.14712966      -1.70728574
Cs       6.62455279      14.66692911       5.13196368       0.25112154       0.22805523       0.01322044       0.01886532      -0.04205480      -0.91998894
Cs       6.05062350      16.02870894      11.84692316       0.15230741       0.01033828      -0.01685091      -2.46899874       0.35935646       0.73224549
Cs      13.64445664      22.75877350      11.37451149      -0.11661054      -0.09921148       0.18325901       1.76962964       2.98547309       0.30945896
Cs      13.18059376      16.64731702      11.27015788      -0.06884093      -0.03983601       0.22315972       2.42952756      -2.71864260       2.08243361
Cs       7.46972555      22.60755186      12.46891206      -0.03931359      -0.09055232       0.01340018      -2.32852422      -0.19772609      -4.91574643
Cs       7.46254849      22.14223782       4.69890939       0.14610530      -0.17494734       0.27397089      -3.54806352       0.83237180      -8.50846770
Cs      13.55354459      14.56216295       5.71644371       0.08592325       0.28357915      -0.24908539       2.31930801       1.43421336      -0.47689677
Pb       3.76915337      12.85067609       8.68964777       0.02447758      -0.03582615       0.23595067       0.90370517      -1.13074830      -1.52406503
Pb       9.85537003      18.86604619       8.28179329      -0.40764079      -0.74384757       0.00073341       3.48871123       1.60217624      -1.91930541
Pb       3.68919046      18.82228197       8.60013182       0.56342863       0.49797295       0.29847171      -1.39340233      -4.17717057       0.33447622
Pb      10.10129281      12.58496061       8.66818013      -0.07371277       0.07535092       0.47177025       0.32356970      -3.61580708      -1.12472501
Pb       3.64307906      12.60744088       2.06190477       0.01830577      -0.36733923       0.12264743       4.66874610      -4.59703410      -4.91209145
Pb      10.34657293      18.77686229       2.26815593      -0.28170537      -0.18163399      -0.07711107      -2.01642825       4.47064218      -0.04774459
Pb       3.90845363      18.63724490       2.53597270       0.13180810       0.37943196       0.11195756      -1.02229589      -0.94044612       0.02104781
Pb      10.40176945      12.38450605       2.46095318      -0.52061107      -0.38098588       0.06114920       0.41120594       1.52774053      -3.45447463
I        2.86132489      15.99208479       9.10024139       0.10111230      -0.74722513       0.09986250       2.46753612       0.14511266       4.58108758
I        9.49283222      21.75028641       9.11447563      -0.17130473       0.51788685       0.16666737       1.15935637       1.07329095      -4.95864043
I       17.46304926      21.83494565       8.39385622      -0.17319122      -0.08393893      -0.06332580       3.90537930      -0.91216308      -1.07222016
I       10.72341313      15.82590272       7.45889415      -0.16191595      -0.22660873       0.25517468      -2.69048016       1.06175761      -3.62538181
I       13.03972876      19.33975943       8.90543768       0.06362848       0.09734455       0.08514174       1.25511276      -3.66028571      -0.42389107
I        6.83987729       0.83505883       9.75254196       0.41722064      -0.44051327      -0.30477462      -0.42092673       3.75188784       1.28782710
I        6.64354211      17.88229593       7.48967187       0.64248514       0.09849796       0.04421525      -3.54529387       0.14659306      -1.20845812
I       13.14073075      11.84165062       7.82609587       0.33907811       0.23488827       0.25732733      -0.44663585       2.23991886      -2.90430248
I       17.05628857      21.68114019       2.90550806       0.03364901      -0.22360514       0.03993886      -0.09986706       1.74085353      -0.87052875
I       10.59550469      15.56154071       2.93248056       0.17723343      -0.44811548       0.09380560      -0.39599982       4.31700900      -1.97559374
I        3.12808624      15.70499461      15.25762955       0.03991490      -0.34321589      -0.19357744      -1.76135291      -1.47726913      -1.09527504
I       10.12722821      22.31339364      15.64860148      -0.18661161      -0.64612444      -0.36078886       0.51572096       5.21875849       1.21334891
I        6.93160193      18.86089679      15.00216683       0.26622924      -0.23590033       0.22121157       1.45333557      -0.31619021       4.58612629
I       13.24674233      11.78374031      15.58492996      -0.01964097       0.03435984      -0.05538424       1.12737261      -3.30098807      -1.44506819
I       13.55093205      18.74135408       1.03840512      -0.25625321       0.17904861       0.17500509      -2.17359275       1.97111306      -0.99811258
I        7.09604083      -0.32942722       2.10958036      -0.14043181      -0.05596429      -0.06720029       1.12855843      -0.09927476      -0.43201612
I        3.96908684      24.20527427      12.35852283      -0.16706901      -0.16277920      -0.18291675       2.68446692      -4.45445410      -1.58856571
I        9.29976385      18.60924104      11.49705459       0.06256622      -0.15186243       0.13358616      -5.36682235      -4.15731457       0.01457907
I       16.90160223      12.88439961       5.46157097       0.10038816      -0.06709660       0.28950328       3.34946097      -0.59867109       2.55360998
I       10.67785897      19.51573798       5.36521499       0.07664007       0.23234796      -0.34294518      -2.20887187      -2.68597325      -2.50190405
I        3.30477048      17.83712722       5.73290718      -0.06429520       0.16907190      -0.38640211      -4.58068575       2.25036717      -3.98414882
I       10.53559406      24.86222960       6.04436282      -0.17965665      -0.26952820      -0.46214501      -0.08406873      -0.41710768      -3.24531600
I       17.05613481      18.74897683      11.74675980       0.04553346       0.32823656       0.01437280      -4.99580273       2.16522715       1.60546656
I       10.96324992      13.43813254      12.02229118      -0.03309315      -0.14556170      -0.33836591       1.77631264       1.44862440      -0.87860300
Cs      14.02479577      20.35753349      17.91668182      -0.24075446       0.40559623       0.06560119      -0.08224614       0.56295278       4.92983921
Cs       7.55220370      16.09729122      18.11342710       0.03144147      -0.36684907      -0.05489172      -2.28733108       1.79060615       2.31509617
Cs       6.65596709      15.43370753      24.18955256      -0.08130777       0.09197192       0.15913678       0.45546607       1.68823961       3.69209354
Cs      13.20892939      21.95313534      24.50343401      -0.00715986       0.07892159      -0.15914468      -0.90810631       2.80363790       0.78229531
Cs      12.92971088      15.84117797      24.47319247       0.18913787      -0.21371075      -0.14617795      -0.27120312       3.72563205      -1.74730876
Cs       6.86286389      22.37160421      24.25378040       0.03668304      -0.03293069      -0.00083008       1.86002175      -2.13334595      -1.19154485
Cs       7.46752207      21.21533607      17.73749076       0.11839085       0.02242901       0.21996242      -1.87249369       0.42638358      -3.59905189
Cs      13.23188280      15.37398922      18.25204345       0.10567775      -0.35158985      -0.04242363       0.62523168      -3.92423702       4.95346299
Pb       3.49177361      12.25855008      20.91996712       0.20428714      -0.04557454       0.43690903      -1.34013602       3.41808678       1.35651845
Pb      10.12619813      18.40104871      21.41345865       0.33317263       0.40103789       0.19078185      -4.45762146      -3.76760513       1.34484159
Pb       3.75850788      18.63902492      21.60487550       0.17998063       0.49090337      -0.11639320      -0.14501403       0.77678134      -0.73040994
Pb      10.10102761      12.18474050      21.55979609      -0.07929140      -0.30864707      -0.46690744       3.85902180      -1.79911900       0.84601790
Pb       3.96491420      12.13502295      14.92994626      -0.30849637       0.47439337      -0.06889173      -0.67480911       0.43847059      -1.52993469
Pb      10.24127378      18.77994707      14.55717683       0.32919516       0.27169022      -0.04219681      -1.07601891       1.37744324       1.43621132
Pb       3.83905497      18.78192014      15.06949044      -0.23301833      -0.42407510      -0.39016949       1.06594905      -0.79511961       1.93722965
Pb      10.12860848      12.69615697      15.06618338       0.08911849      -0.71259967      -0.12609788       2.01215334       5.64729073      -1.94522900
I        3.30831950      15.67167740      21.85168931      -0.08163566      -0.56464656      -0.10750804       0.02303455      -7.30587023      -1.77812049
I        9.99111032      21.84854570      21.52150757      -0.02926654      -0.27686828       0.15507833       2.21481906       0.12800653       2.00884160
I       17.58453557      21.55644183      20.62069434      -0.20977198       0.02372594      -0.00371088       3.67397301       2.55910168      -3.41981575
I       10.45623804      15.20324171      21.22726663       0.07021746       0.26020514      -0.03883641      -1.74367415      -3.40472385      -3.01886712
I       13.44776611      19.12666566      21.56115831       0.38718502      -0.23915321      -0.08416296      -1.60268064       0.92869136       4.48632306
I        7.18174323       0.32318714      21.84672915       0.31927889      -0.00661942       0.14531093       0.17213138      -4.70623920      -1.02644159
I        6.93956181      18.06144567      21.59445861       0.07475164      -0.03570802      -0.24291845       0.21403405      -1.09671279       2.91352878
I       13.26835993      11.86931964      20.46194778      -0.48305194      -0.06245070       0.19914115       0.25396655      -0.85199715       1.36461672
I       16.95829440      21.28480326      15.68440048       0.38387338       0.47506465       0.12586423       2.22832226      -1.53510641      -2.24620933
I       10.37478796      15.76684806      15.59039712       0.10802192      -0.00680911      -0.05256440      -1.63104897       0.78846688       0.44191256
I        2.73049976      15.56383874       2.08941319       0.32206913       0.03266300       0.03030662       3.89585669       1.47851888      -7.80545662
I       10.04225480      21.77935227       1.13781882      -0.05527751       0.07560617       0.18183760      -0.97960075       3.55079091       0.64521941
I        7.16415685      18.37355181       2.98288682       0.05469870      -0.09801576      -0.04162476       2.41836488      -2.57820567       0.78825858
I       13.66316703      11.63855501       3.03438918      -0.61452977       0.04043102      -0.01410415      -2.86224781      -2.14356513      -1.94899938
I       13.52835429      19.42795654      13.56040248      -0.15167226      -0.20138966       0.36933243       2.33363468      -0.08955433      -0.72411512
I        6.79342462       0.14721495      14.33355243       0.15765484      -0.02334608       0.13272291      -2.87947902      -3.14337889      -3.84263252
I        3.36024195      24.32542315      24.93019668      -0.06436367      -0.07408600       0.10655697       2.96284547      -0.72160975       1.24640773
I        9.82632232      17.37880355      24.53461707      -0.01055346       0.28417190      -0.09864776       1.28807756      -2.79841065       0.61810688
I       16.72326114      12.63909185      18.12547272      -0.12182588      -0.02477294       0.33339344      -2.47225552       2.73569671      -0.24047374
I       10.38370298      18.21341813      17.92979787       0.08136029       0.06143111       0.33688338      -0.60680661       1.79826801       0.85018817
I        3.33602707      18.07717812      18.39553959       0.14192500       0.19155002      -0.08960744      -0.38378525       1.17087564       1.62810335
I        9.21925639      24.76476397      18.61747090      -0.14971426       0.13065249      -0.13323775      -0.70162349      -6.28711271       0.03081685
I       17.73444594      19.27096445      24.46041526      -0.05184558      -0.34841218      -0.42165927       7.34907524      -2.07964871       2.24153156
I       10.47677183      12.31371907      24.75760075       0.25875900       0.07072803       0.06964129       1.57418317      -1.22355753       1.42724169
Cs       1.88830613       9.52148554       6.13665266      -0.15352508      -0.10181443      -0.07224097      -0.19585096      -3.06566353       1.80297894
Cs      20.01903950       2.70294831       5.21886616       0.10185814      -0.30564414       0.03254613       0.43916600       3.05883884      -2.07664730
Cs      19.83081016       2.97403552      11.98411410      -0.20810596      -0.08567184      -0.07765154       1.09575950      -1.10701844       5.62074821
Cs       0.31807632       9.11939279      11.75588683      -0.14938241       0.26555498       0.04264368      -1.95672290       3.12195632       2.05486555
Cs       0.42448276       3.85021541      12.36922695      -0.11292971      -0.19518577      -0.17829268       5.30844631      -3.15402282       0.96083205
Cs      18.89167475       9.98566883      11.69795800       0.38846971      -0.05415283      -0.00347912      -0.63823200      -4.03432124       3.09012792
Cs      20.06034337       8.33019035       5.84036714      -0.23050130       0.02203305       0.01618440       1.05629605       2.80504843       0.76114754
Cs       1.00708147       2.38857141       5.72278785      -0.07355687       0.00009336      -0.07634536       0.39878410       2.55944574       4.74694429
Pb      16.57690544      24.52035826       8.57804483       0.35615529       0.23913336       0.32808532      -3.18098689       1.65458846       1.19973193
Pb      22.46636581       5.77939240       8.46179546       0.56048607      -0.06525144      -0.17338146       4.57318969       1.67719787       2.44758863
Pb      16.28803354       5.38621606       8.73475262       0.12227266       0.70722509      -0.00123011       3.93815894      -1.69200885      -5.65451327
Pb      22.95406542      24.85670376       8.99480214      -0.31220091       0.34797219      -0.07720026      -0.65213997       3.86246238      -5.72284849
Pb      17.03652582      24.59297038       2.67468782      -0.41566676       0.35924503      -0.48890313      -1.09155949       1.00497171       1.55365090
Pb      23.10818489       6.12650212       2.43053451       0.09296494      -0.14058573      -0.57084318      -6.80467278      -0.79876228      -1.00113634
Pb      16.76917593       5.72627083       2.15679143      -0.30838107      -0.06133579       0.70546261      -1.39154516      -3.23474862       2.34596385
Pb      22.92162342      25.00526899       2.51424435       0.24749311      -0.37141156      -0.05658719      -0.48435736       1.23235471       0.73831045
I       16.56379835       2.76657593       8.69753172      -0.26961033      -0.46990762       0.16912478      -0.45552697      -0.61902287      -3.47328029
I       22.61943488       8.99436675       8.84973261      -0.28439886       0.31639460       0.19499137      -0.75792333      -2.87460302      -2.29337864
I        4.54475490       9.38777507       9.23967313       0.02695545       0.21456982      -0.28845737      -3.75024461      -0.58178628       3.33195750
I       24.16247243       2.61070228       8.28446353      -0.45834885       0.32682893       0.03125897      -2.56725096       6.46585593      -2.22777927
I        0.80514742       6.76371211       8.98842066      -0.58607437      -0.10580518       0.08152668      -0.29076466      -0.83911981       1.68300999
I       19.62221489      13.13519222       9.12259893      -0.32017794      -0.20162801      -0.09625035      -1.62988162       1.22360665      -4.19720401
I       19.57595155       5.24274292       7.48614908       0.73169025       0.07460459       0.11896670      -0.53314385       2.15941535      -0.71950494
I        0.66718288      24.27968881       8.97589852       0.21480896      -0.10557234      -0.08638508      -5.66658773      -0.22021356       1.46117102
I        4.53866583       9.22759116       2.65710956       0.12169007       0.38352557       0.21282489       3.38479989      -3.95862484      -3.35395357
I       23.53595591       2.82441158       2.56431933       0.04278200      -0.18353874      -0.00372089       2.31799239       2.41473099      -1.09276142
I       16.37976741       2.43413707      14.63614546      -0.15989776       0.13156555       0.00671272       3.17474649      -0.64711807       2.29517257
I       22.25186751       8.81908775      14.69059153      -0.31642728       0.26964665      -0.37275143      -2.75099099       2.09157323       3.15591670
I       19.73945498       5.16973985      15.68267596       0.18387289      -0.06574848      -0.02208360       3.30618646       1.46106077       0.99882338
I        0.62302189      24.29043899      15.20746679       0.13512426      -0.12512555       0.25691334       2.99426870      -4.07019847       0.18520025