320
Lattice="31.705123562890115 0.00098397742904671 0.8597404125717283 0.019921660697184568 29.971723771014627 -2.6265873698904523 -0.4087198441794399 1.5773423540450537 17.106165182112967" Properties=species:S:1:pos:R:3:forces:R:3:momenta:R:3 energy=-974.7067538474192 stress="0.0 0.0 0.0 0.0 0.0 0.0 0.0 0.0 0.0" pbc="T T T"
Cs       0.81960877       2.08787170       3.62118234      -0.06069684      -0.01339648       0.02923186       0.76966611      -6.01646449      -3.41091341
Cs       5.38325882       5.88331386       8.22274742       0.00263697      -0.13113879      -0.03386902      -1.43772819       2.71095490      -1.78956550
Cs       1.27132814       9.21005204      -1.68720575       0.00562724       0.11757536      -0.03216085       0.70595589      -0.04530270       1.30459304
Cs       5.46004523      11.85577180       2.86256682      -0.09707150       0.05635586       0.07727572       0.19875382      -0.41951655      -2.81624225
Cs       8.85827370       1.94978853       3.63109940      -0.00263761       0.02773314       0.09898823      -1.41552300       1.63795938       1.72724382
Cs      12.65020890       5.59855861       8.31344289       0.16272897      -0.05933715       0.06126194      -3.79806301      -0.42737827       0.24323778
Cs       8.63770516       9.99600816      -1.03688731       0.12693028      -0.09479643       0.10731498       2.50399017      -0.19251525      -1.96687276
Cs      12.91871666      12.43766639       3.12933420       0.00781050      -0.00417363       0.24062862       0.67633062      -0.05911678       0.57175912
Pb       2.76837943      15.19050965       6.73511270      -0.44789755      -0.17431296      -0.06591500      -1.79268858       0.04125488       4.36315658
Pb       6.61932339      15.18116751       6.98939195      -0.50498958       0.21307480      -0.11811999      -0.11780631      -2.22196526      -0.65118278
Pb       3.96015651       7.27948651       3.54820041      -0.56088933       0.02036165      -0.26491280      -0.80992706       3.43400821       1.49637616
Pb      31.69183788       7.54401604       3.77989799      -0.01572133      -0.20745823       0.14266467      -1.82582802      -1.73942338       2.82529475
Pb      10.41894162      15.29616818       7.40202455       0.22259194       0.27232492      -0.31430930       0.50812968      -2.24218426       1.19938444
Pb      14.30094033      15.67891935       7.68008317       0.26119885      -0.17940138      -0.28933890      -1.50864469      -2.56239820       0.81785450
Pb      11.72851439       7.27547903       3.95206493      -0.06534980       0.35129803      -0.06074532      -1.75111658       3.45592652      -1.93622733
Pb       7.76291118       7.32787386       3.68044826       0.17120071      -0.01587997       0.01450535      -1.93500621       0.24045832      -0.74772443
I        4.30210024       1.48207259       1.67961060       0.04116244      -0.11147188      -0.02311830      -0.49155411      -0.41279600      -5.00280265
I        1.76453939       5.42405646       1.47421017       0.58758936       0.14341976       0.19221406      -0.77538998       0.78885626      -3.64503198
I        4.31334661       0.89788852       5.85909723      -0.04340445       0.07856376      -0.16250247      -1.13647308       1.29578419      -0.70798165
I        1.51636800       7.08430192       5.84586216       0.30844610       0.07090840      -0.31489187      -1.18433672      -2.46379320      -2.70380604
I        5.69759490       4.87985456       4.37831965       0.14497190      -0.21398401      -0.10125570       2.78420936       0.55558046      -0.08479161
I        0.24369668       3.00832122       7.50494767       0.08336769      -0.20689935       0.10238015       2.65342537       3.15219493       2.18683587
I        5.79811143       8.77510188       5.89182274      -0.16684061      -0.04042687      -0.35833464      -0.44893338      -0.06363503      -0.86060911
I        0.51561214      13.44418834       4.65996281      -0.20183640       0.44535199       0.35246519       4.61007512       1.52120641       2.98519227
I        6.21967802       8.43003804       1.07671772      -0.31427862      -0.29776036       0.44096544       1.75029368      -1.57312159      -0.42600266
I        0.58979500      13.39500002       0.16916733      -0.07213071       0.03704876       0.13409261      -3.41650031       1.82148629       0.00180800
I        4.68812693      12.60247035       7.25586094      -0.28731957       0.06888354      -0.01109064       1.96879656      -2.24040997       0.33120378
I        2.07978649       9.76894526       2.17937145       0.11930090       0.08893402       0.08164006      -0.55083366      -0.86917454      -0.43502563
I       12.52359706       1.35787842       1.67607257       0.00079335      -0.06953630      -0.23381396       1.05950049      -0.87836934      -1.55150085
I        9.89625344       5.49391501       2.01371510      -0.03109055      -0.00322640       0.05451903       0.59806743      -1.55940918       1.74643009
I       12.04597937       0.25436732       5.77991367       0.18848489       0.09271449       0.26412244      -2.22477785       0.39643302       1.04213325
I        9.70817493       6.71567380       6.28814641      -0.08298998      -0.13498061       0.19315745       1.46737292      -2.55129960       3.09039767
I       13.87008004       5.01038974       4.32129922       0.01257849      -0.35299161       0.17340159      -0.83940245      -0.91020516       0.66891649
I        8.20279862       2.61011913       8.01133657      -0.12986450       0.01539582      -0.01849193      -1.63465220      -3.11381281       2.28134055
I       13.62523390       9.20133409       5.92052361       0.04283840      -0.10107780      -0.15961408      -1.11764276       0.17391339       0.63627513
I        8.63281750      13.67752269       5.19431914       0.11329741      -0.15561669      -0.17942581      -0.03839373       0.91882902       1.39268774
I       13.77469811       8.40651384       1.62262519       0.13452871       0.06949007      -0.07738266      -1.37106498      -0.91136847      -0.07541643
I        7.98040052      13.30949759       0.90803806       0.18613675       0.00793930       0.01590243       1.39948442      -0.38890551      -0.54317024
I       12.41871112      13.01042986       7.62833992       0.00489514      -0.39697401       0.28534559       0.24769987      -1.29684762       1.92517123
I        9.79975739       9.81235253       3.45223658      -0.09513481       0.14554912      -0.13280965       2.54877668       0.82109818      -2.00355350
Cs       0.42711959       2.66745432      12.66736131       0.00734341       0.06714458      -0.12178073      -1.76254076      -2.15062152       0.20338368
Cs       5.10974300       4.14490386      -1.14137459      -0.03920567       0.21029979       0.13086309      -0.15559780      -2.14744702      -2.16851336
Cs       0.46834976      10.74417534       7.39658284       0.08254385       0.04615379      -0.05636605      -0.26676397      -1.36493620      -3.14322407
Cs       5.35142391      12.74419701      11.64954683      -0.12573014       0.00766258      -0.12603223       0.22226034       1.01765900       0.09820450
Cs       8.37221014       2.46470428      12.21359906       0.06135464      -0.00186512       0.08187692       2.32095329       0.83306230      -1.45417505
Cs      13.33642749       4.95352545      -0.23443909       0.01917653      -0.05663626       0.10788894       1.71510132       0.99553606       2.05298073
Cs       9.02996956      10.48148051       7.79856244       0.07874638      -0.03389592       0.01122784       3.27297800      -0.63646497       1.28130994
Cs      12.61267596      13.55323686      12.04397535       0.05758230      -0.21433397      -0.04486595       3.12061263       0.02203115       1.15831555
Pb       2.78106071      14.50321950      -2.02327015      -0.50788119       0.12566298       0.36475899      -0.43387655       5.47872607       2.37866952
Pb       6.51419293      14.53952395      -1.82750888       0.10029916       0.11548537       0.59341991       0.92646380      -1.89478625       1.44128996
Pb       3.60176526       7.87755790      11.75654302      -0.21355170      -0.01138770       0.29814675       0.65854394      -3.63535906      -0.48259610
Pb      31.38905486       7.51481015      12.17786003      -0.25183509       0.30290059       0.28057569      -0.20188517       1.15553399       1.16541403
Pb      10.63581375      14.65417705      -0.92016858       0.08789219      -0.15659071      -0.05483501      -0.22028056       2.34925526       1.48200149
Pb      14.73715005      14.22182797      -0.82872852      -0.18042967      -0.24022261      -0.38854007      -1.00948680      -0.00153341       2.90642205
Pb      11.53781186       8.10348535      12.56519501       0.07177206       0.19739512      -0.18681116       5.02972377      -0.91092118       2.67671132
Pb       7.58908672       8.25919345      12.50466459      -0.03559196      -0.19430551       0.00118669       0.39625001       0.62432134      -0.14124501
I        4.21015133       2.06649398      10.42478958       0.04410901      -0.08137491      -0.30787984      -0.28639306      -1.98938854      -0.37409754
I        1.85290959       5.82506473       9.84082753       0.19776553       0.06088841       0.17428741      -2.43911997       1.23463911      -1.30340076
I        4.29097909       2.06318738      14.40057576      -0.12791348       0.02229542       0.12887822      -0.30366166      -2.97658573       3.65335284
I        1.37081978       7.32561108      14.14993314       0.00056768      -0.30026431       0.11736372       2.78086409       2.78195470      -0.78335309
I        5.82704878       5.43748667      12.22863244      -0.05506366       0.04448913       0.13675341      -1.59717669       1.50625397      -2.69417567
I        0.09391809       3.56287028      16.60124760      -0.05526773      -0.04122195       0.06619801       0.53001990       0.86993168       3.18173073
I        5.12721649       9.82885874      14.15249813       0.00588618      -0.26577408      -0.09815944      -0.47855667      -1.09197179       1.59292557
I       -0.03156300      14.57657804      13.08040284       0.28056482      -0.02322292      -0.17102393       0.58818615      -0.28024519      -0.94518845
I        5.64853090       9.33256768       9.97962573       0.40728588       0.08687392      -0.14844312      -3.40679351       2.49543427       1.93281209
I        0.43765442      13.84368854       9.07889695       0.19473304      -0.08283029      -0.12372149      -0.80435494       1.39407403       2.83624128
I        4.45372435      11.92918145      -1.41984618       0.04800925       0.01067081      -0.08695336       2.79010502      -3.31840480      -2.65578643
I        1.76313491      10.33478843      11.33475104      -0.18796703       0.05378974      -0.12575568       0.38543347      -0.92950163       1.42789282
I       11.85133396       1.93382733      10.11764578       0.02077626       0.21198986       0.06723752       0.36592588      -0.32637437      -0.36563166
I        9.43010421       6.48881939      10.58759857       0.04717532      -0.04070246      -0.02651402      -0.72023747       2.18869494       0.19526126
I       12.41661244       1.34171133      14.33249450      -0.12184167       0.12439332      -0.01725323       0.64751972      -1.87304516      -1.10234193
I        9.66507912       7.37217005      14.99727816      -0.36149314       0.20530080      -0.11904812      -0.94624051       2.42184515       0.28209005
I       13.45791128       5.74256219      13.41185881      -0.00691396      -0.28260098      -0.14641314       0.85717447       1.17106369      -1.44210925
I        8.18038878       3.57722026      16.50298587      -0.07096016       0.19308627      -0.04743606      -1.23003496      -0.19613219       0.07078426
I       13.52614272       9.95044589      14.36378733      -0.21494162       0.21198314       0.25864871      -0.23736946       2.36687986       1.54632819
I        8.39481467      14.74216162      13.76724134       0.16776579      -0.16453175      -0.33597926       1.14066531       0.58433282      -0.01250885
I       13.50678306       9.05664024      10.08085314       0.23480336      -0.20933496       0.44007638       1.50587056      -0.57412930      -0.25396348
I        8.41983498      14.22964636       9.49108010      -0.26659353      -0.10057479       0.27767939       3.86378582      -2.75156393       1.89535818
I       12.24729122      11.89957579      -0.43284565       0.00651684      -0.00190317      -0.01722617      -0.22878358      -1.60949533       1.11700472
I        9.42338773      10.69038180      12.03047193       0.15192766       0.19954231      -0.00684122      -1.80490534       1.51635945      -1.87897039
Cs       0.69049216      17.13638372       2.28571238       0.02914972      -0.25079241       0.09835868      -1.03035864      -1.47988044      -2.24933512
Cs       5.52728078      20.49307214       7.08299468      -0.10655234      -0.00124963       0.02326025      -2.24189036       0.53066203      -1.59607109
Cs       0.96219148      25.00305995      -2.83791768       0.02687701       0.09358108       0.22161710      -0.91996284       0.22072927       0.59616208
Cs       5.05401306      27.04184680       1.76179467       0.03546553       0.05225457      -0.04234865       2.36681055       0.13193292      -1.05906442
Cs       8.82485027      16.85657335       2.85544603       0.06852359      -0.02273623       0.03211252       2.66255988       0.83884822      -0.03528810
Cs      13.21702000      20.95082838       7.64866555      -0.03255859      -0.03379752      -0.16378857      -1.39298286       0.84554798       2.24447107
Cs       9.14966653      24.92376625      -2.26580340      -0.02476305      -0.02506330      -0.00934361       1.71801105       0.32341467       0.43914874
Cs      13.36831459      26.74394774       2.00213646      -0.01762697      -0.09331397       0.04113140       2.30731010       4.74246239       1.57685439
Pb       2.25077258      30.54183319       5.62938471       0.13903925       0.00588637       0.15776164       1.32931932      -1.53613564       2.19477605
Pb       6.05101455      30.12122038       5.70248159       0.06455323       0.01549842       0.14380951      -0.79161829       3.31289528      -1.96341477
Pb       3.93684596      22.21068621       2.45495050      -0.06351831      -0.01530114       0.03083976      -1.55707767      -0.60611847      -0.69324392
Pb      31.63191837      22.06131693       3.24036401      -0.15431744       0.24915581       0.29110193      -3.52501725      -0.29863945      -3.62850792
Pb      10.03937109      29.97390560       5.79882175       0.31525088      -0.12870472      -0.19019635      -1.53293126      -2.80969178       1.04163284
Pb      14.09584477      30.03793398       5.90379904       0.03285999      -0.09592904       0.17768731      -1.04092681       3.16431209      -0.06142024
Pb      11.69428022      22.57134584       2.91901602       0.08081238      -0.25184507      -0.03014433      -1.08084523       2.38217408      -0.18505979
Pb       7.82048611      22.07069028       2.32910037       0.61957698       0.24814791       0.18128325       4.11544331      -2.76844666      -1.25813731
I        4.34333681      16.15393880       0.18004232      -0.03720937      -0.07901216      -0.01202308       1.71928007      -1.14718639      -0.12963017
I        1.95284657      20.07483210       0.99311765       0.01957185      -0.03858016      -0.39308516      -2.83723388      -2.18900771      -1.21463548
I        4.51134117      16.03510577       4.27983272       0.14970395      -0.22888600       0.47435156       0.52374029      -0.18051978       1.77339599
I        1.89277141      21.65846132       5.01111884       0.23714730       0.08648223      -0.20858981      -1.05627582       0.04033733      -1.81849001
I        6.05834428      19.70242267       3.19773017      -0.20611900      -0.11041712      -0.05252132       1.81923122      -0.65439833      -1.88751138
I        0.23868177      17.68726418       6.53496750       0.19809783      -0.33343893       0.06628419       0.98373577      -2.20863363       0.40706190
I        6.03090031      24.04754558       4.04727961      -0.24290625       0.19877639       0.24175498       2.89425893       1.41091003       0.73576616
I        0.43677755      28.91178252       3.55760310       0.01214166      -0.30406273      -0.21431780       1.39628058      -1.23627047       0.64682772
I        6.10988431      22.84993638      -0.22881345      -0.32818477      -0.13247929       0.26643075      -1.68233324       0.82158675       0.72531860
I        0.72382807      27.85497395      -0.81477082      -0.06367882       0.04124960       0.21961370       2.78416502      -2.41030386      -0.31217319
I        3.86716347      27.72078940       6.45793707       0.15310845       0.11974292      -0.10537581      -1.52146100       0.46773450       2.57207702
I        2.02199926      24.66084939       1.87589766      -0.07433542      -0.07487668      -0.11966702      -0.00813122       0.16793000      -2.14515948
I       12.93014363      16.14580279       0.85989185      -0.30212800       0.11304291       0.25628847      -1.90233580       0.03777289       2.21964131
I       10.18935873      19.99598598       1.22527998       0.13822355       0.06528667      -0.08469042       2.68901274       0.94560010       0.51863782
I       12.50149728      16.17591916       5.17633908      -0.05979076       0.11657499      -0.32570738      -6.57856317       1.45668562      -1.64843403
I        9.67254681      22.15524024       5.38511112      -0.03347791       0.17646344      -0.17408357       2.47512262      -0.91947601       0.52295716
I       13.91616327      20.00145342       3.56563150      -0.00343604      -0.06220656      -0.13411579      -0.60931162      -2.57896500       0.33163093
I        8.30229848      17.80378712       6.65926183       0.08511244       0.17157540       0.05230202       2.43105250      -1.83708177       0.46098147
I       13.98991252      23.71348184       5.01961233      -0.01763550       0.24617796       0.04681913       3.74916239      -1.57624279       0.92036341
I        7.90017279      28.45806824       3.62780219       0.01208396       0.04424755       0.12281694       3.57889784       0.83921345       0.64949446
I       13.94842172      23.66037953       0.62532019       0.13520660      -0.13628148       0.27943886      -1.47488830       1.48955321       1.26918283
I        8.71503498      28.42782773      -0.63648785      -0.24828816      -0.10254306       0.28768374       0.32314131       1.28624564      -2.47044363
I       12.15124754      27.60882522       6.71591751      -0.06668495      -0.00378411      -0.03812018      -2.70239481      -0.46999561      -1.74240025
I        9.80087132      24.82063881       1.44649942       0.01724598      -0.11187944       0.14493789      -1.89737301       2.00951074       1.65771828
Cs      -0.18122464      17.02104136      10.98547924       0.07618689       0.09826127      -0.09397883       2.71220534      -2.92629362      -0.38475729
Cs       4.93473835      19.13670750      -1.38538649       0.01541299       0.12301452      -0.08869692       1.60378832      -3.03522607       0.23664868
Cs       1.06396637      25.35914764       6.04684986      -0.04828081       0.02931220      -0.02154923      -2.85781529       1.03514398       3.63382681
Cs       4.60242837      28.09001147      10.48465662       0.03241151       0.03941082      -0.07770067       0.01698295      -2.61503369      -0.48014757
Cs       8.76108184      17.92125999      11.47302165      -0.04927790       0.03950610       0.07486616      -0.35934337      -0.54434150      -1.23502374
Cs      13.80314886      20.07608709      -0.75285396      -0.04689832       0.01369548      -0.11420240      -0.51471112      -2.25078373      -6.45651233
Cs       7.82616955      26.15805077       7.22773868       0.16548763      -0.07712865      -0.21189281       3.06638197       1.27513219       1.96662674
Cs      13.44008320      27.65391293      11.08014049      -0.08274332      -0.10333682      -0.20116899      -0.20671235       1.86642706      -0.31657061
Pb       2.63615949      29.53800477      -2.95767077       0.13597968       0.01425802       0.00889993       1.08217777      -3.65301041       0.78801942
Pb       6.46790995      29.60990189      -2.75181625       0.27014594       0.06984899      -0.02343835       1.04520962      -2.58289896       0.09181683
Pb       3.35295752      23.17173072      11.16979361       0.28603286       0.17122862      -0.38319693       1.86325914      -1.34281435       1.16251194
Pb      31.30073363      23.17101250      11.52364380       0.00774295      -0.21265430      -0.08075937       0.64747952       1.09803689       3.64903471
Pb      10.63192301      29.43248556      -2.84198610       0.16643110       0.39760673      -0.08760424      -2.16452189       3.16167191       3.32515396
Pb      14.61635996      29.40913614      -2.69604847      -0.34295341       0.19180988       0.15985412      -1.05261241      -0.26518353      -1.94191894
Pb      11.39461339      22.99248808      11.49577195      -0.02611364       0.16278103      -0.09631079       2.18535911      -2.14312435       1.60841561
Pb       7.47900998      23.08832746      11.17412552      -0.13253208       0.35277110      -0.15900543       0.21943805       0.39232313      -1.84609226
I        4.39622876      16.64980743       9.04448950      -0.06528281       0.09631295      -0.15621036      -1.04725908       1.05541950      -0.09518736
I        1.64101099      20.91345132       9.36043213       0.15596882       0.14726502       0.12119577      -1.38786873       0.43711043      -0.37561862
I        4.40137621      17.04727886      12.86982531      -0.05953675      -0.00362404      -0.26867581       1.50707287       0.57527771      -1.12249562
I        1.29598254      22.93605576      13.53651114       0.01370674      -0.00398878       0.12589011      -0.29383334       1.50158091      -1.11516654
I        5.29747884      20.85995236      11.83934528       0.17649661      -0.34354587      -0.05532644       2.65493487       0.28733332      -2.96640628
I        0.21240735      18.92795170      14.93741560       0.04259268      -0.49909259      -0.06110550      -1.08548169       0.40035112      -0.82844972
I        5.60936053      25.13669248      12.81002698      -0.16629957      -0.16436649      -0.19159059       0.01155263      -2.30652265      -0.03180469
I        0.19396497      29.91623967      11.82371798       0.08974741      -0.22855388      -0.00866236       2.18401778      -0.74646820      -1.09044289
I        5.48852587      24.06725615       8.47768169      -0.02894417      -0.27219880       0.59834695       1.43990934      -1.71816534       1.33687918
I        0.18478567      29.37054051       7.96414151       0.16501647      -0.08704092       0.18937359       2.65667683      -0.44120878      -1.74168412
I        4.70642524      26.94870292      -2.44324265      -0.24191972      -0.01244475       0.01184916       2.36201063       1.38674103      -0.50646255
I        1.45942076      25.74529622      10.13000316      -0.04185317      -0.00395164      -0.02348775       0.47391966       1.17259568       1.56393046
I       12.17242516      17.11395890       9.48144009      -0.07885604       0.12912465       0.20298253      -0.33636415      -1.87649417       0.95385847
I        9.74915507      21.21922635       9.52658776      -0.29691674      -0.17640770      -0.04960218      -0.97222549      -1.54340885      -1.93830496
I       12.18487828      16.56494212      13.72775860       0.02103642       0.14451158       0.01588146      -1.41331931      -1.55010933       0.34513286
I        9.22825522      22.59561733      13.87438657       0.01969414      -0.07467241      -0.04361313       2.82865876      -2.99282041       0.17655416
I       13.55034603      20.59440890      12.05669135      -0.05645770      -0.04601640       0.00226619      -0.62083320       1.48340434       0.24927476
I        8.13158351      18.68368971      15.73437101      -0.02807399       0.04186485      -0.14604790       1.08386223       0.28418971      -0.28685410
I       13.24036680      24.56949354      13.49244351       0.12461858       0.28450534       0.41826454       0.59421154      -1.55667648       0.65953619
I        7.94319397      29.66804784      12.36335436       0.03214938      -0.17411291      -0.23526115      -1.92704944      -2.30290989      -1.71937257
I       13.55104834      24.35901075       9.27308227      -0.03007548      -0.03790882       0.11015397       0.05662890      -1.27560579      -1.16369120
I        8.04137946      28.61409217       7.97797606      -0.08754223       0.01970875       0.07568310       1.31838501       2.30151758      -0.57198699
I       12.52200736      27.08841405      -2.12647187       0.07800727      -0.50176470       0.03490773      -1.46552219      -0.50832062      -0.87744172
I        9.55209137      25.62590660      10.71810324       0.07871722      -0.06562911       0.14429077       1.21306236      -4.19011067      -1.34197712
Cs      16.66763660       2.64858200       4.31614275       0.15885448      -0.18603441       0.01436029      -1.40981182      -0.78050287      -0.56378542
Cs      21.23271825       5.81051669       9.16304520      -0.02448760      -0.03628853      -0.00570432      -0.55183621       0.59397500      -1.12507545
Cs      17.13450314       9.60018881       0.08791825       0.03509342      -0.07198753      -0.11254953       0.55721166      -1.58332666      -3.12177541
Cs      21.09150306      12.41335310       3.69965620       0.06894550      -0.01771439       0.10901051       0.00086915      -3.83900753      -0.27016350
Cs      25.33246991       2.64356152       4.64110111      -0.11161583      -0.02969743       0.04244944       1.24682660       2.38737446      -0.65845059
Cs      28.27553976       4.93206475       8.14116249       0.09537092      -0.09604226       0.01616983      -1.60783914       2.90004200      -1.42827529
Cs      25.64049190       9.20128208      -0.66496781      -0.15812691      -0.04219430      -0.02039617       1.66474487       3.54077046      -0.21496447
Cs      28.05959112      12.59039212       3.57781725       0.22576314       0.15402022      -0.18797162       1.75607894      -1.91007397      -1.38759487
Pb      18.36237888      15.53966418       7.54590904      -0.22110058       0.09901178       0.24311770       1.87930363      -0.79847039      -4.13090543
Pb      22.31301354      15.70675214       7.63268459       0.43498147      -0.27442310       0.24175582      -0.21638138       2.87388557       0.07982807
Pb      19.77583850       7.39484953       4.52632631      -0.05667214      -0.11091040      -0.27354133      -2.39764120      -3.87035408       1.83093977
Pb      15.71702262       7.56187805       4.03317148       0.13494656       0.20077049       0.21016863      -1.09874564      -1.00682274      -2.02037669
Pb      26.35813123      15.00946505       8.06336376      -0.06512923       0.19045913      -0.18406139       2.75666868      -0.10399746      -4.59713312
Pb      30.25260537      15.07675395       7.74797420       0.17496650      -0.16040469      -0.13898636      -1.20136125       0.74277471      -1.98537106
Pb      27.68011003       7.64740415       3.82294528      -0.01138964      -0.07965926      -0.09256924       0.24710640       0.66460885      -1.76181300
Pb      23.63322082       7.28291166       3.80326825      -0.03086986       0.08999286       0.24388994       0.67604621      -0.50427666      -3.78264569
I       20.24697375       1.19151733       2.82110364       0.00289273      -0.04967505      -0.26166432      -1.69571969      -1.26480465       0.21286884
I       17.91349650       5.77381426       2.38047851      -0.11281175      -0.04377641      -0.05522535       1.49612957      -0.91325090       0.07000208
I       20.31972179       0.51061285       6.73102676      -0.09814096       0.25840319      -0.17924906       0.40925133       0.19033975      -0.77431603
I       17.49016352       6.95268568       6.80251503       0.04489307      -0.13056870       0.02714904       0.42519090      -0.52221922      -0.71903027
I       21.73591889       4.86609867       5.14953582       0.07191742      -0.13640918      -0.05132477       1.56103987       1.08345701      -0.03079029
I       16.23882132       2.59430225       8.00544301      -0.31118703       0.13741528       0.08292791       0.57613043      -1.90442586      -0.68695740
I       21.98455960       9.11381936       5.98131628       0.02569144       0.19893199       0.20627757       0.85855921      -0.96824666      -0.50654816
I       16.20957033      13.86459689       5.73627441       0.30406170       0.14132578       0.06394757       0.51839760      -0.08012534       3.13527164
I       21.46230665       8.08000157       1.66111445       0.06444478      -0.06458288       0.07979400       0.08120304       0.35224765      -1.16663074
I       16.48227784      13.31826221       1.63166198       0.06891037       0.06829232      -0.05526965      -0.60766483       1.27312437      -1.29320547
I       20.43493120      13.02651885       8.09586220      -0.26215007       0.26616798      -0.13210934      -0.85947628       0.05315287       0.81791644
I       18.13927223      10.00228135       3.90036522      -0.32525878       0.11965819      -0.02912832      -0.34593038       1.07596896       1.08947825
I       28.33744275       1.18423450       2.41435484       0.00887866       0.00624527       0.17726921       2.29819928       3.63648800      -4.43021415
I       25.69492366       5.67904727       2.03473143      -0.01114226      -0.08026776      -0.20753298      -3.45456309       1.35113261      -0.67747732