320
Lattice="25.356093371687486 -0.1065490082268892 -0.19187677835240669 0.07755788227136919 25.376386568457004 0.27590338859444424 0.1691801122122475 -0.29781874292918886 25.404906270035514" Properties=species:S:1:pos:R:3:forces:R:3:momenta:R:3 energy=-977.0500230841567 stress="0.0 0.0 0.0 0.0 0.0 0.0 0.0 0.0 0.0" pbc="T T T"
Cs      13.49902976       8.88235607       5.32473178       0.08156158      -0.06457872       0.02515478       1.31216455       0.52102705      -1.82946337
Cs       7.19156558       2.85883029       5.76197250      -0.02714161      -0.04497567      -0.16824350       0.05940678      -0.37837540       0.58662286
Cs       6.36760371       3.32532275      11.76895253      -0.00745718       0.03958779       0.01197801       0.33378292      -1.06180737      -0.09641634
Cs      12.73203896       9.67551516      12.11565964       0.05960459       0.02089620      -0.06117740      -2.14832833       0.84420690       1.05216924
Cs      13.07655585       3.70599452      11.94291901       0.00808137      -0.09825438       0.00977446      -0.02081148       0.00355963      -1.62363500
Cs       6.82372527       9.97121213      11.78444919      -0.06633642       0.01856191       0.11886959      -0.68833961       0.94292331      -0.58083613
Cs       7.09004770       9.33948340       5.77895532       0.03845650      -0.06280629      -0.04999009      -0.62136306       0.92239690      -0.94660606
Cs      13.52499175       2.40768315       5.50157809       0.06833226       0.07037805       0.02467359       0.01843331       2.24413229       0.92655442
Pb       3.87917395      25.06100760       8.90690238      -0.17914897       0.10416389       0.06405661      -0.07070135      -1.49996370      -1.22891597
Pb      10.06132364       6.33144507       8.84455093       0.05173387       0.01271879      -0.03260754       0.39861913       0.73889167       0.57135709
Pb       3.83334278       6.17342665       8.93091722      -0.25396391       0.17189432       0.04377920      -0.59673906       2.58656252      -0.35363267
Pb      10.25146142      25.52871008       8.93938681       0.25941476      -0.47672694       0.01237107       1.58941687       1.90175591       6.06663826
Pb       3.95281359      25.28825304       2.37851146      -0.02426777       0.09076408       0.27269367      -1.08703239       0.41268820       2.59795402
Pb       9.98022217       6.16589626       2.45507768       0.06628294       0.28161440       0.01863234       2.32985399      -1.08260088      -4.49686471
Pb       3.66721720       6.40996379       2.81368790      -0.01369965      -0.14228117      -0.66345370       0.89798958       4.06358535       1.88627445
Pb      10.10214303      25.31115794       2.76307159       0.12376819      -0.14201108      -0.05414066      -2.16705828      -1.11703796       3.50487407
I        3.56265157       3.09453732       9.47147682      -0.11983064      -0.00573202      -0.06895399       0.92145684       1.24404579       0.92556935
I        9.49399905       9.40325817       9.37639070       0.06257923      -0.00950268      -0.04658595       1.90634382      -1.69518003      -1.09411785
I       17.34259355       9.33377114       8.26794847      -0.14567458       0.12494665      -0.01239001       0.45270905      -0.66569820      -1.09457748
I       10.74200365       3.13387391       8.22700361      -0.01920262      -0.05258547      -0.02644334       1.24693694      -0.00340030      -0.83087711
I       13.28860852       7.04096028       8.96782763      -0.19889568      -0.01178526       0.08394547       0.09922157      -0.20683607      -1.24232884
I        6.96339421      13.17728315       9.09844060       0.27407436      -0.01216159       0.06331684       1.42252503       0.52643427       0.73862618
I        6.89052394       5.74395171       8.22247221       0.06142292       0.05658934       0.06838224      -0.67764650      -0.45339624       1.71724927
I       13.51810209      24.57300638       8.02863303      -0.24653094       0.16975665       0.19483560      -1.89878500       1.18629365      -0.81007261
I       16.93152903       9.44064121       2.66163072       0.09465955      -0.00546199       0.12335423      -0.42322509       1.20505195       0.41060428
I       10.67203356       3.08133662       2.77821983       0.01107809      -0.06843463       0.06290200      -1.03498470      -0.49572862      -1.56900480
I        3.34299943       3.03472051      14.67536287      -0.12129742       0.18037533      -0.06918951      -0.75056284       1.20847544       0.77122371
I        9.82191685       9.45682622      14.25287720      -0.08830154      -0.05337581       0.12147707      -1.63403360      -0.07888497      -0.88833432
I        6.98267814       5.59545143      15.81270050      -0.11740784       0.08448470      -0.07767213      -1.49066101      -0.47334114      -1.07487985
I       13.23474059      24.64519807      15.98268639       0.08811007      -0.06024201      -0.15956966       0.02709935      -1.25162456       0.88776484
I       13.27837775       7.02404090       1.88640480       0.12981594      -0.15376271       0.06318231      -1.60591596       2.03355768      -0.75150569
I        6.98015595      12.92534704       2.20966496      -0.22091523       0.11824007      -0.12350943       1.77541328       0.61108257      -0.76865483
I        3.66582554      11.92464650      12.17162150      -0.04027544       0.07319146       0.03356639       0.66617912      -0.52334138      -0.07302652
I        9.76218976       5.34538452      11.80049227      -0.02881658       0.14609315       0.38472824       0.64853094      -2.78967206       3.74284872
I       17.15885440       0.85052846       5.40313310       0.05957505      -0.07927976       0.23918512      -0.85730670      -0.20025129      -0.44221845
I       10.14807695       6.74068775       5.56573394       0.11419227       0.02995411       0.04714516      -1.50138133      -0.32189108      -0.93122314
I        3.20625674       5.67538409       5.69809639      -0.00206071       0.03858529       0.16973363      -1.45900951      -3.48115862       1.24522055
I        9.55533444      12.11372334       5.69718024       0.05955824       0.01878548       0.05786676       2.83479152       2.51470837       0.17104551
I       16.94491800       6.63344630      12.01696121      -0.14583398      -0.13645918      -0.24036345       2.09551333       1.00736522      -1.78070008
I       10.67718246       0.09677957      11.77353185       0.14506292       0.17608298       0.22079722      -1.70897366       1.32721622       2.62470500
Cs      13.59629229       8.94703511      18.37598573       0.05418947      -0.06712774      -0.00831061       0.50982964       1.76163655       1.95352550
Cs       7.83015772       2.54890043      18.29465622      -0.02556134       0.16238602       0.00832267      -1.12701057      -0.60830865      -0.48996014
Cs       6.56167214       3.30178529      24.21940370      -0.12315248      -0.03805136       0.10552897      -1.04427102      -1.45453032      -2.79096548
Cs      13.14759681       9.55131060      24.50031291       0.01963439      -0.04716847       0.03689782       2.60214437      -1.61536997       1.92972504
Cs      12.88796784       2.96414753      24.97350226       0.01233387       0.03092235      -0.13145411       1.19702121       1.85176522       2.02571596
Cs       6.71956956       9.44181471      24.88651665       0.13533532       0.03890870      -0.09123885       0.61324418      -0.55112021       0.10002814
Cs       7.28894215       9.04289592      18.46422111      -0.07475183       0.00778849       0.08606750       0.62694882       1.01665741       1.10782010
Cs      13.53846555       2.30279987      18.23246273      -0.04073198       0.02611999       0.05452012       0.26524288       0.52140891       1.36607852
Pb       3.91383745      25.23554599      21.59426275       0.21811944       0.25316405      -0.04649459       1.79134410       2.81329359       2.01912161
Pb      10.07206943       5.86194736      21.57853398       0.10207708       0.14373433      -0.06510968      -0.76356246       0.71962885      -1.45215846
Pb       3.70084720       6.11200352      21.58707336       0.07054276       0.08106147       0.06508864      -0.24679636      -2.40938204      -2.40907677
Pb      10.39157570      24.82850774      21.63382038      -0.09562736       0.37310645      -0.03791209       3.62448198       1.95673478      -0.63153914
Pb       3.89401768      25.26578650      15.31882801       0.01947172      -0.02851454       0.10852402      -2.14703749       1.63331775      -2.74235943
Pb      10.11221816       6.17605420      15.24367736       0.01630383      -0.14154493      -0.14860789       2.34431185      -3.69245886       0.23591541
Pb       3.86656572       6.21513669      15.21755557      -0.08462900       0.20394228       0.19139725      -0.09714284       1.02120455       2.04664539
Pb      10.14441611      25.07602409      15.21786904      -0.00210266       0.21773553       0.11951140      -1.31985852       0.45914759       0.90448451
I        3.06312739       3.00424251      21.96421970       0.08984013      -0.14130062      -0.00344777       0.37014902      -0.04766147       1.08111581
I        9.68848671       9.17944790      21.87166594      -0.09787169      -0.10412218       0.07350104      -0.25600952      -0.11996099       2.15294874
I       16.68733152       9.23502847      20.64867331       0.07090636      -0.06282916       0.16562305      -1.35524676       0.40093806       0.95050098
I       10.65171799       2.78179454      20.92188162       0.03060823      -0.01332651       0.11022522      -0.69813686       3.64510311      -2.41805043
I       13.19607520       6.50884679      22.08349358       0.01675725      -0.07440436      -0.05644550       0.53448197      -0.99529102       1.90867841
I        7.12987160      12.91514634      21.85119999      -0.12989239       0.04833683       0.09621236       0.77597428       2.23210800      -1.74135775
I        6.89167858       5.49253662      20.92218726      -0.12785433       0.00344361       0.05075309      -1.37198875      -1.14687181       2.30654254
I       13.55942208      24.54899081      20.96050496      -0.21983578      -0.02477774       0.12788042       1.15136175       0.25130889      -0.21021479
I       17.13751488       9.15503710      15.60903181      -0.07088275       0.18298869       0.04057853       0.94607609      -0.74840333       1.18776751
I       10.74556942       3.07480132      15.78911319      -0.07344518      -0.12124339      -0.19767100      -1.10462724       2.44236080      -1.91276562
I        3.25022457       3.08138748       2.47585057      -0.06871858       0.10048746      -0.21731009       1.71562656      -2.48481167      -1.14476844
I        9.73160521       9.39461831       2.03466352      -0.05113559      -0.05500907      -0.02261888       0.49141893      -1.49683189      -1.75838459
I        6.96204982       6.01391984       2.89120410      -0.01884516      -0.16988550       0.13683336      -1.29729143      -0.12290000      -0.52788421
I       13.26343884      24.82072125       3.48464088       0.18586175       0.03027113      -0.13518233       0.06522040       0.26930710       1.23114259
I       13.26941495       6.81053742      14.80725004      -0.03834939      -0.03951580      -0.06768256       1.60495310      -0.50724256      -0.80934621
I        7.08063991      13.30071189      15.06636434       0.14194875      -0.12163192      -0.06549065      -1.52241186       0.00745158       0.03692401
I        3.43847374      11.63271720      24.63343039       0.04618565       0.05698153       0.15861797      -0.39498821       0.06842410      -0.08510432
I        9.62447315       5.39228669      24.70688306       0.06750010       0.01230719      -0.18074959      -1.04864240       0.93831558       2.06578459
I       16.65744853       0.19854308      18.21900710       0.04199646      -0.10414152      -0.03330172       0.35482649       2.64985253      -1.57022332
I       10.30323359       6.83205060      18.31317614       0.07932576      -0.08392879      -0.04300992       0.33354137      -0.61371672      -1.54154453
I        2.95257728       6.01148402      18.40788147       0.00241319      -0.15227484      -0.24549287       0.32399599      -0.84905679       0.52169999
I        9.72000948      12.21668267      18.29341921       0.02939303      -0.16623551      -0.05441852      -0.15314314      -3.12883070      -1.64199938
I       17.02047656       6.43873965      24.48587545       0.08845569       0.02474499       0.07182069      -0.39090188      -0.46173426      -1.39981512
I       10.64292971      -0.45872620      24.72011577       0.08340738       0.09245848      -0.32245509       1.29188309       1.01307879       1.35336868
Cs      13.56446678      21.45460933       5.60259434      -0.02623992       0.11155827       0.08066957      -1.61401354      -0.93897202       2.40891824
Cs       7.44132320      15.43126977       5.80582184      -0.06626462      -0.07216296      -0.04759910      -0.12717765       1.60092987       1.05172443
Cs       6.57046835      15.84338861      12.23131962      -0.06669869       0.04661156      -0.08722281       1.43387467      -0.63753132       0.75859056
Cs      12.71011714      22.05765271      12.14483176       0.08362698      -0.01027552      -0.04447289       0.68920024      -0.88450737      -1.56462582
Cs      13.16931092      16.51658606      11.56548938       0.12100516      -0.05568670       0.11526440       0.83239324       1.09691421      -1.70683843
Cs       6.70243381      22.47627253      11.89614694       0.10481603       0.04424564       0.04323331      -0.00920206       1.67532588      -0.13000693
Cs       7.22270780      21.86731020       5.54867746      -0.06710948      -0.10045337       0.13232708       0.79756603      -2.96472945       2.59456722
Cs      13.36732503      15.23631576       5.57130460       0.18702359       0.04149301       0.05415408       1.03178813      -0.42462203      -0.05465268
Pb       3.73813014      12.53035223       9.00954335       0.02735364      -0.02566652      -0.39174795       1.61396010      -0.66127810       2.62391746
Pb       9.96711319      18.91111404       8.91398891       0.06971305       0.02476903      -0.04947946      -0.63205587      -0.87787271       1.93320524
Pb       3.72543007      18.58810140       9.13927830      -0.05205927       0.25317977      -0.13682797      -0.80507350       0.79456497       1.34775057
Pb      10.28334411      12.58683534       8.83699728      -0.06073931       0.13127126      -0.04563977       0.78324534       2.39162478       0.57492585
Pb       3.66437784      12.58760954       2.39410320      -0.01794888       0.29437989       0.17124208       1.97924645       1.11886685      -2.30051189
Pb       9.92640262      18.93880091       2.53123705      -0.06441269      -0.04592067       0.16085214      -1.67893962       0.59519905       0.47818645
Pb       3.61178265      18.96416510       2.60015112       0.36335722      -0.29628058       0.22243507       0.84577332       1.90386113       2.72674095
Pb      10.09856365      12.50715200       2.61568801      -0.01305015      -0.04511619      -0.13283250       0.78582265       0.42587426      -0.08432595
I        3.13027430      15.54625555       9.51030994      -0.04591165       0.42781797       0.13208278      -0.25097001      -2.57363462       0.67635697
I        9.91945094      21.99948029       9.35649321      -0.14174463       0.30789002       0.00920020       0.44595458      -1.17021375       1.82446979
I       17.30175817      22.18447858       8.48292335      -0.05925592      -0.06133509      -0.10773553       1.23518445      -0.91068375      -0.15420429
I       10.84509385      15.71777160       8.29108984      -0.08403211      -0.14332644       0.02674958       0.34808433       0.11920854      -2.05226440
I       13.14374128      19.39818911       9.11479584       0.21527596       0.01727420       0.03060124      -0.26152996       1.19832731      -1.66218251
I        6.89173603       0.39466155       9.13952579       0.34520898      -0.01982672      -0.02589268       0.11812254       0.68205625       2.88381268
I        6.84773466      18.37441219       8.17998135       0.04721883      -0.00896016       0.15234716       0.75469287      -0.96848727      -0.52545590
I       13.40736386      11.71805722       8.04442684      -0.10115416       0.09633119       0.11749790      -0.72417507       0.27532582      -0.08025867
I       16.60811644      21.97823844       3.08764387       0.16229734       0.30791096       0.03354902      -2.05810629      -1.18946999      -1.03124284
I       10.67900236      15.69783048       2.92158110      -0.07683606       0.15095028      -0.05494240      -0.61471800       0.12195894      -1.73494657
I        3.60582800      15.95732421      14.69170206      -0.01229585      -0.16435776       0.12548712      -1.03617593       0.79109500      -0.77973399
I        9.45742657      22.04872120      14.96493563       0.00434084      -0.08421784      -0.11175665      -1.08928718       0.55705616      -2.17054189
I        6.98420706      18.32770588      15.83632160       0.22341076      -0.04694717       0.08539465      -1.05032596      -1.57136675      -0.04919799
I       13.42236322      11.88484767      15.86977391      -0.21287805      -0.02582284      -0.05777070       0.36294621      -0.74370860      -0.45165713
I       13.10962147      19.33534338       2.00522548       0.09988924      -0.06674399       0.10942916       0.57412497      -0.50676282       0.25595397
I        6.98659519       0.74978166       1.73246100      -0.14662951      -0.02722867       0.04539469       0.28610292       1.68211447      -1.03210842
I        3.37531932      24.67742561      12.17057506       0.06866615       0.02145899       0.23515577       0.60430439      -0.57704466      -1.08894303
I        9.77570714      18.09177298      12.15456444      -0.00771991       0.15072126      -0.05661227      -0.66732400      -0.19390953       3.16154591
I       16.94880838      13.11364348       5.78317245       0.02072317       0.02743170      -0.33619539       0.38875150       1.59885337       3.37632894
I       10.42631406      19.29360435       5.68866583      -0.05830624      -0.00265026       0.06708257      -1.55749979      -1.81329174      -2.89581761
I        3.04865505      18.48133975       5.89248479       0.02514533       0.00612107       0.06603219      -0.08674482       0.44305000       1.32870787
I        9.75161376      24.86288290       5.90875364      -0.19113007       0.10074068      -0.14087703      -1.28144647       1.51215848      -0.02299899
I       16.33703812      19.49241657      12.14569018       0.16608108      -0.07988081      -0.06358758       0.27769611      -2.31161011      -1.32631164
I       10.70040729      13.26123098      11.87991997       0.03550940      -0.04600171       0.28181502       0.45723474      -1.16324444      -0.76671994
Cs      14.22726096      21.80900237      18.47587827      -0.01327241      -0.18212793       0.01565917      -0.14363140       0.26934589       0.32003436
Cs       7.67674809      15.37958456      18.31918429      -0.02004259       0.00990949       0.04880308       0.78371160      -0.70581486       1.06091601
Cs       6.85249515      15.75550901      24.68256769      -0.10391741      -0.05674218       0.11053653      -0.99079961      -1.64948572       2.04996733
Cs      13.05895520      21.64581148      24.90857491      -0.00840578       0.20508524       0.00952877       0.45847968       0.02940106      -1.09473434
Cs      12.72327142      15.73610367      25.17885911       0.13561695      -0.02918105      -0.13378920       0.81377340       0.21269232      -1.06610049
Cs       6.93801115      22.52367431      24.74385450      -0.02970150       0.05956039      -0.02112493       1.22772639       0.24954979       0.52907190
Cs       7.48117854      21.37411563      19.03790598      -0.00045196       0.07247332      -0.13343052       0.57112094      -2.66104525       2.20136667
Cs      13.85513874      15.36150205      18.40320342       0.01475621      -0.07562779       0.07813376       0.09754274       1.14611270      -1.65131911
Pb       3.98378974      12.65659345      21.61008011       0.03463309      -0.18646862       0.12852579       0.50662129       0.67876494       2.35914677
Pb      10.40153182      18.63279536      21.55985607      -0.00019970      -0.14823912      -0.00955706       1.23741926       3.23224604       0.26382923
Pb       4.01367109      18.91102867      21.79618758      -0.07699921      -0.09379360      -0.07442869      -2.47392921      -0.78665026       1.71920674
Pb      10.37175053      12.25286227      21.48442199      -0.20128737       0.00599637       0.17708675       1.98439077      -1.47244428      -2.55729067
Pb       3.94749299      12.72540324      15.37223274      -0.07330197      -0.02461710      -0.03543229       2.62009646       1.51202114      -3.03398436
Pb      10.27885105      18.75645576      15.35103279      -0.09310497       0.03402227      -0.04019010      -1.72120110      -0.30931692       2.15999306
Pb       4.14715876      19.17806697      15.57813049      -0.27178073      -0.23332800      -0.18195015      -0.99871802      -0.91853191       0.57615484
Pb      10.29981738      12.52619159      15.16363878       0.06084007       0.08923801      -0.03234803       0.50880521       0.25813244       0.42939784
I        3.14437428      15.83944048      22.34580330       0.26792575      -0.22790876      -0.12188469      -2.23196350      -0.23530150      -1.67963847
I        9.74783685      21.87383110      21.92588417      -0.03078986      -0.20223983       0.09059388       0.38542349       2.49600165       0.22883624
I       17.28895042      21.91227320      21.36545931      -0.04031755      -0.02008955       0.04618044       1.56730054      -0.19757945      -0.71599141
I       10.99967437      15.47615440      21.41017987      -0.01477597       0.23682683      -0.09878411       1.07280105       0.14990010      -0.60716544
I       13.68401920      19.21362275      22.04776645      -0.48967326       0.01248725      -0.00838673       0.71241111       0.76477609       0.56949655
I        7.05224083       0.36519463      21.67351514       0.08453389      -0.09154466       0.06273113       1.47229050      -0.42296967      -0.80968138
I        7.12887382      18.05221893      21.19251204       0.24643264       0.05583730       0.03025204      -1.07943923      -0.86353494       0.12899792
I       13.24942953      11.72272802      21.11153274       0.43255094      -0.00953642      -0.01560792      -1.34781263       0.13150390       1.12384420
I       17.33704140      21.79761603      16.04973038      -0.11487971       0.46461557      -0.10331689      -1.01325909       1.00503783       1.37732971
I       10.94895289      15.67349286      15.99650033      -0.10424046       0.09039314      -0.12501157       0.79219943      -0.36144237       1.84242638
I        3.22743603      15.80178170       1.94275951       0.00594560      -0.13600361      -0.01937982      -0.24577866       0.11877899       0.50293047
I        9.24648388      22.12566792       2.33966211       0.11133529      -0.03651795       0.01128954      -0.10839211      -0.11461297       0.97296432
I        6.83777119      18.27018488       3.22617121      -0.01654348       0.00807113      -0.07338691       1.52567114       0.00200216      -0.33766387
I       13.28518912      12.08812994       3.16664579       0.20687858       0.06315476      -0.11607237      -1.75660162      -1.83074038       1.11485810
I       13.26715773      19.47806387      15.31449818       0.02755917       0.06562202      -0.16471831      -0.79830183      -0.70062393      -0.94708294
I        6.94043006       0.63363832      14.31544698      -0.18667661      -0.13847021       0.07518738      -0.97413287       0.38972137       1.40426358
I        3.40271772      24.68850636      24.87372869       0.09029507      -0.02464515      -0.20121317       0.33387289       1.16231016      -0.24498654
I        9.78569291      18.25428979      24.74524270      -0.00544657       0.08621202      -0.02576974       3.33187976       2.60624175      -1.09606814
I       17.06717564      12.98981857      18.32059632      -0.09273585      -0.04071552       0.20509001       0.27147216      -0.48189169      -0.23079467
I       10.62294435      19.46534474      18.46721481       0.13557599      -0.07813801       0.09612761       0.77044550      -2.11320642      -0.99019183
I        3.34170884      18.58935160      18.59707449       0.04799178      -0.03150457       0.19215564       0.03072219      -0.37863288      -0.31824043
I        9.67896847      24.76339272      18.42289645       0.04816649      -0.12353995       0.12154022       0.01976310       1.88185298      -0.05736543
I       17.09492270      19.40033103      24.85931959       0.08279564      -0.11085151       0.03619684      -1.84007731      -1.41958478       1.77654655
I       10.64751121      12.39826661      24.79232777      -0.00509810       0.12594416      -0.13076102      -0.50954633       0.64369673       0.42456060
Cs       1.44783312       9.19252684       5.39585765      -0.17303190       0.06322607       0.12668548       1.66220200      -0.99555072       0.01483969
Cs      20.47580307       3.23299797       5.51858020      -0.02758990      -0.08822974      -0.00074996      -1.36292693      -1.15251751      -2.29687610
Cs      19.18933206       3.27388648      11.97697090       0.03312064       0.07627543      -0.07951481       0.44445359      -2.63494078      -1.20357220
Cs       0.31339876       9.89297109      12.21587483      -0.02213414      -0.04325092      -0.06176827       0.26561769      -1.94679868       1.23099580
Cs       0.20948161       3.34174867      11.91169370       0.07216476       0.09068302      -0.01050888       1.25612158       0.13682232       1.33772502
Cs      19.30218340       9.37130023      12.00134086       0.10222902       0.13683974       0.04610706      -1.20358491       1.11836988       0.15118701
Cs      19.94083009       8.76669146       5.71851572       0.05973608       0.04010437      -0.18082296       1.23066634       2.46551100       2.00612214
Cs       0.88421768       2.53763969       5.30173574      -0.04440036      -0.03573883       0.06715644      -1.18320587       1.06417717      -0.31856078
Pb      16.64321093      25.45729071       8.90692654      -0.30451598      -0.13716282      -0.16068118      -0.86091175       1.00981560      -0.89185206
Pb      22.95290829       6.44474936       8.62892546      -0.11181140      -0.09629328      -0.00022119       3.22408203       2.10036747      -1.52109001
Pb      16.40570175       6.42444127       8.59013278       0.21658820      -0.30376824       0.05104760       0.42365764      -1.16137312      -1.05392454
Pb      22.88323061      25.44492896       8.89159340       0.13704762      -0.24000868       0.06064447      -3.16400261       2.88881611      -1.20447745
Pb      16.51934606      25.38907304       2.72076086      -0.07690531      -0.12865842       0.00822862      -0.26100631      -0.53563519       0.77768985
Pb      22.72610506       6.17857471       2.18325883       0.29797718       0.34644929       0.03730146       2.39853181      -1.42466976       1.23861788
Pb      16.37982000       6.34341812       2.11841626       0.00535454       0.04885332       0.06210313       1.44445182       0.36928940       1.66517904
Pb      22.95391227      25.19656923       2.59383354      -0.08541780       0.08222145      -0.21854662       2.13334139      -2.02598367       0.12431188
I       15.97667024       3.04542806       9.33174317      -0.06349240       0.14195989       0.00148227       0.22618149       1.80214211       0.09390543
I       22.38972996       9.49351907       9.33356149      -0.08319216      -0.20858656       0.00577545       0.06146086       0.47573941       1.01510479
I        4.12848075       9.56078112       8.28759722       0.12785314      -0.46889773       0.02154011       0.61956712       1.98376037       0.41638566
I       23.48304283       3.16392137       8.07299663       0.01113872      -0.09557945      -0.01993790      -0.03538079       1.59041618      -0.83461785
I        0.58313844       7.04668193       9.41962854       0.24998681      -0.10205720       0.01189882      -1.08586944      -0.48046165       0.11599700
I       19.75557514      12.91041577       9.71247524      -0.22814337       0.07797677      -0.12327470      -0.30046680       2.35215007      -1.66708985
I       19.57077352       5.73530673       8.48257254       0.14955150       0.02542520      -0.06012711      -2.23974024       1.38326769       0.65509573
I        0.70335584      24.86204050       8.50710024      -0.06630556       0.01633491       0.03263853       0.52960900      -1.32607888       1.06389621
I        4.34667164       9.50907296       3.00515920       0.02654793      -0.11475308       0.06421492       0.13773890      -0.80876781       0.10595554
I       23.59206348       3.16233621       2.30414248      -0.04703149      -0.19883472       0.10178097      -0.75427528      -1.32833334      -1.00170495
I       15.89060922       2.91136655      14.66037694      -0.04638130      -0.18484076      -0.07414505      -1.16342885       1.45980633      -1.29361435
I       22.50983804       9.37709713      14.70474891      -0.11028972      -0.04479170      -0.15913463       1.05485562       1.83220911      -0.43704446
I       19.63509138       5.67804181      15.61582285       0.01212569      -0.05746316      -0.00209328       1.50801286       1.05999915       0.80671596
I        0.48121539      24.38176406      15.72664950       0.28176215       0.22069645      -0.09292341       0.48863026       0.04118615       1.71941000