320
Lattice="36.61494431704515 0.8521064442996575 0.6472952383376436 -0.4899562435077865 21.43320960287554 0.4582089290160639 -0.349194964961731 -0.4123068262220005 19.635594233834194" Properties=species:S:1:pos:R:3:forces:R:3:momenta:R:3 pbc="T T T"
Cs       7.96209569      19.85268770       1.68529134      -0.06329178      -0.07358770       0.01570893      -0.08086524      -0.90357035       4.64367105
Cs      14.35245487       7.14818767      18.77157917      -0.10925225      -0.04770320       0.00625623      -0.42412913      -1.20057943      -0.18772518
Cs       5.20702086       3.82685659       1.30660945       0.12335659      -0.08245294       0.13487657      -2.00238546       0.24879492      -0.90573568
Cs      17.10226299       2.03541624      18.59099414       0.05259709      -0.15842295       0.13215989      -0.31616661      -1.88902603      -0.99018933
Cs       7.64150369      19.73927328       6.61049489       0.08891944      -0.08656344      -0.00627553      -0.81193229      -1.91866749      -2.25615177
Cs      14.33085303       7.55189735       4.17165055       0.09692918      -0.09977994      -0.10275111      -0.41383804      -0.93442093      -1.02087884
Cs       5.51806934       3.48574775       6.38561760      -0.05781642       0.01404928      -0.21529167      -1.12592211       1.17042533      -1.19124055
Cs      17.37149627       1.92937631       4.07606621       0.12972782       0.10155800      -0.12690752       0.38131964      -0.74296917      -0.81262511
Pb       2.71439448      20.05854010      18.91954606      -0.20946440      -0.14536646       0.21592641       1.67705231       5.42681714       2.67769251
Pb      19.23790025       6.79204529       1.45820437       0.44804711      -0.25550601       0.35147726      -1.05182640       0.22784976      -0.45105276
Pb       9.94719306       4.18376383      18.75466035       0.09988932       0.13240477       0.00279963      -0.63653274       3.58535639      -0.69901256
Pb      12.51851066       1.06958098       1.19360967      -0.18263732       0.11907044       0.05748316       0.08607330       1.62696063      -0.24130341
Pb       2.87700229      20.41243478       4.25983065       0.22343131      -0.08724362      -0.32371752       3.45987111       1.45880716      -0.46826216
Pb      19.40655563       6.49161725       6.51379640       0.00410329       0.04493572      -0.16942404      -0.07333004      -0.58578813      -1.21678573
Pb      10.42721212       4.73521966       3.98208120      -0.38626535      -0.05630810      -0.10316176      -0.83828361      -1.35867961       0.81394960
Pb      12.49809568       1.36084845       5.98266619       0.06110823      -0.41445083       0.25356474      -2.50074929      -2.11812508       1.32503545
I        2.57235303       0.98906555       1.21690807      -0.23638944      -0.11158098       0.19842414      -0.28551864       0.61518577      -0.09142539
I        2.04993692       4.11658769      18.41800961      -0.10010221      -0.11223316      -0.09698148       0.46054839      -1.25323792       4.16105254
I       11.47555880       6.47556302       1.59274121       0.02434454       0.13257097      -0.19733877       0.94110378       0.82958221      -0.50189774
I       10.66671490      20.44531365      18.81429460       0.08470198       0.09618614      -0.08283934      -1.69487536       1.44565715      -1.15225532
I       17.86647114      19.03321983      19.20436314      -0.10066019       0.10375615      -0.26536387       1.75160757      -2.62731208       0.09817326
I        3.99856243       7.57706865       1.47631760       0.16909590       0.23845095      -0.01018997       0.99968687      -0.59288954       3.48341139
I       13.11350705       2.84134023      18.51499600      -0.01552051       0.04479031       0.13858678       0.40244571      -1.15769039       0.95905064
I        9.23614475       2.68361472       1.58807650       0.37432765      -0.08216512      -0.31955181       0.45664553      -0.74061341      -1.42712327
I        5.76526464       0.12986762      18.44458832       0.38528978       0.18168734       0.07037055       0.68502514      -0.37651412       1.41006318
I       16.71843623       5.08660117       1.55392940      -0.38838991      -0.05040805       0.03722069       1.76659282       0.50818014      -0.04006806
I        7.20224437       5.59684352      18.70455484       0.03825162       0.08113322      -0.06213089      -0.92760961       0.80721651       1.79977124
I       14.79323725      21.10691806       1.99977251       0.01731023       0.18812133      -0.12945365       1.38532927       0.28259606       0.61755170
I        2.40788886       0.72755855       6.18824226      -0.24321455       0.13980253       0.02405523       1.24307479       1.90143579       0.93257864
I        2.24432706       4.34422077       3.75060840      -0.13233989       0.12909712       0.12991475       0.57650467      -0.15371360       0.28022471
I       11.44058831       6.41891470       6.35432652      -0.12811230      -0.02930393       0.40136192      -0.04205036      -0.08278275       1.30289123
I       10.87667986      20.68847262       4.21711679       0.06208562       0.15198256      -0.05994932       0.92679476      -0.64094209      -0.92238098
I       18.20085530      19.26620622       4.20490830      -0.09083269       0.17802901       0.17900117       0.66639524      -1.14574987      -1.11438362
I        4.03656935       7.55618863       6.51797576       0.09981684       0.04227747      -0.28809653      -1.34319778      -1.31303812       1.41997529
I       13.41527997       3.33185936       3.67292946       0.07234435      -0.19911069       0.06352636      -0.13369664       2.25958253       1.61728681
I        9.38293719       2.56670980       6.34863986       0.03302842      -0.11247697      -0.02175309      -1.69309624      -1.45775260       1.15025546
I        6.14109902       0.43633236       3.61010026      -0.05260978       0.05139219       0.08622581      -2.53970040       2.34077611      -0.76475842
I       16.57163535       5.17467910       6.35492585      -0.05243233      -0.11170405       0.05117500       1.31543677      -1.46173094      -1.47821013
I        7.52105370       6.01776399       3.88140216       0.03967274      -0.01086520       0.02939419       0.61720978      -0.51269155       0.67370912
I       14.82260299      21.16767343       6.80670663      -0.17904774       0.15593784       0.00166845       1.12112227       1.37591218       1.62021189
Cs       7.78749820      19.64653429      11.50308846      -0.06329178      -0.07358770       0.01570893      -0.08086524      -0.90357035       4.64367105
Cs      14.52705235       7.35434109       8.95378206      -0.10925225      -0.04770320       0.00625623      -0.42412913      -1.20057943      -0.18772518
Cs       5.03242338       3.62070318      11.12440657       0.12335659      -0.08245294       0.13487657      -2.00238546       0.24879492      -0.90573568
Cs      17.27686047       2.24156966       8.77319703       0.05259709      -0.15842295       0.13215989      -0.31616661      -1.88902603      -0.99018933
Cs       7.46690620      19.53311987      16.42829201       0.08891944      -0.08656344      -0.00627553      -0.81193229      -1.91866749      -2.25615177
Cs      14.15625555       7.34574394      13.98944767       0.09692918      -0.09977994      -0.10275111      -0.41383804      -0.93442093      -1.02087884
Cs       5.34347186       3.27959434      16.20341472      -0.05781642       0.01404928      -0.21529167      -1.12592211       1.17042533      -1.19124055
Cs      17.19689879       1.72322290      13.89386333       0.12972782       0.10155800      -0.12690752       0.38131964      -0.74296917      -0.81262511
Pb       2.88899196      20.26469351       9.10174895      -0.20946440      -0.14536646       0.21592641       1.67705231       5.42681714       2.67769251
Pb      19.06330277       6.58589188      11.27600149       0.44804711      -0.25550601       0.35147726      -1.05182640       0.22784976      -0.45105276
Pb      10.12179054       4.38991725       8.93686324       0.09988932       0.13240477       0.00279963      -0.63653274       3.58535639      -0.69901256
Pb      12.34391318       0.86342757      11.01140679      -0.18263732       0.11907044       0.05748316       0.08607330       1.62696063      -0.24130341
Pb       2.70240480      20.20628137      14.07762777       0.22343131      -0.08724362      -0.32371752       3.45987111       1.45880716      -0.46826216
Pb      19.23195815       6.28546384      16.33159352       0.00410329       0.04493572      -0.16942404      -0.07333004      -0.58578813      -1.21678573
Pb      10.25261464       4.52906625      13.79987832      -0.38626535      -0.05630810      -0.10316176      -0.83828361      -1.35867961       0.81394960
Pb      12.32349820       1.15469504      15.80046331       0.06110823      -0.41445083       0.25356474      -2.50074929      -2.11812508       1.32503545
I        2.39775555       0.78291214      11.03470519      -0.23638944      -0.11158098       0.19842414      -0.28551864       0.61518577      -0.09142539
I        2.22453440       4.32274111       8.60021250      -0.10010221      -0.11223316      -0.09698148       0.46054839      -1.25323792       4.16105254
I       11.30096132       6.26940961      11.41053833       0.02434454       0.13257097      -0.19733877       0.94110378       0.82958221      -0.50189774
I       10.84131238      20.65146706       8.99649749       0.08470198       0.09618614      -0.08283934      -1.69487536       1.44565715      -1.15225532
I       18.04106862      19.23937324       9.38656603      -0.10066019       0.10375615      -0.26536387       1.75160757      -2.62731208       0.09817326
I        3.82396495       7.37091524      11.29411472       0.16909590       0.23845095      -0.01018997       0.99968687      -0.59288954       3.48341139
I       13.28810453       3.04749365       8.69719889      -0.01552051       0.04479031       0.13858678       0.40244571      -1.15769039       0.95905064
I        9.06154727       2.47746131      11.40587362       0.37432765      -0.08216512      -0.31955181       0.45664553      -0.74061341      -1.42712327
I        5.93986212       0.33602104       8.62679121       0.38528978       0.18168734       0.07037055       0.68502514      -0.37651412       1.41006318
I       16.54383875       4.88044776      11.37172652      -0.38838991      -0.05040805       0.03722069       1.76659282       0.50818014      -0.04006806
I        7.37684185       5.80299694       8.88675773       0.03825162       0.08113322      -0.06213089      -0.92760961       0.80721651       1.79977124
I       14.61863976      20.90076465      11.81756963       0.01731023       0.18812133      -0.12945365       1.38532927       0.28259606       0.61755170
I        2.23329138       0.52140514      16.00603938      -0.24321455       0.13980253       0.02405523       1.24307479       1.90143579       0.93257864
I        2.06972958       4.13806736      13.56840552      -0.13233989       0.12909712       0.12991475       0.57650467      -0.15371360       0.28022471
I       11.26599083       6.21276129      16.17212364      -0.12811230      -0.02930393       0.40136192      -0.04205036      -0.08278275       1.30289123
I       10.70208237      20.48231921      14.03491391       0.06208562       0.15198256      -0.05994932       0.92679476      -0.64094209      -0.92238098
I       18.02625781      19.06005281      14.02270542      -0.09083269       0.17802901       0.17900117       0.66639524      -1.14574987      -1.11438362
I        3.86197187       7.35003522      16.33577288       0.09981684       0.04227747      -0.28809653      -1.34319778      -1.31303812       1.41997529
I       13.24068249       3.12570595      13.49072658       0.07234435      -0.19911069       0.06352636      -0.13369664       2.25958253       1.61728681
I        9.20833971       2.36055639      16.16643698       0.03302842      -0.11247697      -0.02175309      -1.69309624      -1.45775260       1.15025546
I        5.96650154       0.23017895      13.42789738      -0.05260978       0.05139219       0.08622581      -2.53970040       2.34077611      -0.76475842
I       16.39703787       4.96852569      16.17272297      -0.05243233      -0.11170405       0.05117500       1.31543677      -1.46173094      -1.47821013
I        7.34645622       5.81161058      13.69919928       0.03967274      -0.01086520       0.02939419       0.61720978      -0.51269155       0.67370912
I       14.64800550      20.96152002      16.62450375      -0.17904774       0.15593784       0.00166845       1.12112227       1.37591218       1.62021189
Cs       8.20707381       9.13608290       1.45618687      -0.06329178      -0.07358770       0.01570893      -0.08086524      -0.90357035       4.64367105
Cs      14.10747674      17.86479248      19.00068364      -0.10925225      -0.04770320       0.00625623      -0.42412913      -1.20057943      -0.18772518
Cs       4.96204274      14.54346139       1.53571391       0.12335659      -0.08245294       0.13487657      -2.00238546       0.24879492      -0.90573568
Cs      16.85728486      12.75202105      18.82009861       0.05259709      -0.15842295       0.13215989      -0.31616661      -1.88902603      -0.99018933
Cs       7.88648181       9.02266848       6.38139042       0.08891944      -0.08656344      -0.00627553      -0.81193229      -1.91866749      -2.25615177
Cs      14.08587491      18.26850215       4.40075501       0.09692918      -0.09977994      -0.10275111      -0.41383804      -0.93442093      -1.02087884
Cs       5.27309122      14.20235255       6.61472206      -0.05781642       0.01404928      -0.21529167      -1.12592211       1.17042533      -1.19124055
Cs      17.12651815      12.64598111       4.30517067       0.12972782       0.10155800      -0.12690752       0.38131964      -0.74296917      -0.81262511
Pb       2.95937260       9.34193530      18.69044160      -0.20946440      -0.14536646       0.21592641       1.67705231       5.42681714       2.67769251
Pb      18.99292213      17.50865009       1.68730883       0.44804711      -0.25550601       0.35147726      -1.05182640       0.22784976      -0.45105276
Pb       9.70221493      14.90036864      18.98376482       0.09988932       0.13240477       0.00279963      -0.63653274       3.58535639      -0.69901256
Pb      12.27353254      11.78618578       1.42271413      -0.18263732       0.11907044       0.05748316       0.08607330       1.62696063      -0.24130341
Pb       3.12198041       9.69582998       4.03072618       0.22343131      -0.08724362      -0.32371752       3.45987111       1.45880716      -0.46826216
Pb      19.16157751      17.20822205       6.74290086       0.00410329       0.04493572      -0.16942404      -0.07333004      -0.58578813      -1.21678573
Pb      10.18223400      15.45182446       4.21118566      -0.38626535      -0.05630810      -0.10316176      -0.83828361      -1.35867961       0.81394960
Pb      12.25311756      12.07745325       6.21177065       0.06110823      -0.41445083       0.25356474      -2.50074929      -2.11812508       1.32503545
I        2.32737491      11.70567035       1.44601253      -0.23638944      -0.11158098       0.19842414      -0.28551864       0.61518577      -0.09142539
I        1.80495879      14.83319250      18.64711408      -0.10010221      -0.11223316      -0.09698148       0.46054839      -1.25323792       4.16105254
I       11.23058068      17.19216782       1.82184567       0.02434454       0.13257097      -0.19733877       0.94110378       0.82958221      -0.50189774
I       10.91169302       9.72870885      18.58519014       0.08470198       0.09618614      -0.08283934      -1.69487536       1.44565715      -1.15225532
I       18.11144926       8.31661503      18.97525868      -0.10066019       0.10375615      -0.26536387       1.75160757      -2.62731208       0.09817326
I        3.75358431      18.29367345       1.70542206       0.16909590       0.23845095      -0.01018997       0.99968687      -0.59288954       3.48341139
I       12.86852892      13.55794504      18.74410047      -0.01552051       0.04479031       0.13858678       0.40244571      -1.15769039       0.95905064
I        8.99116663      13.40021952       1.81718096       0.37432765      -0.08216512      -0.31955181       0.45664553      -0.74061341      -1.42712327
I        5.52028651      10.84647243      18.67369279       0.38528978       0.18168734       0.07037055       0.68502514      -0.37651412       1.41006318
I       16.47345811      15.80320597       1.78303386      -0.38838991      -0.05040805       0.03722069       1.76659282       0.50818014      -0.04006806
I        6.95726624      16.31344833      18.93365931       0.03825162       0.08113322      -0.06213089      -0.92760961       0.80721651       1.79977124
I       15.03821537      10.39031326       1.77066804       0.01731023       0.18812133      -0.12945365       1.38532927       0.28259606       0.61755170
I        2.16291074      11.44416335       6.41734672      -0.24321455       0.13980253       0.02405523       1.24307479       1.90143579       0.93257864
I        1.99934894      15.06082557       3.97971286      -0.13233989       0.12909712       0.12991475       0.57650467      -0.15371360       0.28022471
I       11.19561019      17.13551950       6.58343098      -0.12811230      -0.02930393       0.40136192      -0.04205036      -0.08278275       1.30289123
I       11.12165798       9.97186782       3.98801232       0.06208562       0.15198256      -0.05994932       0.92679476      -0.64094209      -0.92238098
I       18.44583342       8.54960142       3.97580383      -0.09083269       0.17802901       0.17900117       0.66639524      -1.14574987      -1.11438362
I        3.79159123      18.27279343       6.74708022       0.09981684       0.04227747      -0.28809653      -1.34319778      -1.31303812       1.41997529
I       13.17030185      14.04846416       3.90203392       0.07234435      -0.19911069       0.06352636      -0.13369664       2.25958253       1.61728681
I        9.13795907      13.28331460       6.57774432       0.03302842      -0.11247697      -0.02175309      -1.69309624      -1.45775260       1.15025546
I        5.89612090      11.15293716       3.83920472      -0.05260978       0.05139219       0.08622581      -2.53970040       2.34077611      -0.76475842
I       16.32665723      15.89128390       6.58403031      -0.05243233      -0.11170405       0.05117500       1.31543677      -1.46173094      -1.47821013
I        7.27607558      16.73436879       4.11050662       0.03967274      -0.01086520       0.02939419       0.61720978      -0.51269155       0.67370912
I       15.06758111      10.45106863       6.57760216      -0.17904774       0.15593784       0.00166845       1.12112227       1.37591218       1.62021189
Cs       8.03247633       8.92992949      11.27398399      -0.06329178      -0.07358770       0.01570893      -0.08086524      -0.90357035       4.64367105
Cs      14.28207423      18.07094589       9.18288652      -0.10925225      -0.04770320       0.00625623      -0.42412913      -1.20057943      -0.18772518
Cs       4.78744526      14.33730798      11.35351103       0.12335659      -0.08245294       0.13487657      -2.00238546       0.24879492      -0.90573568
Cs      17.03188235      12.95817446       9.00230149       0.05259709      -0.15842295       0.13215989      -0.31616661      -1.88902603      -0.99018933
Cs       7.71188433       8.81651507      16.19918754       0.08891944      -0.08656344      -0.00627553      -0.81193229      -1.91866749      -2.25615177
Cs      13.91127743      18.06234874      14.21855213       0.09692918      -0.09977994      -0.10275111      -0.41383804      -0.93442093      -1.02087884
Cs       5.09849374      13.99619914      16.43251918      -0.05781642       0.01404928      -0.21529167      -1.12592211       1.17042533      -1.19124055
Cs      16.95192067      12.43982770      14.12296779       0.12972782       0.10155800      -0.12690752       0.38131964      -0.74296917      -0.81262511
Pb       3.13397009       9.54808871       8.87264448      -0.20946440      -0.14536646       0.21592641       1.67705231       5.42681714       2.67769251
Pb      18.81832465      17.30249668      11.50510595       0.44804711      -0.25550601       0.35147726      -1.05182640       0.22784976      -0.45105276
Pb       9.87681242      15.10652205       9.16596770       0.09988932       0.13240477       0.00279963      -0.63653274       3.58535639      -0.69901256
Pb      12.09893506      11.58003237      11.24051125      -0.18263732       0.11907044       0.05748316       0.08607330       1.62696063      -0.24130341
Pb       2.94738293       9.48967657      13.84852330       0.22343131      -0.08724362      -0.32371752       3.45987111       1.45880716      -0.46826216
Pb      18.98698003      17.00206864      16.56069798       0.00410329       0.04493572      -0.16942404      -0.07333004      -0.58578813      -1.21678573
Pb      10.00763652      15.24567105      14.02898278      -0.38626535      -0.05630810      -0.10316176      -0.83828361      -1.35867961       0.81394960
Pb      12.07852008      11.87129984      16.02956777       0.06110823      -0.41445083       0.25356474      -2.50074929      -2.11812508       1.32503545
I        2.15277743      11.49951694      11.26380965      -0.23638944      -0.11158098       0.19842414      -0.28551864       0.61518577      -0.09142539
I        1.97955628      15.03934591       8.82931696      -0.10010221      -0.11223316      -0.09698148       0.46054839      -1.25323792       4.16105254
I       11.05598320      16.98601441      11.63964279       0.02434454       0.13257097      -0.19733877       0.94110378       0.82958221      -0.50189774
I       11.08629051       9.93486226       8.76739302       0.08470198       0.09618614      -0.08283934      -1.69487536       1.44565715      -1.15225532
I       18.28604675       8.52276844       9.15746156      -0.10066019       0.10375615      -0.26536387       1.75160757      -2.62731208       0.09817326
I        3.57898683      18.08752004      11.52321918       0.16909590       0.23845095      -0.01018997       0.99968687      -0.59288954       3.48341139
I       13.04312641      13.76409845       8.92630335      -0.01552051       0.04479031       0.13858678       0.40244571      -1.15769039       0.95905064
I        8.81656915      13.19406611      11.63497808       0.37432765      -0.08216512      -0.31955181       0.45664553      -0.74061341      -1.42712327
I        5.69488400      11.05262584       8.85589567       0.38528978       0.18168734       0.07037055       0.68502514      -0.37651412       1.41006318
I       16.29886063      15.59705256      11.60083098      -0.38838991      -0.05040805       0.03722069       1.76659282       0.50818014      -0.04006806
I        7.13186373      16.51960174       9.11586219       0.03825162       0.08113322      -0.06213089      -0.92760961       0.80721651       1.79977124
I       14.86361789      10.18415985      11.58846516       0.01731023       0.18812133      -0.12945365       1.38532927       0.28259606       0.61755170
I        1.98831326      11.23800994      16.23514384      -0.24321455       0.13980253       0.02405523       1.24307479       1.90143579       0.93257864
I        1.82475146      14.85467216      13.79750998      -0.13233989       0.12909712       0.12991475       0.57650467      -0.15371360       0.28022471
I       11.02101271      16.92936609      16.40122810      -0.12811230      -0.02930393       0.40136192      -0.04205036      -0.08278275       1.30289123
I       10.94706050       9.76571441      13.80580944       0.06208562       0.15198256      -0.05994932       0.92679476      -0.64094209      -0.92238098
I       18.27123594       8.34344801      13.79360095      -0.09083269       0.17802901       0.17900117       0.66639524      -1.14574987      -1.11438362
I        3.61699375      18.06664002      16.56487734       0.09981684       0.04227747      -0.28809653      -1.34319778      -1.31303812       1.41997529
I       12.99570437      13.84231075      13.71983104       0.07234435      -0.19911069       0.06352636      -0.13369664       2.25958253       1.61728681
I        8.96336159      13.07716119      16.39554144       0.03302842      -0.11247697      -0.02175309      -1.69309624      -1.45775260       1.15025546
I        5.72152342      10.94678375      13.65700184      -0.05260978       0.05139219       0.08622581      -2.53970040       2.34077611      -0.76475842
I       16.15205975      15.68513049      16.40182743      -0.05243233      -0.11170405       0.05117500       1.31543677      -1.46173094      -1.47821013
I        7.10147810      16.52821538      13.92830374       0.03967274      -0.01086520       0.02939419       0.61720978      -0.51269155       0.67370912
I       14.89298363      10.24491522      16.39539928      -0.17904774       0.15593784       0.00166845       1.12112227       1.37591218       1.62021189
Cs      26.26956785      20.27874093       2.00893896      -0.06329178      -0.07358770       0.01570893      -0.08086524      -0.90357035       4.64367105
Cs      32.65992702       7.57424090      19.09522679      -0.10925225      -0.04770320       0.00625623      -0.42412913      -1.20057943      -0.18772518
Cs      23.51449302       4.25290981       1.63025707       0.12335659      -0.08245294       0.13487657      -2.00238546       0.24879492      -0.90573568
Cs      35.40973514       2.46146947      18.91464176       0.05259709      -0.15842295       0.13215989      -0.31616661      -1.88902603      -0.99018933
Cs      25.94897585      20.16532651       6.93414251       0.08891944      -0.08656344      -0.00627553      -0.81193229      -1.91866749      -2.25615177
Cs      32.63832519       7.97795057       4.49529817       0.09692918      -0.09977994      -0.10275111      -0.41383804      -0.93442093      -1.02087884
Cs      23.82554150       3.91180097       6.70926522      -0.05781642       0.01404928      -0.21529167      -1.12592211       1.17042533      -1.19124055
Cs      35.67896843       2.35542953       4.39971383       0.12972782       0.10155800      -0.12690752       0.38131964      -0.74296917      -0.81262511
Pb      21.02186664      20.48459332      19.24319368      -0.20946440      -0.14536646       0.21592641       1.67705231       5.42681714       2.67769251
Pb       0.93042809       6.36599207       1.13455675       0.44804711      -0.25550601       0.35147726      -1.05182640       0.22784976      -0.45105276
Pb      28.25466521       4.60981706      19.07830797       0.09988932       0.13240477       0.00279963      -0.63653274       3.58535639      -0.69901256
Pb      30.82598282       1.49563420       1.51725729      -0.18263732       0.11907044       0.05748316       0.08607330       1.62696063      -0.24130341
Pb      21.18447445      20.83848801       4.58347827       0.22343131      -0.08724362      -0.32371752       3.45987111       1.45880716      -0.46826216
Pb       1.09908347       6.06556403       6.19014878       0.00410329       0.04493572      -0.16942404      -0.07333004      -0.58578813      -1.21678573
Pb      28.73468428       5.16127288       4.30572882      -0.38626535      -0.05630810      -0.10316176      -0.83828361      -1.35867961       0.81394960
Pb      30.80556784       1.78690167       6.30631381       0.06110823      -0.41445083       0.25356474      -2.50074929      -2.11812508       1.32503545
I       20.87982519       1.41511877       1.54055569      -0.23638944      -0.11158098       0.19842414      -0.28551864       0.61518577      -0.09142539
I       20.35740907       4.54264092      18.74165723      -0.10010221      -0.11223316      -0.09698148       0.46054839      -1.25323792       4.16105254
I       29.78303096       6.90161624       1.91638883       0.02434454       0.13257097      -0.19733877       0.94110378       0.82958221      -0.50189774
I       28.97418706      20.87136687      19.13794222       0.08470198       0.09618614      -0.08283934      -1.69487536       1.44565715      -1.15225532
I       -0.44100102      18.60716660      18.88071552      -0.10066019       0.10375615      -0.26536387       1.75160757      -2.62731208       0.09817326
I       22.30603459       8.00312187       1.79996522       0.16909590       0.23845095      -0.01018997       0.99968687      -0.59288954       3.48341139
I       31.42097920       3.26739346      18.83864362      -0.01552051       0.04479031       0.13858678       0.40244571      -1.15769039       0.95905064
I       27.54361691       3.10966794       1.91172412       0.37432765      -0.08216512      -0.31955181       0.45664553      -0.74061341      -1.42712327
I       24.07273679       0.55592085      18.76823594       0.38528978       0.18168734       0.07037055       0.68502514      -0.37651412       1.41006318
I       35.02590839       5.51265439       1.87757702      -0.38838991      -0.05040805       0.03722069       1.76659282       0.50818014      -0.04006806
I       25.50971652       6.02289675      19.02820246       0.03825162       0.08113322      -0.06213089      -0.92760961       0.80721651       1.79977124
I       33.10070941      21.53297129       2.32342013       0.01731023       0.18812133      -0.12945365       1.38532927       0.28259606       0.61755170
I       20.71536102       1.15361177       6.51188988      -0.24321455       0.13980253       0.02405523       1.24307479       1.90143579       0.93257864
I       20.55179922       4.77027399       4.07425602      -0.13233989       0.12909712       0.12991475       0.57650467      -0.15371360       0.28022471