320
Lattice="25.356093371687486 -0.1065490082268892 -0.19187677835240669 0.07755788227136919 25.376386568457004 0.27590338859444424 0.1691801122122475 -0.29781874292918886 25.404906270035514" Properties=species:S:1:pos:R:3:forces:R:3:momenta:R:3 energy=-966.8658413942953 stress="0.0 0.0 0.0 0.0 0.0 0.0 0.0 0.0 0.0" pbc="T T T"
Cs      14.42830572       8.71329749       5.43421534      -0.11035919       0.10737576       0.16950337       2.69016790      -3.14024956      -4.87438688
Cs       7.79442802       2.89925455       5.67145359       0.01640157      -0.13449907      -0.01882829       0.92740634       1.60521889       0.69270964
Cs       6.45521662       3.18657517      11.99565448       0.12817439      -0.22508356       0.06111382       0.27316651      -3.83714278      -1.11786941
Cs      12.27736983       9.27915875      11.94384462       0.12836646       0.15627291       0.01498489      -0.66864106      -0.22737581      -0.48475082
Cs      13.41671711       3.45705801      11.96768994       0.00079076       0.06988603      -0.03191819       2.11114359      -1.86680346       0.00617388
Cs       7.02614101       9.89310828      11.56686424      -0.27187195      -0.14269603       0.36958990       2.13600072      -0.05904107      -0.33779190
Cs       7.76470947       8.57019883       5.72328037      -0.38301189       0.11665046      -0.11835475       0.37732237       1.59343327      -0.94396195
Cs      13.89973743       1.56619159       6.04381713      -0.04506429       0.18513717      -0.14725850      -1.55147384       0.06485229      -0.42960220
Pb       4.16148766      24.95398064       9.10729269      -0.20609614      -0.31507905      -0.13782755      -4.90946969      -0.17162013       0.10524315
Pb      10.72134486       6.20244567       8.95277904       0.01005541       0.07108092       0.16484064      -1.16131768       3.39780341      -2.71673427
Pb       4.35298506       5.94775386       8.99372853      -0.54290646      -0.16156281       0.34305044       0.92257770      -0.34901758       2.92982303
Pb      10.57952267      25.14496727       8.94197043      -0.37886893      -0.15092508       0.20027362       0.45261507      -4.24249887      -2.96317925
Pb       3.90615831      25.11385192       3.13578515      -0.29043154       0.13642509      -0.55610708      -1.41205024       6.44455059       0.47596221
Pb      10.35166328       5.89534977       2.56809287      -0.29927510       0.04945381      -0.00455800       0.17609771      -3.98041889      -1.63462173
Pb       3.92523647       6.11675280       2.74375290       0.01320235      -0.09245848      -0.05988965      -1.70255855       3.20017058      -1.53541216
Pb      10.16067603      25.06479720       2.77495599      -0.27556461      -0.05996599      -0.41262466       1.14492265      -0.45422777      -3.65337205
I        3.44856302       2.64751471       9.35299091       0.04107843       0.04446985       0.02793152      -2.58181051       2.67143221       1.76191792
I        9.76355227       9.21080429       9.91310513       0.17653460      -0.25821187      -0.36795524       1.24567890      -5.14406491      -1.48562705
I       17.64224082       8.78690966       8.25907981      -0.15569952       0.43652947       0.11288610       2.31447691       0.92811419      -1.79985705
I       11.06471345       2.96299219       8.48767603      -0.10179985      -0.33969466      -0.09591069      -0.71661883      -0.35065374       2.76478094
I       14.04051968       6.47611026       9.39959220      -0.76279074      -0.02212600      -0.00153312       0.58998209       0.52770157       1.30356875
I        6.85982488      12.41842843       8.90562424      -0.31755573       0.10159471       0.02437718       0.00681417      -0.78278444       1.93385785
I        7.28018961       5.57421294       8.25513647       0.29627298      -0.00547593       0.08113506      -0.18118295      -3.31020967       0.67044900
I       13.45722801      24.21907746       8.36750834       0.13260783       0.06286914       0.12042100       0.78433881       1.15687609      -1.38897005
I       16.97110083       8.93568250       2.91111945      -0.01541028       0.01704678      -0.01199526      -1.84963888       2.48001572       0.57651596
I       10.98296788       2.96545530       2.77600164      -0.07988179      -0.08889822       0.17096631      -0.26656577      -2.38403318       0.33543175
I        3.38170743       2.47045424      14.39354699       0.02506196      -0.11148953       0.11966280      -2.57468697       0.75149497      -3.35852512
I        9.99803664       8.98818818      14.75256061      -0.09147052       0.29058013      -0.09778252      -0.22991174       1.66633028       1.42391182
I        7.11127407       5.28176777      15.78651076       0.15355864      -0.01931600       0.06958206       0.72480846      -0.85931543       0.13845510
I       13.33281822      24.56276214      15.83675381       0.39890369       0.07826827      -0.04924546       1.16103996      -2.96616217      -3.90200093
I       13.35969770       6.36770052       1.86436834      -0.07124062       0.08165276       0.00462634      -1.48596790      -5.13483037       3.91679880
I        6.94736019      12.92912306       1.80283224       0.17279810      -0.05561808      -0.06874432      -1.36456476      -2.56860059       1.41598930
I        2.90632494      11.54831418      12.01674332       0.33611319       0.07268139      -0.36816352      -1.31320169       1.48768499       0.11266566
I        9.58703360       5.41226128      11.89194774       0.33612764       0.04126434       0.37234275       1.29165675      -0.60954296       0.37329966
I       17.36748224      -0.34654099       5.72937616      -0.04534633       0.04466405      -0.09878034      -2.02508341       0.25541003       3.32216832
I       10.63906253       6.90292597       5.63386136       0.23219905      -0.12593353       0.15004371       0.65046966      -2.74369505      -1.82390398
I        3.28876832       5.32629477       5.75947586       0.19201050       0.13724226       0.27038453      -0.41224365      -0.08688243       1.74753616
I        9.49068496      11.69808525       5.39465799       0.10747749       0.08536366       0.25049552       3.01663703      -0.28769931      -1.14429561
I       17.68559389       6.13296787      11.93001170       0.15828256       0.16950706      -0.03968130      -0.34461719       1.26065248      -1.34300058
I       11.52426117       0.17027862      11.64484860      -0.19855710      -0.07454178       0.19768887      -1.08396159       4.23211597      -2.63660088
Cs      13.46251993       8.40743105      18.74742610       0.15416142       0.25803527      -0.22288841       3.04577166       0.52980656      -0.16493430
Cs       7.08867047       2.14135659      18.13100485      -0.01630363      -0.04442302       0.04296814      -0.37488310      -0.49384676       0.58416141
Cs       7.11785842       2.63855160      24.67938090      -0.16403036       0.04355771       0.01848166       0.63502198      -2.51857183      -1.46688905
Cs      13.64699365       8.77379211      24.30632343      -0.02442745       0.12103571      -0.07977842      -0.03827248       1.93462543      -0.63335770
Cs      13.62974159       2.57877175      24.28440903      -0.34302823       0.10081270       0.08670850       1.26520755      -0.53538897      -3.80988312
Cs       6.99750661       9.19123464      24.86946404       0.02226820      -0.04773957       0.04749105       1.52816131      -0.97103827      -4.85832788
Cs       7.58040547       8.64711656      18.41890224       0.03593478      -0.04350324      -0.26834610      -3.86086662       1.18082971       0.15404150
Cs      13.85603361       2.58997486      18.31215008      -0.26060495      -0.13321500       0.14121575       0.34283898       3.81257932      -2.66484373
Pb       4.00193598      24.63381023      21.86336912      -0.25332785       0.01547496      -0.11820559      -4.93604572       0.53948545      -4.27764249
Pb      10.06663448       5.69151809      21.59860406       0.24910705      -0.15413645       0.08873025      -1.12716463       2.89574950      -1.17642606
Pb       4.25889521       5.99379837      21.76539992      -0.28611575      -0.29325366      -0.26667543      -0.75587099      -0.06410225       5.78576057
Pb       9.99608691      24.74431760      21.53742019       0.78644033      -0.20010727      -0.07735921      -2.74615154      -1.82396396       1.84259282
Pb       4.11634220      24.41584199      15.26842066      -0.24461850       0.18270347       0.02381301       1.61604756       2.26827425       0.26757622
Pb      10.56752224       5.59558861      15.41356992      -0.49523364       0.28381022      -0.50042042       0.66641241       0.78017455      -1.12277098
Pb       3.93377195       5.34021175      15.49576102       0.10349720       0.51447165      -0.20239704       0.02766178       0.94691982       0.68837230
Pb      10.26978699      24.80814122      14.92999096       0.06205839      -0.06915368       0.31434224      -1.86779221       0.96053865       0.11742970
I        3.91665102       2.71174390      21.71203226      -0.05030957      -0.29345335       0.03006656       2.08810166       0.66821668       2.77112782
I        9.31631255       8.83084220      21.24865407       0.12312420      -0.05453592       0.30525608       0.83793446      -1.45978877       1.73107938
I       16.61918043       8.77595194      20.92649600       0.17885722       0.19793270      -0.06523359       2.29581162       0.44000749      -0.40684008
I       10.39512720       2.51452292      21.01412048       0.14008688      -0.04239086      -0.10191985       4.09502278      -3.58690204      -1.13994185
I       13.36692991       5.84925719      21.55492862       0.10332377       0.02046311       0.04885792      -0.86624944      -0.53617543      -4.60885535
I        6.96792600      12.26168758      22.45755485       0.22576543       0.14187254      -0.10910030      -0.90183914       0.32815774       2.34642986
I        7.11928015       5.13492884      21.04410254      -0.07709156      -0.14397513      -0.10934114      -1.11986360       0.44279110      -3.54348591
I       13.47135616      23.96923397      21.70771006      -0.05436412       0.26992997       0.04936689      -1.19584531      -0.55786887      -2.39168180
I       16.83496633       9.14450834      15.95660034       0.07235932      -0.24927254      -0.13534900      -0.68664677       2.27450401       1.49073489
I       10.57616211       2.80957681      15.60835884       0.16034451      -0.46492109       0.02483176       3.76663326       1.17818578       3.82497804
I        3.72756398       2.78878501       1.70646328      -0.15001394       0.21538544       0.06858818      -3.36554835       0.53549229      -1.36864675
I       10.09716175       9.32750316       1.94667564      -0.12009105      -0.52259178      -0.16197484       0.99713121      -1.05854746       0.06028803
I        6.92475387       5.63659861       3.13446858       0.61002924       0.01063986      -0.08894414       2.16532543       0.63881423       1.41479273
I       13.30025142      25.53582012       3.54599758       0.42819208      -0.52302701      -0.08774328      -1.06785381       2.17051901       2.26101560
I       13.53851674       6.20153678      14.40746276      -0.21925867       0.04233516       0.03244362       0.35457525      -0.29910822      -0.54834403
I        6.80386724      12.68641316      14.15966526       0.49787486      -0.08548943       0.18772953      -1.09456739      -2.58202995       1.29471342
I        3.49158351      10.80876495      24.55430694       0.00260725       0.12103717       0.09641103      -0.96080911       1.59994669       1.47639523
I        9.83058819       5.47175779      24.81074949       0.19889693      -0.10587857      -0.08695215       1.07795770       0.01392341       1.02420021
I       16.54155249      -0.21069576      18.45197708       0.20581017       0.05180272      -0.16804135      -1.97938437      -0.45585826       2.57432144
I       10.93130686       6.11218871      18.50777881      -0.17232511      -0.04527327      -0.40711974      -2.31478446       0.11792178      -0.45667948
I        3.44700710       5.02276574      18.58306916       0.02273518       0.18576489      -0.20143945      -0.58849814       2.51027268      -1.32039897
I       10.04155631      11.65376988      18.14744565      -0.20254215       0.24707463      -0.08268276       0.06382123       0.64333527       1.34452721
I       16.38352430       6.19384626      24.45901864       0.18629975      -0.00315151       0.43520931       4.20956896       2.20000245       2.41829950
I       10.28072776      -0.15479284      24.57014065       0.00652925      -0.02426900      -0.05726462       1.07756344      -1.29582600      -1.40042170
Cs      14.66337421      21.76755378       5.53260301      -0.23865526      -0.08700976      -0.05487303      -0.90397311       3.73959171      -2.32991549
Cs       6.96173560      14.77157187       5.32480938       0.13785772       0.14018598       0.07427621       0.46559767       1.79227793       0.50402921
Cs       6.24503420      15.18461381      11.66124598       0.15392357       0.16186462      -0.06210510      -4.36128286       1.89928659      -3.12139722
Cs      13.14434434      21.87860204      12.10419501      -0.03894023       0.05212671       0.02810817       1.85880093      -0.91281119       0.34864912
Cs      12.89002083      15.84349871      12.12871461       0.16937077      -0.03652939      -0.06617447      -5.60132991       3.18032838       1.14210720
Cs       6.78322575      21.40077251      12.06526408      -0.04463089       0.00594261       0.08119582       3.37325802      -1.79925030       3.06262409
Cs       7.11580482      21.68019605       5.54756625      -0.00668165      -0.11177019      -0.10009202       2.97368581      -3.40169623      -0.47486271
Cs      13.44556201      15.18093002       5.38358903       0.08511094      -0.27972458       0.11075297       2.75158035      -3.32265944       1.56514064
Pb       3.50145743      11.87652921       8.86990807      -0.12226662       0.25759191       0.02557072      -4.33194592      -4.59812535      -1.47384131
Pb      10.43327424      19.03322493       8.80435011      -0.13873562      -0.68424907      -0.20901141       2.94887710      -0.02816718       2.01059397
Pb       4.06208043      18.20455129       8.57990753      -0.11611334       0.38418490       0.24243540      -0.52183586      -1.22910817       3.22006358
Pb      10.11709502      12.37700595       8.42457661       0.16016500       0.17309145      -0.04248431      -0.12603234      -3.00377404      -0.52170139
Pb       3.80828603      12.60491239       2.36345674       0.21690891      -0.55935950      -0.29509287       1.48836216       1.43681005      -0.06848436
Pb      10.31852201      18.56903613       2.58790399      -0.16375373       0.05023666       0.12325712      -3.99922835       0.55770157       2.01531118
Pb       3.99172852      18.67897429       2.05430762       0.15264805      -0.19033429       0.12225743      -3.23560946      -0.82108297      -0.45785446
Pb      10.43002644      12.04537400       2.17245739      -0.31272262       0.45079584       0.16639761       3.06785758      -2.39181651       2.84064012
I        3.27051889      15.19342949       9.13766590      -0.13784001      -0.18825930       0.07936002       2.38003852       1.15281866      -2.32491356
I        9.46704219      21.76029699       9.65482049       0.18371952       0.41564047      -0.13956365      -2.18194076       1.67249663       0.75325249
I       17.12674709      21.80942315       8.56696524       0.21049237      -0.61840532      -0.21071204       1.07563820       0.22824279       3.66026425
I       11.08250214      15.41416218       8.34645258      -0.22956681       0.33773156      -0.07299427      -1.31081735       1.61290927       1.83121536
I       13.64282183      19.47636796       9.41604129      -0.33277296      -0.11353738      -0.04805384      -0.38403553      -0.95648322      -0.95133473
I        6.88850120       0.01764696       9.55492711       0.80835859      -0.00669384      -0.09979209       0.51656628       0.00004415      -0.65606078
I        7.20291043      17.51212537       8.43001233       0.13056851       0.22308439      -0.04423218      -0.40030917      -3.23326453      -3.04921666
I       13.20055314      11.43791136       8.56445243       0.15524373      -0.11736711      -0.29949438      -1.85860383       1.34178516      -2.20419793
I       16.95425744      21.56580305       3.21309212       0.07256391      -0.02881311       0.10085571       0.93526178      -4.95727219      -1.20704021
I       10.39996744      15.46806746       2.93990967       0.14361257       0.09372004      -0.03026787      -0.84333999      -0.32527846       2.42682009
I        3.37731900      15.08992160      15.04695604      -0.08982301       0.35298891      -0.13227920      -0.67735252       0.86634260      -1.96932337
I       10.02878481      21.68183507      14.79245409      -0.04413244       0.09543890      -0.03738016      -1.15094463       1.33643011      -0.94401620
I        7.13760612      17.60394505      15.54555457       0.44954205       0.07494543       0.09700812       1.18315215       1.57402054      -0.31820926
I       13.32957432      12.06556787      15.85283784      -0.26324353      -0.22877334      -0.07551893      -1.25317365       1.42763545       2.20381246
I       13.29379298      19.34650076       2.08052514       0.68282454      -0.19813822       0.11925742      -0.98584313       2.36265448       5.01363782
I        6.92329067      -0.00106883       2.11587299       0.36194931       0.12179027      -0.01852778      -3.49587910      -0.00710498      -0.64213735
I        3.76938233      23.72579950      12.13777766      -0.10154271       0.03190746      -0.40776959      -1.20428828      -3.77607570      -2.14273538
I        9.64109147      17.95799466      11.91184028      -0.03671791       0.02122439      -0.06687794      -2.32685245      -0.60377781      -0.05828076
I       17.28102057      12.88597086       5.56914590      -0.19212199      -0.06005726       0.27337625      -2.64859283       4.12873840      -0.62723712
I       10.63281312      19.89967485       5.60389893       0.11563188      -0.07187632       0.34142171      -1.42070164       3.85733487       0.83866412
I        3.80558933      17.79533907       5.56031313      -0.04209229       0.03881295      -0.31750956      -0.98478262       3.81998452       2.77230460
I       10.00548858      24.67631724       5.77144592      -0.20885076       0.03170537       0.26810303      -0.52480995      -0.22484637       0.50516504
I       17.69030698      19.22610627      12.04909822      -0.15016001      -0.10999031      -0.01088584       1.53926839       0.56615015       0.01336239
I       10.41457338      13.12923734      11.72862810      -0.00008866      -0.21864024       0.16567575       0.99497887      -2.81081473       0.93518179
Cs      13.81591617      21.83364858      18.54941340      -0.02697844      -0.23645767       0.05134048       0.59184122      -1.80334853       2.84218631
Cs       7.33800847      14.96693269      18.74803593       0.12872830      -0.08756278      -0.29708800       5.43874618       0.63710348      -1.38621581
Cs       7.53709676      15.87183724      24.26017112      -0.10498197      -0.18956529       0.23074787      -0.33845618      -0.18123012       2.22053272
Cs      12.52242577      21.78818157      24.84587853       0.07844940       0.09324451      -0.12054298       0.87329758      -4.57644099      -0.04257791
Cs      13.12424463      15.85660586      25.13854162       0.17536382      -0.11524140      -0.19349113       1.33185127      -0.94931947      -0.56980415
Cs       7.00572845      22.80897226      24.74074032       0.28866509      -0.27641790      -0.02867406      -2.85004723      -3.40133176      -0.28840359
Cs       7.93229455      20.71368859      18.50951735      -0.08520680       0.12335118       0.05985731      -0.49688178      -5.28423968      -0.87380044
Cs      13.40777398      15.02536345      18.38413756      -0.11730371      -0.00020166       0.07502165      -0.17635904       3.95424723      -0.69827833
Pb       4.08973516      11.96690956      21.62864576      -0.38608004       0.09218476       0.11305802      -0.48634222       0.02424451       0.08400478
Pb      10.35212600      18.15378892      21.36028202      -0.03603668       0.33092799       0.28297900      -5.98929263      -0.65745252      -6.51387159
Pb       3.85833907      18.25230573      21.60201696       0.09069849       0.07986419       0.05325970       2.26904132       0.16875804      -1.08458921
Pb      10.05465706      11.89799878      21.34543654       0.39191772      -0.14099670      -0.02648866       2.50232567      -0.60791277      -2.69423534
Pb       3.86682656      11.90556455      15.15948535      -0.09173184      -0.06714781      -0.05457682      -2.21340108       2.06332192       0.79118465
Pb      10.32876428      18.20045359      14.99834825      -0.17524331       0.17326805      -0.11555943      -0.04387679      -2.55053112       3.26813809
Pb       4.08096948      18.25976102      15.37712085      -0.19976143      -0.11547711      -0.19843437      -4.11325695       2.73051875       0.96988046
Pb      10.06788815      12.27028973      14.59972719       0.02939957      -0.19019368       0.47278615      -3.38823301      -2.49284150       0.08682789
I        3.58855806      15.20787245      22.50162985      -0.02963513      -0.27098691      -0.05046462      -0.01990558      -0.25441402       2.78086950
I        9.99889365      21.44501980      21.54554648      -0.26197831       0.12981381       0.16201108       1.30771665      -0.33997636       1.06540189
I       17.74888381      21.43716966      21.29344313      -0.11588929       0.06404941      -0.02352024       0.35548542      -2.36224701      -0.36715262
I       10.03194133      15.11681327      21.20987924       0.35956283      -0.15638704      -0.05448963       1.12790567       1.55941190      -1.09312033
I       13.56638329      18.88686434      22.22932121       0.06983950      -0.12111464      -0.14261640       0.96858757      -0.12416005      -1.17315465
I        6.89436331      -0.22173280      21.68662446       0.28451724       0.14459723       0.05639479      -3.07174352       1.21949639      -1.93583450
I        7.13254758      17.90262528      20.66166168       0.09135074       0.05334435       0.19530404       3.99338502       1.14951449       0.71851573
I       13.29413400      11.70099347      20.94650443       0.19148984       0.08548105       0.10346529      -1.09872345      -2.85036367      -0.27462421
I       16.87480918      21.72043444      16.17101386       0.15387160       0.09653809       0.07383125       1.42543550       3.12534315       1.56589624
I       10.82782214      15.46156706      15.63619520      -0.06319135      -0.36698488      -0.08472674       2.45629968       3.99801928       0.12512797
I        3.22867658      15.25176493       1.73105325      -0.04944679       0.55022963      -0.06348668       1.08287186       0.99365711      -2.10638112
I        9.93986957      21.79496411       1.97403144      -0.11618393       0.52205022       0.02010738       2.38985107      -1.67341063      -1.88930755
I        7.07272191      17.94467858       2.84081802      -0.06402727       0.11074292       0.06926220      -2.28048992      -0.93722905       0.69775422
I       13.47447022      12.20214353       3.22172304       0.05736251      -0.25331726      -0.02417195       0.72341186       1.40837848      -1.90926221
I       13.60937138      18.75358682      14.23690078      -0.44350351       0.08937709       0.10083865      -0.58001699       0.71666581       4.86254141
I        6.99411054      -0.33520417      14.54806653       0.22441905       0.19099931      -0.22748470       0.13059400      -2.34287418      -0.43551809
I        3.94142070      24.36560875      24.91896279      -0.09647742       0.18307835      -0.11003766      -0.37114119       1.86848984      -4.02417286
I       10.17967519      18.13746842      24.74211658       0.01044628       0.04818278      -0.22934774      -1.35923721      -0.74538966      -0.13080535
I       16.66213972      13.10706733      18.08420634       0.26195813      -0.01643721       0.41429967      -3.50060502       2.94065115      -2.60854986
I       10.98425171      18.10918824      18.23387727       0.20242551       0.26577583      -0.00443452       0.20491501      -1.78262970      -1.13434540
I        3.24997943      17.57158468      18.53604013       0.06465522       0.22057885      -0.08230906       2.93012901       0.20928661       1.64803531
I        9.91621055      24.39396013      18.27080337      -0.05469402       0.04324981      -0.03882260      -2.74968547       0.28068670       0.23023704
I       17.02026862      18.56161148      24.90238069      -0.00992935      -0.22228282      -0.17819777      -1.17896963       1.60934333       0.02964528
I       11.35218115      12.08165078      24.59098213      -0.06737169       0.04106143      -0.17562822      -1.15713233      -2.17968891       4.02055178
Cs       1.14659779       8.58924286       5.59881113       0.01399298       0.17411630       0.20760531       1.64807325      -1.83521663      -0.25732151
Cs      20.87692927       1.91718627       5.10621129      -0.15975772      -0.01910323       0.00604717       0.82930786      -0.14586712      -1.67637103
Cs      19.78428043       2.70267493      12.09047892       0.02407224       0.11705191      -0.13468550       1.94287681       0.24703439       1.83299400
Cs      -0.38314978       9.53933550      11.94598790       0.03095670      -0.09611524      -0.00850352       1.97084343       0.75330275      -0.11411074
Cs       0.46638707       3.32709490      11.94509103      -0.05717950       0.02632610      -0.01814387       3.98219849      -2.80756178      -0.42257643
Cs      19.25955156      10.27222037      11.96415342       0.03595478      -0.12000178      -0.10769864      -3.90560219       4.13202243      -0.45913788
Cs      19.70576279       8.88864666       5.30559237       0.22291445      -0.13504694       0.12399415       0.47420873      -1.80319232       2.62139002
Cs       1.21753447       2.38392792       5.39817716      -0.00178993      -0.14704304       0.05756154      -0.75861213       3.95675968       0.18427549
Pb      16.90027385      24.81214917       9.15397956       0.08009154       0.36461397       0.23452887      -2.36832794      -0.83014841      -0.05272434
Pb      23.10631305       5.78572978       8.63627781      -0.13131715       0.02355787       0.06261095       6.59229394       4.04580051      -4.18228181
Pb      17.33524021       5.79395611       8.97748347      -0.16121103      -0.12832393      -0.54236469       1.07021856      -2.46322577      -5.29070346
Pb      23.42472262      24.86584833       8.63690221      -0.04828450      -0.29815850      -0.46027859      -3.10052426       2.03950344      -0.21377964
Pb      16.48572290      24.82961192       2.63778501       0.40306507       0.53317670      -0.00483124      -0.43647915      -5.82986787      -7.04888556
Pb      22.65679412       5.93084088       2.38286391       0.10744515      -0.49798883       0.14451804      -1.34358721       0.93787745       3.73277693
Pb      16.33017040       6.00855499       2.64169592       0.36243860      -0.72990043       0.02458845      -2.70803542       1.55765680      -1.03619764
Pb      22.88898194      24.99917819       2.06768254       0.28841895       0.18855900       0.27913003       0.16736245       1.46792127       4.54870572
I       16.45715033       2.59860677       9.44170674      -0.11955842      -0.20758479       0.08770825      -3.59574545      -1.71970806       1.25611363
I       22.47931085       8.74145954       9.18781873      -0.38049805       0.40815701       0.10081590      -0.02080873       0.70841936       2.51262272
I        4.98822932       8.90973941       8.55989303      -0.20224057       0.12405272      -0.11892389      -0.74823806      -1.10096101      -2.24974372
I       24.06265211       2.53129974       8.19742963      -0.08279259       0.03530707       0.00855328       2.20508723       0.35264589      -2.43302753
I        0.80870548       6.51838838       9.46279829       0.37616646      -0.07039556      -0.11249794       0.76421237       0.24239388      -1.52713369
I       19.35247543      12.71713707       9.44832124       0.10856554       0.17549802       0.07028710      -1.38768610       3.14872209      -2.80308018
I       20.02406826       4.14406350       7.61735125       0.02372329       0.40518094       0.28666412       1.53839293       3.33132606      -0.98880348
I        0.96601106      24.28989190       7.89499616      -0.00976935      -0.07407440       0.09752031      -0.96157798       1.05400933       1.00847353
I        4.22187105       9.16075138       3.11694833       0.20393376      -0.08372557       0.07853514       0.93472739      -0.02942580       4.37680060
I       23.64523106       2.69924680       3.18584477      -0.22486835       0.36260434      -0.26355112      -1.71614941       2.06210489      -1.06642192
I       16.43476346       2.77637615      14.61580189      -0.12007019      -0.21972721      -0.06157091       3.48215266      -1.93429962       0.69028509
I       22.08818489       9.29586470      14.20803762       0.02465329      -0.49306630       0.09751004       2.58488880      -0.45696999       0.25695032
I       19.78390493       5.27792227      15.55845376       0.20040176       0.04433766       0.03972113      -1.51224785      -0.91079266       3.61906084
I        0.85726338      24.15359894      15.23147537      -0.11711197       0.07761879       0.12089654      -5.33445122       1.45609740       0.97723561