320
Lattice="36.61494431704515 0.8521064442996575 0.6472952383376436 -0.4899562435077865 21.43320960287554 0.4582089290160639 -0.349194964961731 -0.4123068262220005 19.635594233834194" Properties=species:S:1:pos:R:3:forces:R:3:momenta:R:3 pbc="T T T"
Cs       7.48177253      16.79182568      19.34193367      -0.02828789       0.00946715       0.07534875      -1.53735776      -0.61928834       0.27980240
Cs      14.19848613       4.48225066      17.07786215      -0.01537889      -0.01450730      -0.24239178      -0.45121143      -1.72438153       0.02953251
Cs       5.07903571       0.64301922      19.07585926      -0.01731304      -0.09862102      -0.03746561      -0.43641979      -1.56582181      -1.00127864
Cs      16.75221106      20.49167606      17.58221641      -0.07714044      -0.01066609      -0.19320291       0.89504121      -1.00904297      -1.59110038
Cs       7.80541050      16.76596152       4.61030482       0.00869937       0.12935438       0.02809592       0.05072775      -0.07459756      -0.27474767
Cs      14.19263540       4.37604351       2.04698461       0.13490624       0.17716457       0.28331610       0.69273535      -1.12086805      -0.48147736
Cs       5.31992643       0.88502948       4.24433925      -0.01704023       0.03455955       0.05743550      -4.02617403       0.28841971      -0.03048396
Cs      16.75570720      20.77841802       2.63376023       0.06980045       0.05187191       0.06146674      -0.26156853      -1.59645769      -1.74978263
Pb       2.59290073      17.48846756      16.94154710      -0.11391636      -0.14934710       0.08894615      -2.17719019      -1.25438053      -0.71521103
Pb      18.93012819       3.62967639      19.54273936      -0.03776596       0.34533953      -0.04120327      -1.47892682       1.31364256       1.34828744
Pb       9.86735507       1.69720269      16.95266611       0.15556773      -0.49271642      -0.49093724      -0.94749513      -3.89102354       0.25445440
Pb      11.93694096      19.44492712      19.56109623      -0.38018849      -0.16430135       0.03240555       0.06567064       1.23538073       0.44330856
Pb       2.89064572      17.97782902       2.24818255      -0.39235459      -0.28840875      -0.05227095      -0.88779585      -1.71859624      -5.03091228
Pb      19.12496226       3.94630189       4.76363770       0.03739899       0.38858352      -0.06041770      -0.07696036       2.89515942      -0.98977284
Pb      10.37181095       1.70194999       1.97993377      -0.12613929      -0.04637553       0.32065673      -0.26082219      -1.65174887      -3.48049035
Pb      11.91219626      19.71624344       4.88713102       0.11904191      -0.19264705       0.10786069       1.31169638       1.00864240       0.70549369
I        1.45957168      19.55641917      19.44113321       0.14215735      -0.24051892      -0.11577464       0.69772194      -0.81093223       1.24715684
I        1.98913369       1.64724220      16.69464037      -0.01611793      -0.12694330      -0.16180176      -1.19296291       0.58675605       0.22663667
I       11.06918001       3.35306968      19.19994746      -0.07249963      -0.00044883       0.09325551      -1.65362644      -2.65161125       1.22173425
I       10.76312291      17.49368057      17.24504184      -0.00230347       0.18783058      -0.16649572       0.55119228      -3.01036003       0.06358549
I       17.82768754      16.53778042      17.31957176       0.02790490      -0.18026078       0.03748159       0.21784385       0.25608969       0.18378269
I        3.69043993       4.70726599      19.27773519      -0.00170040       0.09573948       0.07331760       0.64522367       0.04281065       0.27216132
I       13.17975597       0.07611162      16.71899206      -0.30352558       0.05424867       0.09600134       1.15326478      -0.55412320      -1.13930162
I        8.60301365      20.73736351      19.67555435       0.08092010       0.15086514      -0.09297567       0.12202128      -0.33420938      -0.46468172
I        5.32737396      18.82206848      16.75389611       0.21116022       0.24951663       0.18368123       2.14930532       1.63521178       1.30556687
I       16.17792562       2.15529577      19.19418160       0.05156272      -0.13972291       0.16339376       0.17580914      -0.21792381       0.73234024
I        7.04477211       3.00365977      16.64529505       0.13562266      -0.07488148       0.09736034       0.70530230      -2.04865319      -1.44643052
I       14.54430374      17.86099227      19.82861792       0.07653484       0.13899885      -0.03336312       1.15965944       0.73893954       0.56081241
I        1.71094106      19.60755196       4.88667217      -0.08763332       0.13110343      -0.12719848       0.71335087      -0.89907144       0.71947592
I        1.96017361       1.75428648       2.02935179       0.09535060      -0.10026028      -0.05559995       0.37664790       1.03728607      -1.07554675
I       11.22965332       3.65548354       4.60634604      -0.01245352      -0.17378559       0.01190400      -1.89504280       0.85140431       0.30690744
I       10.79452578      17.87502925       2.40623638       0.21809646       0.17687927      -0.15966904       0.35888364      -1.84171586      -0.54428723
I       17.96333177      16.86020538       2.42296612       0.22628075      -0.21595035       0.17627961      -0.58921857      -1.85478731       0.10044116
I        3.99496570       5.06744575       4.27439957      -0.11237125       0.03148827       0.14493543       0.40987998      -0.56533210       2.43625820
I       13.49674400       0.32445452       2.05421098      -0.04524276       0.09255467       0.08280803       0.57487455       1.31384884      -0.30507197
I        8.84616415      21.04438940       4.83702734       0.12670537       0.37329831       0.10523368      -1.22366769       0.35338968      -1.83918341
I        5.53927981      19.35411170       2.39923785       0.26968915       0.07713135      -0.11873762      -0.03917954       0.93838058       0.18614016
I       16.46592188       2.43084981       4.79870103      -0.01655529      -0.09267991      -0.06435317       0.82901844       2.65745018      -0.98046386
I        7.68763692       3.26977662       1.87062005      -0.13436471      -0.09014701      -0.03102170       0.60229145      -0.74335626      -0.60121962
I       14.81475025      18.40661163       5.04189541      -0.17710679      -0.00280528      -0.07630392       1.50508838       0.72574810       0.19260897
Cs       7.65637001      16.99797909       9.52413656      -0.02828789       0.00946715       0.07534875      -1.53735776      -0.61928834       0.27980240
Cs      14.37308361       4.68840408       7.26006504      -0.01537889      -0.01450730      -0.24239178      -0.45121143      -1.72438153       0.02953251
Cs       5.25363319       0.84917264       9.25806215      -0.01731304      -0.09862102      -0.03746561      -0.43641979      -1.56582181      -1.00127864
Cs      16.92680854      20.69782947       7.76441930      -0.07714044      -0.01066609      -0.19320291       0.89504121      -1.00904297      -1.59110038
Cs       7.63081301      16.55980811      14.42810194       0.00869937       0.12935438       0.02809592       0.05072775      -0.07459756      -0.27474767
Cs      14.01803792       4.16989010      11.86478173       0.13490624       0.17716457       0.28331610       0.69273535      -1.12086805      -0.48147736
Cs       5.14532895       0.67887607      14.06213637      -0.01704023       0.03455955       0.05743550      -4.02617403       0.28841971      -0.03048396
Cs      16.58110971      20.57226461      12.45155735       0.06980045       0.05187191       0.06146674      -0.26156853      -1.59645769      -1.74978263
Pb       2.76749821      17.69462097       7.12374999      -0.11391636      -0.14934710       0.08894615      -2.17719019      -1.25438053      -0.71521103
Pb      19.10472567       3.83582981       9.72494225      -0.03776596       0.34533953      -0.04120327      -1.47892682       1.31364256       1.34828744
Pb      10.04195255       1.90335611       7.13486900       0.15556773      -0.49271642      -0.49093724      -0.94749513      -3.89102354       0.25445440
Pb      12.11153844      19.65108053       9.74329912      -0.38018849      -0.16430135       0.03240555       0.06567064       1.23538073       0.44330856
Pb       2.71604823      17.77167561      12.06597967      -0.39235459      -0.28840875      -0.05227095      -0.88779585      -1.71859624      -5.03091228
Pb      18.95036478       3.74014848      14.58143482       0.03739899       0.38858352      -0.06041770      -0.07696036       2.89515942      -0.98977284
Pb      10.19721347       1.49579658      11.79773089      -0.12613929      -0.04637553       0.32065673      -0.26082219      -1.65174887      -3.48049035
Pb      11.73759877      19.51009003      14.70492814       0.11904191      -0.19264705       0.10786069       1.31169638       1.00864240       0.70549369
I        1.63416916      19.76257258       9.62333610       0.14215735      -0.24051892      -0.11577464       0.69772194      -0.81093223       1.24715684
I        2.16373117       1.85339562       6.87684326      -0.01611793      -0.12694330      -0.16180176      -1.19296291       0.58675605       0.22663667
I       11.24377749       3.55922310       9.38215035      -0.07249963      -0.00044883       0.09325551      -1.65362644      -2.65161125       1.22173425
I       10.93772039      17.69983398       7.42724473      -0.00230347       0.18783058      -0.16649572       0.55119228      -3.01036003       0.06358549
I       18.00228502      16.74393383       7.50177465       0.02790490      -0.18026078       0.03748159       0.21784385       0.25608969       0.18378269
I        3.86503741       4.91341941       9.45993808      -0.00170040       0.09573948       0.07331760       0.64522367       0.04281065       0.27216132
I       13.35435345       0.28226504       6.90119495      -0.30352558       0.05424867       0.09600134       1.15326478      -0.55412320      -1.13930162
I        8.77761113      20.94351692       9.85775724       0.08092010       0.15086514      -0.09297567       0.12202128      -0.33420938      -0.46468172
I        5.50197144      19.02822189       6.93609900       0.21116022       0.24951663       0.18368123       2.14930532       1.63521178       1.30556687
I       16.35252310       2.36144919       9.37638449       0.05156272      -0.13972291       0.16339376       0.17580914      -0.21792381       0.73234024
I        7.21936959       3.20981319       6.82749794       0.13562266      -0.07488148       0.09736034       0.70530230      -2.04865319      -1.44643052
I       14.71890122      18.06714568      10.01082081       0.07653484       0.13899885      -0.03336312       1.15965944       0.73893954       0.56081241
I        1.53634357      19.40139855      14.70446929      -0.08763332       0.13110343      -0.12719848       0.71335087      -0.89907144       0.71947592
I        1.78557613       1.54813307      11.84714891       0.09535060      -0.10026028      -0.05559995       0.37664790       1.03728607      -1.07554675
I       11.05505584       3.44933013      14.42414316      -0.01245352      -0.17378559       0.01190400      -1.89504280       0.85140431       0.30690744
I       10.61992829      17.66887584      12.22403350       0.21809646       0.17687927      -0.15966904       0.35888364      -1.84171586      -0.54428723
I       17.78873428      16.65405197      12.24076324       0.22628075      -0.21595035       0.17627961      -0.58921857      -1.85478731       0.10044116
I        3.82036822       4.86129234      14.09219669      -0.11237125       0.03148827       0.14493543       0.40987998      -0.56533210       2.43625820
I       13.32214652       0.11830111      11.87200810      -0.04524276       0.09255467       0.08280803       0.57487455       1.31384884      -0.30507197
I        8.67156666      20.83823599      14.65482446       0.12670537       0.37329831       0.10523368      -1.22366769       0.35338968      -1.83918341
I        5.36468232      19.14795829      12.21703497       0.26968915       0.07713135      -0.11873762      -0.03917954       0.93838058       0.18614016
I       16.29132440       2.22469640      14.61649815      -0.01655529      -0.09267991      -0.06435317       0.82901844       2.65745018      -0.98046386
I        7.51303944       3.06362321      11.68841717      -0.13436471      -0.09014701      -0.03102170       0.60229145      -0.74335626      -0.60121962
I       14.64015276      18.20045822      14.85969253      -0.17710679      -0.00280528      -0.07630392       1.50508838       0.72574810       0.19260897
Cs       7.72675065       6.07522088      19.11282921      -0.02828789       0.00946715       0.07534875      -1.53735776      -0.61928834       0.27980240
Cs      13.95350800      15.19885547      17.30696662      -0.01537889      -0.01450730      -0.24239178      -0.45121143      -1.72438153       0.02953251
Cs       4.83405758      11.35962403      19.30496373      -0.01731304      -0.09862102      -0.03746561      -0.43641979      -1.56582181      -1.00127864
Cs      16.99718918       9.77507126      17.35311195      -0.07714044      -0.01066609      -0.19320291       0.89504121      -1.00904297      -1.59110038
Cs       8.05038862       6.04935672       4.38120035       0.00869937       0.12935438       0.02809592       0.05072775      -0.07459756      -0.27474767
Cs      13.94765728      15.09264831       2.27608907       0.13490624       0.17716457       0.28331610       0.69273535      -1.12086805      -0.48147736
Cs       5.07494831      11.60163428       4.47344371      -0.01704023       0.03455955       0.05743550      -4.02617403       0.28841971      -0.03048396
Cs      17.00068532      10.06181322       2.40465576       0.06980045       0.05187191       0.06146674      -0.26156853      -1.59645769      -1.74978263
Pb       2.83787885       6.77186276      16.71244264      -0.11391636      -0.14934710       0.08894615      -2.17719019      -1.25438053      -0.71521103
Pb      18.68515006      14.34628120      19.77184383      -0.03776596       0.34533953      -0.04120327      -1.47892682       1.31364256       1.34828744
Pb       9.62237694      12.41380750      17.18177058       0.15556773      -0.49271642      -0.49093724      -0.94749513      -3.89102354       0.25445440
Pb      12.18191908       8.72832232      19.33199177      -0.38018849      -0.16430135       0.03240555       0.06567064       1.23538073       0.44330856
Pb       3.13562384       7.26122422       2.01907808      -0.39235459      -0.28840875      -0.05227095      -0.88779585      -1.71859624      -5.03091228
Pb      18.87998414      14.66290669       4.99274216       0.03739899       0.38858352      -0.06041770      -0.07696036       2.89515942      -0.98977284
Pb      10.12683283      12.41855479       2.20903823      -0.12613929      -0.04637553       0.32065673      -0.26082219      -1.65174887      -3.48049035
Pb      12.15717438       8.99963864       4.65802655       0.11904191      -0.19264705       0.10786069       1.31169638       1.00864240       0.70549369
I        1.70454980       8.83981437      19.21202875       0.14215735      -0.24051892      -0.11577464       0.69772194      -0.81093223       1.24715684
I        1.74415556      12.36384701      16.92374484      -0.01611793      -0.12694330      -0.16180176      -1.19296291       0.58675605       0.22663667
I       10.82420188      14.06967449      19.42905193      -0.07249963      -0.00044883       0.09325551      -1.65362644      -2.65161125       1.22173425
I       11.00810103       6.77707577      17.01593738      -0.00230347       0.18783058      -0.16649572       0.55119228      -3.01036003       0.06358549
I       18.07266566       5.82117562      17.09046730       0.02790490      -0.18026078       0.03748159       0.21784385       0.25608969       0.18378269
I        3.44546180      15.42387080      19.50683966      -0.00170040       0.09573948       0.07331760       0.64522367       0.04281065       0.27216132
I       12.93477784      10.79271643      16.94809653      -0.30352558       0.05424867       0.09600134       1.15326478      -0.55412320      -1.13930162
I        8.84799177      10.02075871      19.44644989       0.08092010       0.15086514      -0.09297567       0.12202128      -0.33420938      -0.46468172
I        5.57235208       8.10546368      16.52479165       0.21116022       0.24951663       0.18368123       2.14930532       1.63521178       1.30556687
I       15.93294749      12.87190058      19.42328607       0.05156272      -0.13972291       0.16339376       0.17580914      -0.21792381       0.73234024
I        6.79979398      13.72026458      16.87439952       0.13562266      -0.07488148       0.09736034       0.70530230      -2.04865319      -1.44643052
I       14.78928186       7.14438747      19.59951346       0.07653484       0.13899885      -0.03336312       1.15965944       0.73893954       0.56081241
I        1.95591918       8.89094716       4.65756770      -0.08763332       0.13110343      -0.12719848       0.71335087      -0.89907144       0.71947592
I        1.71519549      12.47089128       2.25845625       0.09535060      -0.10026028      -0.05559995       0.37664790       1.03728607      -1.07554675
I       10.98467520      14.37208834       4.83545050      -0.01245352      -0.17378559       0.01190400      -1.89504280       0.85140431       0.30690744
I       11.03950390       7.15842445       2.17713191       0.21809646       0.17687927      -0.15966904       0.35888364      -1.84171586      -0.54428723
I       18.20830989       6.14360058       2.19386165       0.22628075      -0.21595035       0.17627961      -0.58921857      -1.85478731       0.10044116
I        3.74998758      15.78405055       4.50350403      -0.11237125       0.03148827       0.14493543       0.40987998      -0.56533210       2.43625820
I       13.25176588      11.04105932       2.28331544      -0.04524276       0.09255467       0.08280803       0.57487455       1.31384884      -0.30507197
I        9.09114227      10.32778460       4.60792287       0.12670537       0.37329831       0.10523368      -1.22366769       0.35338968      -1.83918341
I        5.78425793       8.63750690       2.17013338       0.26968915       0.07713135      -0.11873762      -0.03917954       0.93838058       0.18614016
I       16.22094376      13.14745461       5.02780549      -0.01655529      -0.09267991      -0.06435317       0.82901844       2.65745018      -0.98046386
I        7.44265880      13.98638142       2.09972451      -0.13436471      -0.09014701      -0.03102170       0.60229145      -0.74335626      -0.60121962
I       15.05972837       7.69000683       4.81279094      -0.17710679      -0.00280528      -0.07630392       1.50508838       0.72574810       0.19260897
Cs       7.90134814       6.28137429       9.29503209      -0.02828789       0.00946715       0.07534875      -1.53735776      -0.61928834       0.27980240
Cs      14.12810549      15.40500888       7.48916950      -0.01537889      -0.01450730      -0.24239178      -0.45121143      -1.72438153       0.02953251
Cs       5.00865507      11.56577744       9.48716661      -0.01731304      -0.09862102      -0.03746561      -0.43641979      -1.56582181      -1.00127864
Cs      17.17178667       9.98122467       7.53531483      -0.07714044      -0.01066609      -0.19320291       0.89504121      -1.00904297      -1.59110038
Cs       7.87579114       5.84320331      14.19899747       0.00869937       0.12935438       0.02809592       0.05072775      -0.07459756      -0.27474767
Cs      13.77305980      14.88649490      12.09388619       0.13490624       0.17716457       0.28331610       0.69273535      -1.12086805      -0.48147736
Cs       4.90035083      11.39548087      14.29124083      -0.01704023       0.03455955       0.05743550      -4.02617403       0.28841971      -0.03048396
Cs      16.82608784       9.85565981      12.22245288       0.06980045       0.05187191       0.06146674      -0.26156853      -1.59645769      -1.74978263
Pb       3.01247634       6.97801617       6.89464552      -0.11391636      -0.14934710       0.08894615      -2.17719019      -1.25438053      -0.71521103
Pb      18.85974755      14.55243461       9.95404671      -0.03776596       0.34533953      -0.04120327      -1.47892682       1.31364256       1.34828744
Pb       9.79697443      12.61996091       7.36397346       0.15556773      -0.49271642      -0.49093724      -0.94749513      -3.89102354       0.25445440
Pb      12.35651657       8.93447573       9.51419465      -0.38018849      -0.16430135       0.03240555       0.06567064       1.23538073       0.44330856
Pb       2.96102636       7.05507081      11.83687520      -0.39235459      -0.28840875      -0.05227095      -0.88779585      -1.71859624      -5.03091228
Pb      18.70538666      14.45675328      14.81053928       0.03739899       0.38858352      -0.06041770      -0.07696036       2.89515942      -0.98977284
Pb       9.95223535      12.21240138      12.02683535      -0.12613929      -0.04637553       0.32065673      -0.26082219      -1.65174887      -3.48049035
Pb      11.98257690       8.79348523      14.47582367       0.11904191      -0.19264705       0.10786069       1.31169638       1.00864240       0.70549369
I        1.87914729       9.04596778       9.39423163       0.14215735      -0.24051892      -0.11577464       0.69772194      -0.81093223       1.24715684
I        1.91875305      12.57000042       7.10594772      -0.01611793      -0.12694330      -0.16180176      -1.19296291       0.58675605       0.22663667
I       10.99879937      14.27582790       9.61125481      -0.07249963      -0.00044883       0.09325551      -1.65362644      -2.65161125       1.22173425
I       11.18269852       6.98322918       7.19814026      -0.00230347       0.18783058      -0.16649572       0.55119228      -3.01036003       0.06358549
I       18.24726315       6.02732903       7.27267018       0.02790490      -0.18026078       0.03748159       0.21784385       0.25608969       0.18378269
I        3.62005929      15.63002421       9.68904254      -0.00170040       0.09573948       0.07331760       0.64522367       0.04281065       0.27216132
I       13.10937533      10.99886984       7.13029941      -0.30352558       0.05424867       0.09600134       1.15326478      -0.55412320      -1.13930162
I        9.02258926      10.22691212       9.62865277       0.08092010       0.15086514      -0.09297567       0.12202128      -0.33420938      -0.46468172
I        5.74694957       8.31161709       6.70699453       0.21116022       0.24951663       0.18368123       2.14930532       1.63521178       1.30556687
I       16.10754498      13.07805399       9.60548895       0.05156272      -0.13972291       0.16339376       0.17580914      -0.21792381       0.73234024
I        6.97439147      13.92641799       7.05660240       0.13562266      -0.07488148       0.09736034       0.70530230      -2.04865319      -1.44643052
I       14.96387935       7.35054088       9.78171634       0.07653484       0.13899885      -0.03336312       1.15965944       0.73893954       0.56081241
I        1.78132170       8.68479375      14.47536482      -0.08763332       0.13110343      -0.12719848       0.71335087      -0.89907144       0.71947592
I        1.54059801      12.26473787      12.07625337       0.09535060      -0.10026028      -0.05559995       0.37664790       1.03728607      -1.07554675
I       10.81007772      14.16593493      14.65324762      -0.01245352      -0.17378559       0.01190400      -1.89504280       0.85140431       0.30690744
I       10.86490642       6.95227104      11.99492903       0.21809646       0.17687927      -0.15966904       0.35888364      -1.84171586      -0.54428723
I       18.03371241       5.93744717      12.01165877       0.22628075      -0.21595035       0.17627961      -0.58921857      -1.85478731       0.10044116
I        3.57539010      15.57789714      14.32130115      -0.11237125       0.03148827       0.14493543       0.40987998      -0.56533210       2.43625820
I       13.07716840      10.83490591      12.10111256      -0.04524276       0.09255467       0.08280803       0.57487455       1.31384884      -0.30507197
I        8.91654479      10.12163119      14.42571999       0.12670537       0.37329831       0.10523368      -1.22366769       0.35338968      -1.83918341
I        5.60966045       8.43135349      11.98793050       0.26968915       0.07713135      -0.11873762      -0.03917954       0.93838058       0.18614016
I       16.04634628      12.94130120      14.84560261      -0.01655529      -0.09267991      -0.06435317       0.82901844       2.65745018      -0.98046386
I        7.26806132      13.78022801      11.91752163      -0.13436471      -0.09014701      -0.03102170       0.60229145      -0.74335626      -0.60121962
I       14.88513089       7.48385342      14.63058806      -0.17710679      -0.00280528      -0.07630392       1.50508838       0.72574810       0.19260897
Cs      25.78924469      17.21787890      19.66558129      -0.02828789       0.00946715       0.07534875      -1.53735776      -0.61928834       0.27980240
Cs      32.50595828       4.90830389      17.40150977      -0.01537889      -0.01450730      -0.24239178      -0.45121143      -1.72438153       0.02953251
Cs      23.38650786       1.06907245      19.39950688      -0.01731304      -0.09862102      -0.03746561      -0.43641979      -1.56582181      -1.00127864
Cs      35.05968322      20.91772928      17.90586403      -0.07714044      -0.01066609      -0.19320291       0.89504121      -1.00904297      -1.59110038
Cs      26.11288266      17.19201475       4.93395244       0.00869937       0.12935438       0.02809592       0.05072775      -0.07459756      -0.27474767
Cs      32.50010756       4.80209673       2.37063223       0.13490624       0.17716457       0.28331610       0.69273535      -1.12086805      -0.48147736
Cs      23.62739859       1.31108270       4.56798687      -0.01704023       0.03455955       0.05743550      -4.02617403       0.28841971      -0.03048396
Cs      35.06317936      21.20447125       2.95740785       0.06980045       0.05187191       0.06146674      -0.26156853      -1.59645769      -1.74978263
Pb      20.90037289      17.91452078      17.26519472      -0.11391636      -0.14934710       0.08894615      -2.17719019      -1.25438053      -0.71521103
Pb       0.62265603       3.20362317      19.21909174      -0.03776596       0.34533953      -0.04120327      -1.47892682       1.31364256       1.34828744
Pb      28.17482722       2.12325592      17.27631373       0.15556773      -0.49271642      -0.49093724      -0.94749513      -3.89102354       0.25445440
Pb      30.24441312      19.87098034      19.88474385      -0.38018849      -0.16430135       0.03240555       0.06567064       1.23538073       0.44330856
Pb      21.19811788      18.40388225       2.57183017      -0.39235459      -0.28840875      -0.05227095      -0.88779585      -1.71859624      -5.03091228
Pb       0.81749010       3.52024867       4.43999008       0.03739899       0.38858352      -0.06041770      -0.07696036       2.89515942      -0.98977284
Pb      28.67928311       2.12800321       2.30358139      -0.12613929      -0.04637553       0.32065673      -0.26082219      -1.65174887      -3.48049035
Pb      30.21966842      20.14229667       5.21077864       0.11904191      -0.19264705       0.10786069       1.31169638       1.00864240       0.70549369
I       19.76704384      19.98247239      19.76478083       0.14215735      -0.24051892      -0.11577464       0.69772194      -0.81093223       1.24715684
I       20.29660584       2.07329543      17.01828799      -0.01611793      -0.12694330      -0.16180176      -1.19296291       0.58675605       0.22663667
I       29.37665216       3.77912291      19.52359508      -0.07249963      -0.00044883       0.09325551      -1.65362644      -2.65161125       1.22173425
I       29.07059507      17.91973379      17.56868946      -0.00230347       0.18783058      -0.16649572       0.55119228      -3.01036003       0.06358549
I       -0.47978462      16.11172719      16.99592414       0.02790490      -0.18026078       0.03748159       0.21784385       0.25608969       0.18378269
I       21.99791208       5.13331922      19.60138281      -0.00170040       0.09573948       0.07331760       0.64522367       0.04281065       0.27216132
I       31.48722812       0.50216485      17.04263968      -0.30352558       0.05424867       0.09600134       1.15326478      -0.55412320      -1.13930162
I       26.91048581      21.16341673      19.99920197       0.08092010       0.15086514      -0.09297567       0.12202128      -0.33420938      -0.46468172
I       23.63484612      19.24812170      17.07754373       0.21116022       0.24951663       0.18368123       2.14930532       1.63521178       1.30556687
I       34.48539777       2.58134900      19.51782922       0.05156272      -0.13972291       0.16339376       0.17580914      -0.21792381       0.73234024
I       25.35224426       3.42971300      16.96894267       0.13562266      -0.07488148       0.09736034       0.70530230      -2.04865319      -1.44643052
I       32.85177590      18.28704549      20.15226554       0.07653484       0.13899885      -0.03336312       1.15965944       0.73893954       0.56081241
I       20.01841322      20.03360519       5.21031979      -0.08763332       0.13110343      -0.12719848       0.71335087      -0.89907144       0.71947592
I       20.26764577       2.18033970       2.35299941       0.09535060      -0.10026028      -0.05559995       0.37664790       1.03728607      -1.07554675