320
Lattice="36.61494431704515 0.8521064442996575 0.6472952383376436 -0.4899562435077865 21.43320960287554 0.4582089290160639 -0.349194964961731 -0.4123068262220005 19.635594233834194" Properties=species:S:1:pos:R:3:forces:R:3:momenta:R:3 pbc="T T T"
Cs       7.98158854      18.81989496       1.47000913      -0.05275005      -0.09514198      -0.00558734      -0.66963793      -0.36791450       1.29177606
Cs      14.16778428       5.68393826      18.37549014       0.08282619       0.18933766       0.09522180       0.07234766       1.31975897      -0.57558697
Cs       5.55050258       2.45987607       1.11487725      -0.04376657       0.07903181       0.07256705      -0.16606474       1.26796940      -0.52940733
Cs      16.78359248       0.60076739      18.55132852       0.23673343       0.10550886       0.06016470       2.09103949       1.67178132      -1.35663284
Cs       8.02550687      18.55387212       6.44817893      -0.09351335       0.05436102      -0.02180519       0.61670958      -1.49342883       2.04022759
Cs      14.27383981       6.07326939       3.70541154       0.10482197       0.13054913       0.11226578      -0.32346931      -0.74768179       2.58623892
Cs       5.43022295       2.64878201       6.18504613      -0.14474371      -0.10821571      -0.19350842       0.05130045      -2.27393384       1.68671240
Cs      17.31487955       1.25266387       3.92601854       0.06046395      -0.09660905      -0.14600129       0.27947534       0.01552990      -0.32301597
Pb       2.73534703      19.25078913      18.66997939      -0.00232824      -0.08369910      -0.08741819      -2.85091339      -1.49291452       0.60655137
Pb      19.45727780       5.85576237       1.36430201      -0.11218871      -0.22624046       0.13619239       1.81950319       1.27456571       0.15408970
Pb       9.91423852       3.10873002      18.28852711      -0.01001161      -0.08319175       0.17093399       1.34368609      -1.38773898      -1.72778147
Pb      12.09819207      21.40629387       1.35292568      -0.09958549       0.11615241       0.18522509       2.04803547      -2.77046796      -2.55509410
Pb       2.91618048      19.51762331       3.97973693       0.20618743       0.09791307       0.04017408      -1.62226047      -0.74732429      -1.62904045
Pb      19.38945013       5.74581089       6.23740566      -0.04737152      -0.12263727       0.03563357      -2.89617520       1.19420981      -0.67302277
Pb      10.12739311       3.35657149       3.67029745      -0.00173282       0.12877122      -0.13121315       1.90458201      -0.15006171      -2.18667342
Pb      11.90976502      21.52019717       6.39957188      -0.00350902      -0.10610780       0.08793375      -1.22971532      -0.66738977      -2.85022918
I        1.95705112      21.39493394       1.43703458      -0.10680541       0.09210112       0.10615227      -1.62600860       0.79530046       1.85299741
I        1.85113765       3.32454750      18.26113870       0.12462278      -0.22237139      -0.00546557       1.62685126      -1.30407305       0.14982721
I       11.48833957       5.17792225       1.20331805      -0.18023400       0.08557989       0.06902871       1.94539470      -2.14531867       0.95824382
I       10.91212883      19.06264099      18.81707754      -0.13045083       0.12568529      -0.41657988       0.93765386       1.51597045      -1.74805336
I       17.93627132      18.19455026      18.88850644       0.00465260      -0.04360417      -0.00473187       2.38847473       1.27746203      -1.59712597
I        4.15394295       6.83394774       1.19447931       0.00261137       0.01010204       0.21628591       0.99339180       0.23183964      -0.05451080
I       13.07080769       1.95161843      18.28310167      -0.05044743      -0.28736642       0.05902090      -1.25356637       2.02754322       0.04046915
I        9.53713210       1.44437591       1.16841213      -0.24750041      -0.08316926      -0.10698380       0.40645799       1.88605746      -2.25841979
I        5.56525372      20.63921497      18.50097269      -0.04230474      -0.00359746       0.13221466       1.17372089       1.19746119      -0.24651784
I       16.70900910       4.13597072       1.38025576       0.09867729       0.10231971      -0.01242371       1.46169747      -1.20010889      -0.29755087
I        7.12917523       4.53049815      18.28670602       0.05988678       0.08977350       0.16053122       0.69507725      -0.66078614      -2.90194357
I       14.74305128      19.94061848       1.71278593       0.27026476       0.00982529       0.00871801       1.49013304      -2.38555949       1.14549065
I        1.68799105      21.33163665       6.58858034       0.07907591      -0.06239123      -0.27790056      -1.69913930      -0.56866045      -0.56659109
I        2.26324111       3.34603208       3.60210909      -0.09244376       0.26950406      -0.10550968      -0.03166342      -2.50846906       1.09520037
I       11.31707419       5.08417966       6.19607767       0.05217024       0.22478598      -0.08954478       0.48293522       0.56078339      -1.79602514
I       10.83768125      19.66778565       3.98099625       0.12148132      -0.08687098      -0.06513169       0.99548429      -3.20390580       1.17527078
I       18.15074488      18.52068994       4.09485872       0.02239396       0.01452749       0.04146436      -0.62181958       0.77071367      -0.96009012
I        4.13806619       6.70784151       6.14336364      -0.11241775       0.04937164      -0.09787294       0.67137307       0.55759414       0.11644610
I       13.16649927       2.01775006       3.45597207       0.20111755       0.09713311       0.31935701      -0.20573564      -0.11753199       0.08013328
I        9.23018418       1.24311541       6.00798467       0.00685499       0.06852053       0.03930335       0.77596677      -0.56662608       0.99348889
I        5.82134900      20.88889245       3.98904252      -0.26550953      -0.03451098       0.05319193       0.10176814      -1.14784383       0.29675343
I       16.66284466       4.04651601       6.36373626       0.02211411       0.08213946      -0.11221316      -0.58607678       0.36881605       0.43277215
I        7.46608702       5.11388629       3.83778320       0.01358384      -0.21128430      -0.20990699      -2.95441381      -1.08849676       0.20742084
I       14.68126490      20.26326689       6.59827373       0.06907452      -0.26598500      -0.11178229      -0.58397517       0.22810607      -2.23844281
Cs       7.80699105      18.61374155      11.28780625      -0.05275005      -0.09514198      -0.00558734      -0.66963793      -0.36791450       1.29177606
Cs      14.34238176       5.89009168       8.55769303       0.08282619       0.18933766       0.09522180       0.07234766       1.31975897      -0.57558697
Cs       5.37590510       2.25372266      10.93267437      -0.04376657       0.07903181       0.07256705      -0.16606474       1.26796940      -0.52940733
Cs      16.95818996       0.80692081       8.73353141       0.23673343       0.10550886       0.06016470       2.09103949       1.67178132      -1.35663284
Cs       7.85090938      18.34771871      16.26597605      -0.09351335       0.05436102      -0.02180519       0.61670958      -1.49342883       2.04022759
Cs      14.09924233       5.86711598      13.52320866       0.10482197       0.13054913       0.11226578      -0.32346931      -0.74768179       2.58623892
Cs       5.25562547       2.44262860      16.00284325      -0.14474371      -0.10821571      -0.19350842       0.05130045      -2.27393384       1.68671240
Cs      17.14028207       1.04651046      13.74381566       0.06046395      -0.09660905      -0.14600129       0.27947534       0.01552990      -0.32301597
Pb       2.90994451      19.45694254       8.85218228      -0.00232824      -0.08369910      -0.08741819      -2.85091339      -1.49291452       0.60655137
Pb      19.28268032       5.64960896      11.18209913      -0.11218871      -0.22624046       0.13619239       1.81950319       1.27456571       0.15408970
Pb      10.08883600       3.31488344       8.47073000      -0.01001161      -0.08319175       0.17093399       1.34368609      -1.38773898      -1.72778147
Pb      11.92359458      21.20014046      11.17072280      -0.09958549       0.11615241       0.18522509       2.04803547      -2.77046796      -2.55509410
Pb       2.74158299      19.31146990      13.79753405       0.20618743       0.09791307       0.04017408      -1.62226047      -0.74732429      -1.62904045
Pb      19.21485265       5.53965748      16.05520278      -0.04737152      -0.12263727       0.03563357      -2.89617520       1.19420981      -0.67302277
Pb       9.95279563       3.15041808      13.48809457      -0.00173282       0.12877122      -0.13121315       1.90458201      -0.15006171      -2.18667342
Pb      11.73516753      21.31404376      16.21736900      -0.00350902      -0.10610780       0.08793375      -1.22971532      -0.66738977      -2.85022918
I        1.78245363      21.18878053      11.25483170      -0.10680541       0.09210112       0.10615227      -1.62600860       0.79530046       1.85299741
I        2.02573513       3.53070092       8.44334159       0.12462278      -0.22237139      -0.00546557       1.62685126      -1.30407305       0.14982721
I       11.31374209       4.97176884      11.02111517      -0.18023400       0.08557989       0.06902871       1.94539470      -2.14531867       0.95824382
I       11.08672631      19.26879440       8.99928043      -0.13045083       0.12568529      -0.41657988       0.93765386       1.51597045      -1.74805336
I       18.11086880      18.40070367       9.07070933       0.00465260      -0.04360417      -0.00473187       2.38847473       1.27746203      -1.59712597
I        3.97934547       6.62779433      11.01227643       0.00261137       0.01010204       0.21628591       0.99339180       0.23183964      -0.05451080
I       13.24540517       2.15777185       8.46530456      -0.05044743      -0.28736642       0.05902090      -1.25356637       2.02754322       0.04046915
I        9.36253462       1.23822250      10.98620925      -0.24750041      -0.08316926      -0.10698380       0.40645799       1.88605746      -2.25841979
I        5.73985120      20.84536838       8.68317558      -0.04230474      -0.00359746       0.13221466       1.17372089       1.19746119      -0.24651784
I       16.53441162       3.92981731      11.19805288       0.09867729       0.10231971      -0.01242371       1.46169747      -1.20010889      -0.29755087
I        7.30377271       4.73665157       8.46890891       0.05988678       0.08977350       0.16053122       0.69507725      -0.66078614      -2.90194357
I       14.56845379      19.73446507      11.53058305       0.27026476       0.00982529       0.00871801       1.49013304      -2.38555949       1.14549065
I        1.51339356      21.12548324      16.40637746       0.07907591      -0.06239123      -0.27790056      -1.69913930      -0.56866045      -0.56659109
I        2.08864363       3.13987867      13.41990621      -0.09244376       0.26950406      -0.10550968      -0.03166342      -2.50846906       1.09520037
I       11.14247671       4.87802625      16.01387479       0.05217024       0.22478598      -0.08954478       0.48293522       0.56078339      -1.79602514
I       10.66308376      19.46163224      13.79879337       0.12148132      -0.08687098      -0.06513169       0.99548429      -3.20390580       1.17527078
I       17.97614739      18.31453653      13.91265584       0.02239396       0.01452749       0.04146436      -0.62181958       0.77071367      -0.96009012
I        3.96346871       6.50168810      15.96116076      -0.11241775       0.04937164      -0.09787294       0.67137307       0.55759414       0.11644610
I       12.99190179       1.81159665      13.27376919       0.20111755       0.09713311       0.31935701      -0.20573564      -0.11753199       0.08013328
I        9.05558670       1.03696200      15.82578179       0.00685499       0.06852053       0.03930335       0.77596677      -0.56662608       0.99348889
I        5.64675151      20.68273904      13.80683964      -0.26550953      -0.03451098       0.05319193       0.10176814      -1.14784383       0.29675343
I       16.48824718       3.84036260      16.18153338       0.02211411       0.08213946      -0.11221316      -0.58607678       0.36881605       0.43277215
I        7.29148954       4.90773288      13.65558032       0.01358384      -0.21128430      -0.20990699      -2.95441381      -1.08849676       0.20742084
I       14.50666741      20.05711348      16.41607085       0.06907452      -0.26598500      -0.11178229      -0.58397517       0.22810607      -2.23844281
Cs       8.22656666       8.10329016       1.24090466      -0.05275005      -0.09514198      -0.00558734      -0.66963793      -0.36791450       1.29177606
Cs      13.92280615      16.40054307      18.60459461       0.08282619       0.18933766       0.09522180       0.07234766       1.31975897      -0.57558697
Cs       5.30552446      13.17648087       1.34398171      -0.04376657       0.07903181       0.07256705      -0.16606474       1.26796940      -0.52940733
Cs      16.53861435      11.31737220      18.78043299       0.23673343       0.10550886       0.06016470       2.09103949       1.67178132      -1.35663284
Cs       8.27048499       7.83726732       6.21907446      -0.09351335       0.05436102      -0.02180519       0.61670958      -1.49342883       2.04022759
Cs      14.02886169      16.78987419       3.93451600       0.10482197       0.13054913       0.11226578      -0.32346931      -0.74768179       2.58623892
Cs       5.18524483      13.36538681       6.41415059      -0.14474371      -0.10821571      -0.19350842       0.05130045      -2.27393384       1.68671240
Cs      17.06990143      11.96926867       4.15512300       0.06046395      -0.09660905      -0.14600129       0.27947534       0.01552990      -0.32301597
Pb       2.98032515       8.53418433      18.44087493      -0.00232824      -0.08369910      -0.08741819      -2.85091339      -1.49291452       0.60655137
Pb      19.21229968      16.57236717       1.59340647      -0.11218871      -0.22624046       0.13619239       1.81950319       1.27456571       0.15408970
Pb       9.66926039      13.82533483      18.51763158      -0.01001161      -0.08319175       0.17093399       1.34368609      -1.38773898      -1.72778147
Pb      12.34317019      10.68968907       1.12382121      -0.09958549       0.11615241       0.18522509       2.04803547      -2.77046796      -2.55509410
Pb       3.16115860       8.80101851       3.75063246       0.20618743       0.09791307       0.04017408      -1.62226047      -0.74732429      -1.62904045
Pb      19.14447201      16.46241569       6.46651012      -0.04737152      -0.12263727       0.03563357      -2.89617520       1.19420981      -0.67302277
Pb       9.88241499      14.07317629       3.89940191      -0.00173282       0.12877122      -0.13121315       1.90458201      -0.15006171      -2.18667342
Pb      12.15474314      10.80359237       6.17046741      -0.00350902      -0.10610780       0.08793375      -1.22971532      -0.66738977      -2.85022918
I        2.20202924      10.67832914       1.20793011      -0.10680541       0.09210112       0.10615227      -1.62600860       0.79530046       1.85299741
I        1.60615952      14.04115231      18.49024317       0.12462278      -0.22237139      -0.00546557       1.62685126      -1.30407305       0.14982721
I       11.24336145      15.89452705       1.43242251      -0.18023400       0.08557989       0.06902871       1.94539470      -2.14531867       0.95824382
I       11.15710695       8.34603619      18.58797308      -0.13045083       0.12568529      -0.41657988       0.93765386       1.51597045      -1.74805336
I       18.18124944       7.47794546      18.65940198       0.00465260      -0.04360417      -0.00473187       2.38847473       1.27746203      -1.59712597
I        3.90896483      17.55055254       1.42358377       0.00261137       0.01010204       0.21628591       0.99339180       0.23183964      -0.05451080
I       12.82582956      12.66822324      18.51220614      -0.05044743      -0.28736642       0.05902090      -1.25356637       2.02754322       0.04046915
I        9.29215398      12.16098071       1.39751659      -0.24750041      -0.08316926      -0.10698380       0.40645799       1.88605746      -2.25841979
I        5.81023184       9.92261017      18.27186823      -0.04230474      -0.00359746       0.13221466       1.17372089       1.19746119      -0.24651784
I       16.46403098      14.85257552       1.60936022       0.09867729       0.10231971      -0.01242371       1.46169747      -1.20010889      -0.29755087
I        6.88419710      15.24710296      18.51581049       0.05988678       0.08977350       0.16053122       0.69507725      -0.66078614      -2.90194357
I       14.98802940       9.22401368       1.48368146       0.27026476       0.00982529       0.00871801       1.49013304      -2.38555949       1.14549065
I        1.93296917      10.61503185       6.35947587       0.07907591      -0.06239123      -0.27790056      -1.69913930      -0.56866045      -0.56659109
I        2.01826299      14.06263688       3.83121355      -0.09244376       0.26950406      -0.10550968      -0.03166342      -2.50846906       1.09520037
I       11.07209607      15.80078446       6.42518213       0.05217024       0.22478598      -0.08954478       0.48293522       0.56078339      -1.79602514
I       11.08265937       8.95118085       3.75189178       0.12148132      -0.08687098      -0.06513169       0.99548429      -3.20390580       1.17527078
I       18.39572300       7.80408514       3.86575425       0.02239396       0.01452749       0.04146436      -0.62181958       0.77071367      -0.96009012
I        3.89308807      17.42444631       6.37246810      -0.11241775       0.04937164      -0.09787294       0.67137307       0.55759414       0.11644610
I       12.92152115      12.73435486       3.68507653       0.20111755       0.09713311       0.31935701      -0.20573564      -0.11753199       0.08013328
I        8.98520606      11.95972021       6.23708913       0.00685499       0.06852053       0.03930335       0.77596677      -0.56662608       0.99348889
I        6.06632712      10.17228765       3.75993805      -0.26550953      -0.03451098       0.05319193       0.10176814      -1.14784383       0.29675343
I       16.41786654      14.76312081       6.59284072       0.02211411       0.08213946      -0.11221316      -0.58607678       0.36881605       0.43277215
I        7.22110890      15.83049109       4.06688766       0.01358384      -0.21128430      -0.20990699      -2.95441381      -1.08849676       0.20742084
I       14.92624302       9.54666209       6.36916926       0.06907452      -0.26598500      -0.11178229      -0.58397517       0.22810607      -2.23844281
Cs       8.05196918       7.89713675      11.05870178      -0.05275005      -0.09514198      -0.00558734      -0.66963793      -0.36791450       1.29177606
Cs      14.09740364      16.60669648       8.78679749       0.08282619       0.18933766       0.09522180       0.07234766       1.31975897      -0.57558697
Cs       5.13092698      12.97032746      11.16177883      -0.04376657       0.07903181       0.07256705      -0.16606474       1.26796940      -0.52940733
Cs      16.71321184      11.52352561       8.96263587       0.23673343       0.10550886       0.06016470       2.09103949       1.67178132      -1.35663284
Cs       8.09588751       7.63111391      16.03687158      -0.09351335       0.05436102      -0.02180519       0.61670958      -1.49342883       2.04022759
Cs      13.85426421      16.58372078      13.75231312       0.10482197       0.13054913       0.11226578      -0.32346931      -0.74768179       2.58623892
Cs       5.01064735      13.15923340      16.23194771      -0.14474371      -0.10821571      -0.19350842       0.05130045      -2.27393384       1.68671240
Cs      16.89530395      11.76311526      13.97292012       0.06046395      -0.09660905      -0.14600129       0.27947534       0.01552990      -0.32301597
Pb       3.15492264       8.74033774       8.62307781      -0.00232824      -0.08369910      -0.08741819      -2.85091339      -1.49291452       0.60655137
Pb      19.03770220      16.36621376      11.41120359      -0.11218871      -0.22624046       0.13619239       1.81950319       1.27456571       0.15408970
Pb       9.84385788      14.03148824       8.69983446      -0.01001161      -0.08319175       0.17093399       1.34368609      -1.38773898      -1.72778147
Pb      12.16857271      10.48353566      10.94161833      -0.09958549       0.11615241       0.18522509       2.04803547      -2.77046796      -2.55509410
Pb       2.98656112       8.59486510      13.56842958       0.20618743       0.09791307       0.04017408      -1.62226047      -0.74732429      -1.62904045
Pb      18.96987453      16.25626228      16.28430724      -0.04737152      -0.12263727       0.03563357      -2.89617520       1.19420981      -0.67302277
Pb       9.70781751      13.86702288      13.71719903      -0.00173282       0.12877122      -0.13121315       1.90458201      -0.15006171      -2.18667342
Pb      11.98014566      10.59743896      15.98826453      -0.00350902      -0.10610780       0.08793375      -1.22971532      -0.66738977      -2.85022918
I        2.02743176      10.47217573      11.02572723      -0.10680541       0.09210112       0.10615227      -1.62600860       0.79530046       1.85299741
I        1.78075701      14.24730572       8.67244605       0.12462278      -0.22237139      -0.00546557       1.62685126      -1.30407305       0.14982721
I       11.06876397      15.68837364      11.25021963      -0.18023400       0.08557989       0.06902871       1.94539470      -2.14531867       0.95824382
I       11.33170444       8.55218960       8.77017596      -0.13045083       0.12568529      -0.41657988       0.93765386       1.51597045      -1.74805336
I       18.35584693       7.68409887       8.84160486       0.00465260      -0.04360417      -0.00473187       2.38847473       1.27746203      -1.59712597
I        3.73436735      17.34439913      11.24138089       0.00261137       0.01010204       0.21628591       0.99339180       0.23183964      -0.05451080
I       13.00042705      12.87437665       8.69440902      -0.05044743      -0.28736642       0.05902090      -1.25356637       2.02754322       0.04046915
I        9.11755650      11.95482730      11.21531371      -0.24750041      -0.08316926      -0.10698380       0.40645799       1.88605746      -2.25841979
I        5.98482933      10.12876358       8.45407111      -0.04230474      -0.00359746       0.13221466       1.17372089       1.19746119      -0.24651784
I       16.28943350      14.64642211      11.42715734       0.09867729       0.10231971      -0.01242371       1.46169747      -1.20010889      -0.29755087
I        7.05879459      15.45325637       8.69801337       0.05988678       0.08977350       0.16053122       0.69507725      -0.66078614      -2.90194357
I       14.81343192       9.01786027      11.30147858       0.27026476       0.00982529       0.00871801       1.49013304      -2.38555949       1.14549065
I        1.75837169      10.40887844      16.17727299       0.07907591      -0.06239123      -0.27790056      -1.69913930      -0.56866045      -0.56659109
I        1.84366551      13.85648347      13.64901067      -0.09244376       0.26950406      -0.10550968      -0.03166342      -2.50846906       1.09520037
I       10.89749859      15.59463105      16.24297925       0.05217024       0.22478598      -0.08954478       0.48293522       0.56078339      -1.79602514
I       10.90806189       8.74502744      13.56968890       0.12148132      -0.08687098      -0.06513169       0.99548429      -3.20390580       1.17527078
I       18.22112552       7.59793173      13.68355137       0.02239396       0.01452749       0.04146436      -0.62181958       0.77071367      -0.96009012
I        3.71849059      17.21829290      16.19026522      -0.11241775       0.04937164      -0.09787294       0.67137307       0.55759414       0.11644610
I       12.74692367      12.52820145      13.50287365       0.20111755       0.09713311       0.31935701      -0.20573564      -0.11753199       0.08013328
I        8.81060858      11.75356680      16.05488625       0.00685499       0.06852053       0.03930335       0.77596677      -0.56662608       0.99348889
I        5.89172964       9.96613424      13.57773517      -0.26550953      -0.03451098       0.05319193       0.10176814      -1.14784383       0.29675343
I       16.24326906      14.55696740      16.41063784       0.02211411       0.08213946      -0.11221316      -0.58607678       0.36881605       0.43277215
I        7.04651142      15.62433768      13.88468478       0.01358384      -0.21128430      -0.20990699      -2.95441381      -1.08849676       0.20742084
I       14.75164554       9.34050868      16.18696638       0.06907452      -0.26598500      -0.11178229      -0.58397517       0.22810607      -2.23844281
Cs      26.28906070      19.24594819       1.79365675      -0.05275005      -0.09514198      -0.00558734      -0.66963793      -0.36791450       1.29177606
Cs      32.47525643       6.10999149      18.69913776       0.08282619       0.18933766       0.09522180       0.07234766       1.31975897      -0.57558697
Cs      23.85797474       2.88592929       1.43852487      -0.04376657       0.07903181       0.07256705      -0.16606474       1.26796940      -0.52940733
Cs      35.09106463       1.02682062      18.87497614       0.23673343       0.10550886       0.06016470       2.09103949       1.67178132      -1.35663284
Cs      26.33297903      18.97992535       6.77182655      -0.09351335       0.05436102      -0.02180519       0.61670958      -1.49342883       2.04022759
Cs      32.58131197       6.49932261       4.02905916       0.10482197       0.13054913       0.11226578      -0.32346931      -0.74768179       2.58623892
Cs      23.73769511       3.07483523       6.50869375      -0.14474371      -0.10821571      -0.19350842       0.05130045      -2.27393384       1.68671240
Cs      35.62235171       1.67871709       4.24966616       0.06046395      -0.09660905      -0.14600129       0.27947534       0.01552990      -0.32301597
Pb      21.04281919      19.67684235      18.99362701      -0.00232824      -0.08369910      -0.08741819      -2.85091339      -1.49291452       0.60655137
Pb       1.14980564       5.42970915       1.04065439      -0.11218871      -0.22624046       0.13619239       1.81950319       1.27456571       0.15408970
Pb      28.22171067       3.53478325      18.61217473      -0.01001161      -0.08319175       0.17093399       1.34368609      -1.38773898      -1.72778147
Pb      30.40566423      21.83234710       1.67657330      -0.09958549       0.11615241       0.18522509       2.04803547      -2.77046796      -2.55509410
Pb      21.22365264      19.94367654       4.30338455       0.20618743       0.09791307       0.04017408      -1.62226047      -0.74732429      -1.62904045
Pb       1.08197797       5.31975767       5.91375804      -0.04737152      -0.12263727       0.03563357      -2.89617520       1.19420981      -0.67302277
Pb      28.43486527       3.78262471       3.99394507      -0.00173282       0.12877122      -0.13121315       1.90458201      -0.15006171      -2.18667342
Pb      30.21723718      21.94625040       6.72321950      -0.00350902      -0.10610780       0.08793375      -1.22971532      -0.66738977      -2.85022918
I       20.26452328      21.82098717       1.76068220      -0.10680541       0.09210112       0.10615227      -1.62600860       0.79530046       1.85299741
I       20.15860980       3.75060073      18.58478632       0.12462278      -0.22237139      -0.00546557       1.62685126      -1.30407305       0.14982721
I       29.79581173       5.60397547       1.52696567      -0.18023400       0.08557989       0.06902871       1.94539470      -2.14531867       0.95824382
I       29.21960099      19.48869421      19.14072516      -0.13045083       0.12568529      -0.41657988       0.93765386       1.51597045      -1.74805336
I       -0.37120084      17.76849703      18.56485882       0.00465260      -0.04360417      -0.00473187       2.38847473       1.27746203      -1.59712597
I       22.46141511       7.26000096       1.51812693       0.00261137       0.01010204       0.21628591       0.99339180       0.23183964      -0.05451080
I       31.37827984       2.37767166      18.60674929      -0.05044743      -0.28736642       0.05902090      -1.25356637       2.02754322       0.04046915
I       27.84460426       1.87042913       1.49205975      -0.24750041      -0.08316926      -0.10698380       0.40645799       1.88605746      -2.25841979
I       23.87272588      21.06526819      18.82462031      -0.04230474      -0.00359746       0.13221466       1.17372089       1.19746119      -0.24651784
I       35.01648126       4.56202394       1.70390338       0.09867729       0.10231971      -0.01242371       1.46169747      -1.20010889      -0.29755087
I       25.43664738       4.95655138      18.61035364       0.05988678       0.08977350       0.16053122       0.69507725      -0.66078614      -2.90194357
I       33.05052344      20.36667171       2.03643355       0.27026476       0.00982529       0.00871801       1.49013304      -2.38555949       1.14549065
I       19.99546321      21.75768988       6.91222796       0.07907591      -0.06239123      -0.27790056      -1.69913930      -0.56866045      -0.56659109
I       20.57071327       3.77208530       3.92575671      -0.09244376       0.26950406      -0.10550968      -0.03166342      -2.50846906       1.09520037