320
Lattice="31.705123562890115 0.00098397742904671 0.8597404125717283 0.019921660697184568 29.971723771014627 -2.6265873698904523 -0.4087198441794399 1.5773423540450537 17.106165182112967" Properties=species:S:1:pos:R:3:forces:R:3:momenta:R:3 pbc="T T T"
Cs       0.98474381       3.13788354       4.80661420      -0.02773522      -0.07592543      -0.01038016       0.20139239      -0.38502904       4.05167408
Cs       5.14498983       6.00251951       9.32777392      -0.02405504       0.05101410      -0.08485710       0.75056177      -0.16967828      -0.63898645
Cs       1.20167380      10.24942584       0.09024651       0.01756564      -0.01203236       0.01086065      -2.58918201       0.36892522      -0.88774803
Cs       5.00611190      13.38346427       3.66248005       0.03016320      -0.08169965       0.08902060      -0.43195929      -1.69012693      -1.41030768
Cs       9.00834529       3.22485193       4.92892190       0.07736554      -0.06883564       0.05222197      -0.74685827      -1.50771077      -1.65797242
Cs      13.01004834       6.11502420       9.49711540       0.03130988      -0.02122711      -0.06322824      -0.40819426      -0.23720180      -0.75671006
Cs       9.03313291      10.46478412       0.24032486       0.00463177       0.02568180      -0.07886202      -1.03259054       1.13333080      -0.39731148
Cs      12.55676652      13.01951753       4.76630841       0.12667427       0.12562469      -0.10963929       0.05194180      -0.77207433      -0.65379832
Pb       2.47434531      15.72433946       8.31201606      -0.23878883      -0.09008485       0.00658152      -0.40939029       6.26472419       2.15158759
Pb       6.38082650      16.14080794       7.80614276       0.35586898      -0.34966968       0.17135976      -0.48627903      -0.12648461       0.23061991
Pb       3.66538840       8.13537098       4.66344752       0.18502137      -0.16839137      -0.09817098       1.41847894       2.03210978      -2.84138279
Pb      -0.08422791       8.03467205       4.29971655      -0.66567953       0.19998271       0.01808317      -0.11353522       1.26405714      -0.64186904
Pb      10.46941091      16.23591712       8.27474192       0.07401029      -0.08129403      -0.18351570       3.13503972       1.22679822       0.95608749
Pb      14.30809308      15.89436349       8.62451574      -0.09677757      -0.02080710      -0.03749563      -2.20056523       0.05288618      -0.62136415
Pb      11.76988155       8.19946475       5.00251050      -0.01886798      -0.01370360      -0.26583511       0.77738888      -2.47243719       0.01676188
Pb       7.65520634       8.42066890       4.57634260       0.09373431      -0.58692320       0.15382585      -0.98578228      -3.39773298       0.39725015
I        4.91538102       1.69462987       2.85543509      -0.34296476       0.11070391       0.13222265      -0.66406508       1.27814560      -0.71821815
I        1.91383676       6.54420599       2.33533165      -0.02243236      -0.12424266       0.08136441       0.85785969      -1.30228467       4.37083728
I        4.02949852       1.67969638       7.01985734       0.03772232       0.19606451      -0.32658303       0.38861297       0.50905496      -2.14005810
I        1.48680640       7.26041505       6.88497660       0.21861732      -0.15611516       0.08588852      -1.08178243       0.87027754      -0.98203516
I        5.81411727       5.56083667       5.18770291      -0.00610605       0.41479244      -0.07056842       2.01915017      -1.03845696       0.63009892
I        0.50263619       3.24905359       9.09163347       0.10505647       0.31495006      -0.01218032       1.56987838      -1.65729850       2.22921853
I        5.49062878       9.95805069       6.41777944       0.17662945       0.08234379       0.05513385       0.59000681       0.36376055       0.51495658
I        0.23427478      14.13629355       6.44782189       0.36140491      -0.12635570      -0.20082451       0.47220300      -1.28973894      -1.60868734
I        5.67374104       9.01391216       2.14606023      -0.00511899      -0.00295451       0.03464034      -1.57907058      -1.74074347       2.84569222
I        0.59980415      14.03103772       2.09388166      -0.04802687       0.08903324       0.05430625       2.89084073       0.46367695       0.36423686
I        4.63518979      13.29672959       8.51254524      -0.04850795       0.04744935      -0.04773871      -1.32781083       0.76281304       1.92823480
I        1.66833296      10.59455273       4.22642778       0.24253762       0.18950848      -0.10144671       1.70196829       1.45419236       1.08195744
I       12.64089261       2.13012714       3.07590225      -0.25704844       0.02344805       0.06521634       1.61109580       0.64079912       2.12225754
I        9.93651500       6.47571372       2.94347156      -0.16991771       0.15035186       0.07774309       0.18056310       0.72192891       1.67744033
I       12.65275373       1.89491991       7.16610813      -0.04613559      -0.02684147       0.30351560      -0.54011357      -1.05444526       0.68886469
I        9.53280110       7.35772987       7.18600208       0.00396153       0.18943367      -0.09111244       0.48650098      -0.66762132      -1.19887890
I       13.67428891       5.55239835       5.37772285      -0.08555115       0.18220469       0.00141105       0.58997062      -2.05793206      -0.99627009
I        8.24575415       3.72967138       9.17293361       0.09267661       0.09212702      -0.13252584      -1.24657107      -1.63973852       2.43562914
I       13.85339370      10.08885142       6.65964890       0.02263662      -0.24737080      -0.11715643      -0.05773219       1.98264923       0.43577399
I        8.74007408      14.70525166       5.94385626      -0.04336882      -0.06119736      -0.04322970      -1.97396453      -0.41789928       0.71642670
I       13.67021510       8.93983488       2.27068530      -0.02212933      -0.09744731       0.32256602      -1.30041165       1.79778353       0.39178770
I        8.46223109      14.34993431       1.70520179      -0.03184867      -0.05635654       0.20034579       0.24488410      -0.57512425      -1.08631074
I       12.08655037      13.47800968       8.90040928      -0.07391209       0.09700390       0.05732802      -0.11503621       0.78877152       0.30908216
I        9.70742721      10.75177565       4.10001592       0.01738482      -0.11224278       0.10171493       1.33669013       1.16572491       1.74452263
Cs       0.78038389       3.92655472      13.35969679      -0.02773522      -0.07592543      -0.01038016       0.20139239      -0.38502904       4.05167408
Cs       5.34934975       5.21384833       0.77469133      -0.02405504       0.05101410      -0.08485710       0.75056177      -0.16967828      -0.63898645
Cs       0.99731388      11.03809702       8.64332910       0.01756564      -0.01203236       0.01086065      -2.58918201       0.36892522      -0.88774803
Cs       4.80175198      14.17213545      12.21556264       0.03016320      -0.08169965       0.08902060      -0.43195929      -1.69012693      -1.41030768
Cs       8.80398537       4.01352311      13.48200449       0.07736554      -0.06883564       0.05222197      -0.74685827      -1.50771077      -1.65797242
Cs      13.21440826       5.32635302       0.94403281       0.03130988      -0.02122711      -0.06322824      -0.40819426      -0.23720180      -0.75671006
Cs       8.82877299      11.25345530       8.79340745       0.00463177       0.02568180      -0.07886202      -1.03259054       1.13333080      -0.39731148
Cs      12.35240660      13.80818871      13.31939100       0.12667427       0.12562469      -0.10963929       0.05194180      -0.77207433      -0.65379832
Pb       2.67870523      14.93566828      -0.24106653      -0.23878883      -0.09008485       0.00658152      -0.40939029       6.26472419       2.15158759
Pb       6.58518642      15.35213676      -0.74693983       0.35586898      -0.34966968       0.17135976      -0.48627903      -0.12648461       0.23061991
Pb       3.46102848       8.92404216      13.21653011       0.18502137      -0.16839137      -0.09817098       1.41847894       2.03210978      -2.84138279
Pb      -0.28858783       8.82334323      12.85279914      -0.66567953       0.19998271       0.01808317      -0.11353522       1.26405714      -0.64186904
Pb      10.67377083      15.44724594      -0.27834067       0.07401029      -0.08129403      -0.18351570       3.13503972       1.22679822       0.95608749
Pb      14.51245300      15.10569231       0.07143315      -0.09677757      -0.02080710      -0.03749563      -2.20056523       0.05288618      -0.62136415
Pb      11.56552163       8.98813593      13.55559309      -0.01886798      -0.01370360      -0.26583511       0.77738888      -2.47243719       0.01676188
Pb       7.45084642       9.20934008      13.12942519       0.09373431      -0.58692320       0.15382585      -0.98578228      -3.39773298       0.39725015
I        4.71102110       2.48330105      11.40851768      -0.34296476       0.11070391       0.13222265      -0.66406508       1.27814560      -0.71821815
I        1.70947684       7.33287717      10.88841424      -0.02243236      -0.12424266       0.08136441       0.85785969      -1.30228467       4.37083728
I        3.82513860       2.46836756      15.57293993       0.03772232       0.19606451      -0.32658303       0.38861297       0.50905496      -2.14005810
I        1.28244648       8.04908623      15.43805919       0.21861732      -0.15611516       0.08588852      -1.08178243       0.87027754      -0.98203516
I        5.60975735       6.34950785      13.74078550      -0.00610605       0.41479244      -0.07056842       2.01915017      -1.03845696       0.63009892
I        0.70699611       2.46038241       0.53855088       0.10505647       0.31495006      -0.01218032       1.56987838      -1.65729850       2.22921853
I        5.28626886      10.74672187      14.97086203       0.17662945       0.08234379       0.05513385       0.59000681       0.36376055       0.51495658
I        0.02991486      14.92496473      15.00090448       0.36140491      -0.12635570      -0.20082451       0.47220300      -1.28973894      -1.60868734
I        5.46938112       9.80258334      10.69914282      -0.00511899      -0.00295451       0.03464034      -1.57907058      -1.74074347       2.84569222
I        0.39544423      14.81970890      10.64696425      -0.04802687       0.08903324       0.05430625       2.89084073       0.46367695       0.36423686
I        4.83954971      12.50805841      -0.04053735      -0.04850795       0.04744935      -0.04773871      -1.32781083       0.76281304       1.92823480
I        1.46397304      11.38322391      12.77951037       0.24253762       0.18950848      -0.10144671       1.70196829       1.45419236       1.08195744
I       12.43653269       2.91879832      11.62898484      -0.25704844       0.02344805       0.06521634       1.61109580       0.64079912       2.12225754
I        9.73215508       7.26438490      11.49655415      -0.16991771       0.15035186       0.07774309       0.18056310       0.72192891       1.67744033
I       12.44839381       2.68359109      15.71919072      -0.04613559      -0.02684147       0.30351560      -0.54011357      -1.05444526       0.68886469
I        9.32844118       8.14640105      15.73908467       0.00396153       0.18943367      -0.09111244       0.48650098      -0.66762132      -1.19887890
I       13.46992899       6.34106953      13.93080544      -0.08555115       0.18220469       0.00141105       0.58997062      -2.05793206      -0.99627009
I        8.45011407       2.94100020       0.61985102       0.09267661       0.09212702      -0.13252584      -1.24657107      -1.63973852       2.43562914
I       13.64903378      10.87752260      15.21273149       0.02263662      -0.24737080      -0.11715643      -0.05773219       1.98264923       0.43577399
I        8.53571416      15.49392284      14.49693885      -0.04336882      -0.06119736      -0.04322970      -1.97396453      -0.41789928       0.71642670
I       13.46585518       9.72850606      10.82376789      -0.02212933      -0.09744731       0.32256602      -1.30041165       1.79778353       0.39178770
I        8.25787117      15.13860549      10.25828438      -0.03184867      -0.05635654       0.20034579       0.24488410      -0.57512425      -1.08631074
I       12.29091029      12.68933850       0.34732669      -0.07391209       0.09700390       0.05732802      -0.11503621       0.78877152       0.30908216
I        9.50306729      11.54044683      12.65309851       0.01738482      -0.11224278       0.10171493       1.33669013       1.16572491       1.74452263
Cs       0.99470464      18.12374543       3.49332052      -0.02773522      -0.07592543      -0.01038016       0.20139239      -0.38502904       4.05167408
Cs       5.15495066      20.98838140       8.01448024      -0.02405504       0.05101410      -0.08485710       0.75056177      -0.16967828      -0.63898645
Cs       1.21163463      25.23528773      -1.22304717       0.01756564      -0.01203236       0.01086065      -2.58918201       0.36892522      -0.88774803
Cs       5.01607273      28.36932616       2.34918637       0.03016320      -0.08169965       0.08902060      -0.43195929      -1.69012693      -1.41030768
Cs       9.01830612      18.21071382       3.61562822       0.07736554      -0.06883564       0.05222197      -0.74685827      -1.50771077      -1.65797242
Cs      13.02000917      21.10088609       8.18382172       0.03130988      -0.02122711      -0.06322824      -0.40819426      -0.23720180      -0.75671006
Cs       9.04309374      25.45064601      -1.07296882       0.00463177       0.02568180      -0.07886202      -1.03259054       1.13333080      -0.39731148
Cs      12.56672735      28.00537942       3.45301473       0.12667427       0.12562469      -0.10963929       0.05194180      -0.77207433      -0.65379832
Pb       2.48430614      30.71020135       6.99872238      -0.23878883      -0.09008485       0.00658152      -0.40939029       6.26472419       2.15158759
Pb       6.37086567       1.15494605       9.11943644       0.35586898      -0.34966968       0.17135976      -0.48627903      -0.12648461       0.23061991
Pb       3.67534923      23.12123287       3.35015384       0.18502137      -0.16839137      -0.09817098       1.41847894       2.03210978      -2.84138279
Pb      -0.07426708      23.02053394       2.98642287      -0.66567953       0.19998271       0.01808317      -0.11353522       1.26405714      -0.64186904
Pb      10.45945008       1.25005523       9.58803560       0.07401029      -0.08129403      -0.18351570       3.13503972       1.22679822       0.95608749
Pb      14.29813225       0.90850160       9.93780942      -0.09677757      -0.02080710      -0.03749563      -2.20056523       0.05288618      -0.62136415
Pb      11.77984238      23.18532664       3.68921682      -0.01886798      -0.01370360      -0.26583511       0.77738888      -2.47243719       0.01676188
Pb       7.66516717      23.40653079       3.26304892       0.09373431      -0.58692320       0.15382585      -0.98578228      -3.39773298       0.39725015
I        4.92534185      16.68049176       1.54214141      -0.34296476       0.11070391       0.13222265      -0.66406508       1.27814560      -0.71821815
I        1.92379759      21.53006788       1.02203797      -0.02243236      -0.12424266       0.08136441       0.85785969      -1.30228467       4.37083728
I        4.03945935      16.66555827       5.70656366       0.03772232       0.19606451      -0.32658303       0.38861297       0.50905496      -2.14005810
I        1.49676723      22.24627694       5.57168292       0.21861732      -0.15611516       0.08588852      -1.08178243       0.87027754      -0.98203516
I        5.82407810      20.54669856       3.87440923      -0.00610605       0.41479244      -0.07056842       2.01915017      -1.03845696       0.63009892
I        0.51259702      18.23491548       7.77833979       0.10505647       0.31495006      -0.01218032       1.56987838      -1.65729850       2.22921853
I        5.50058961      24.94391258       5.10448576       0.17662945       0.08234379       0.05513385       0.59000681       0.36376055       0.51495658
I        0.24423561      29.12215544       5.13452821       0.36140491      -0.12635570      -0.20082451       0.47220300      -1.28973894      -1.60868734
I        5.68370187      23.99977405       0.83276655      -0.00511899      -0.00295451       0.03464034      -1.57907058      -1.74074347       2.84569222
I        0.60976498      29.01689961       0.78058798      -0.04802687       0.08903324       0.05430625       2.89084073       0.46367695       0.36423686
I        4.64515062      28.28259148       7.19925156      -0.04850795       0.04744935      -0.04773871      -1.32781083       0.76281304       1.92823480
I        1.67829379      25.58041462       2.91313410       0.24253762       0.18950848      -0.10144671       1.70196829       1.45419236       1.08195744
I       12.65085344      17.11598903       1.76260857      -0.25704844       0.02344805       0.06521634       1.61109580       0.64079912       2.12225754
I        9.94647583      21.46157561       1.63017788      -0.16991771       0.15035186       0.07774309       0.18056310       0.72192891       1.67744033
I       12.66271456      16.88078180       5.85281445      -0.04613559      -0.02684147       0.30351560      -0.54011357      -1.05444526       0.68886469
I        9.54276193      22.34359176       5.87270840       0.00396153       0.18943367      -0.09111244       0.48650098      -0.66762132      -1.19887890
I       13.68424974      20.53826024       4.06442917      -0.08555115       0.18220469       0.00141105       0.58997062      -2.05793206      -0.99627009
I        8.25571498      18.71553327       7.85963993       0.09267661       0.09212702      -0.13252584      -1.24657107      -1.63973852       2.43562914
I       13.86335453      25.07471331       5.34635522       0.02263662      -0.24737080      -0.11715643      -0.05773219       1.98264923       0.43577399
I        8.75003491      29.69111355       4.63056258      -0.04336882      -0.06119736      -0.04322970      -1.97396453      -0.41789928       0.71642670
I       13.68017593      23.92569677       0.95739162      -0.02212933      -0.09744731       0.32256602      -1.30041165       1.79778353       0.39178770
I        8.47219192      29.33579620       0.39190811      -0.03184867      -0.05635654       0.20034579       0.24488410      -0.57512425      -1.08631074
I       12.09651120      28.46387157       7.58711560      -0.07391209       0.09700390       0.05732802      -0.11503621       0.78877152       0.30908216
I        9.71738804      25.73763754       2.78672224       0.01738482      -0.11224278       0.10171493       1.33669013       1.16572491       1.74452263
Cs       0.79034472      18.91241660      12.04640311      -0.02773522      -0.07592543      -0.01038016       0.20139239      -0.38502904       4.05167408
Cs       5.35931058      20.19971022      -0.53860236      -0.02405504       0.05101410      -0.08485710       0.75056177      -0.16967828      -0.63898645
Cs       1.00727471      26.02395890       7.33003542       0.01756564      -0.01203236       0.01086065      -2.58918201       0.36892522      -0.88774803
Cs       4.81171281      29.15799733      10.90226896       0.03016320      -0.08169965       0.08902060      -0.43195929      -1.69012693      -1.41030768
Cs       8.81394620      18.99938499      12.16871081       0.07736554      -0.06883564       0.05222197      -0.74685827      -1.50771077      -1.65797242
Cs      13.22436909      20.31221491      -0.36926088       0.03130988      -0.02122711      -0.06322824      -0.40819426      -0.23720180      -0.75671006
Cs       8.83873382      26.23931718       7.48011377       0.00463177       0.02568180      -0.07886202      -1.03259054       1.13333080      -0.39731148
Cs      12.36236743      28.79405059      12.00609732       0.12667427       0.12562469      -0.10963929       0.05194180      -0.77207433      -0.65379832
Pb       2.68866606      29.92153017      -1.55436022      -0.23878883      -0.09008485       0.00658152      -0.40939029       6.26472419       2.15158759
Pb       6.57522559       0.36627488       0.56635385       0.35586898      -0.34966968       0.17135976      -0.48627903      -0.12648461       0.23061991
Pb       3.47098931      23.90990404      11.90323643       0.18502137      -0.16839137      -0.09817098       1.41847894       2.03210978      -2.84138279
Pb      -0.27862700      23.80920511      11.53950546      -0.66567953       0.19998271       0.01808317      -0.11353522       1.26405714      -0.64186904
Pb      10.66381000       0.46138406       1.03495301       0.07401029      -0.08129403      -0.18351570       3.13503972       1.22679822       0.95608749
Pb      14.50249217       0.11983043       1.38472683      -0.09677757      -0.02080710      -0.03749563      -2.20056523       0.05288618      -0.62136415
Pb      11.57548246      23.97399781      12.24229941      -0.01886798      -0.01370360      -0.26583511       0.77738888      -2.47243719       0.01676188
Pb       7.46080725      24.19520196      11.81613151       0.09373431      -0.58692320       0.15382585      -0.98578228      -3.39773298       0.39725015
I        4.72098193      17.46916293      10.09522400      -0.34296476       0.11070391       0.13222265      -0.66406508       1.27814560      -0.71821815
I        1.71943767      22.31873905       9.57512056      -0.02243236      -0.12424266       0.08136441       0.85785969      -1.30228467       4.37083728
I        3.83509943      17.45422944      14.25964625       0.03772232       0.19606451      -0.32658303       0.38861297       0.50905496      -2.14005810
I        1.29240731      23.03494811      14.12476551       0.21861732      -0.15611516       0.08588852      -1.08178243       0.87027754      -0.98203516
I        5.61971818      21.33536973      12.42749182      -0.00610605       0.41479244      -0.07056842       2.01915017      -1.03845696       0.63009892
I        0.71695694      17.44624430      -0.77474281       0.10505647       0.31495006      -0.01218032       1.56987838      -1.65729850       2.22921853
I        5.29622969      25.73258375      13.65756835       0.17662945       0.08234379       0.05513385       0.59000681       0.36376055       0.51495658
I        0.03987569      29.91082661      13.68761080       0.36140491      -0.12635570      -0.20082451       0.47220300      -1.28973894      -1.60868734
I        5.47934195      24.78844522       9.38584914      -0.00511899      -0.00295451       0.03464034      -1.57907058      -1.74074347       2.84569222
I        0.40540506      29.80557078       9.33367057      -0.04802687       0.08903324       0.05430625       2.89084073       0.46367695       0.36423686
I        4.84951054      27.49392030      -1.35383104      -0.04850795       0.04744935      -0.04773871      -1.32781083       0.76281304       1.92823480
I        1.47393387      26.36908579      11.46621669       0.24253762       0.18950848      -0.10144671       1.70196829       1.45419236       1.08195744
I       12.44649352      17.90466020      10.31569116      -0.25704844       0.02344805       0.06521634       1.61109580       0.64079912       2.12225754
I        9.74211591      22.25024678      10.18326047      -0.16991771       0.15035186       0.07774309       0.18056310       0.72192891       1.67744033
I       12.45835464      17.66945297      14.40589704      -0.04613559      -0.02684147       0.30351560      -0.54011357      -1.05444526       0.68886469
I        9.33840201      23.13226293      14.42579099       0.00396153       0.18943367      -0.09111244       0.48650098      -0.66762132      -1.19887890
I       13.47988982      21.32693141      12.61751176      -0.08555115       0.18220469       0.00141105       0.58997062      -2.05793206      -0.99627009
I        8.46007490      17.92686209      -0.69344267       0.09267661       0.09212702      -0.13252584      -1.24657107      -1.63973852       2.43562914
I       13.65899461      25.86338448      13.89943781       0.02263662      -0.24737080      -0.11715643      -0.05773219       1.98264923       0.43577399
I        8.54567499      30.47978472      13.18364517      -0.04336882      -0.06119736      -0.04322970      -1.97396453      -0.41789928       0.71642670
I       13.47581601      24.71436794       9.51047421      -0.02212933      -0.09744731       0.32256602      -1.30041165       1.79778353       0.39178770
I        8.26783200      30.12446737       8.94499070      -0.03184867      -0.05635654       0.20034579       0.24488410      -0.57512425      -1.08631074
I       12.30087112      27.67520039      -0.96596700      -0.07391209       0.09700390       0.05732802      -0.11503621       0.78877152       0.30908216
I        9.51302812      26.52630871      11.33980483       0.01738482      -0.11224278       0.10171493       1.33669013       1.16572491       1.74452263
Cs      16.83730559       3.13837553       5.23648441      -0.02773522      -0.07592543      -0.01038016       0.20139239      -0.38502904       4.05167408
Cs      20.99755161       6.00301150       9.75764413      -0.02405504       0.05101410      -0.08485710       0.75056177      -0.16967828      -0.63898645
Cs      17.05423558      10.24991783       0.52011672       0.01756564      -0.01203236       0.01086065      -2.58918201       0.36892522      -0.88774803
Cs      20.85867368      13.38395626       4.09235026       0.03016320      -0.08169965       0.08902060      -0.43195929      -1.69012693      -1.41030768
Cs      24.86090707       3.22534392       5.35879211       0.07736554      -0.06883564       0.05222197      -0.74685827      -1.50771077      -1.65797242
Cs      28.86261012       6.11551619       9.92698561       0.03130988      -0.02122711      -0.06322824      -0.40819426      -0.23720180      -0.75671006
Cs      24.88569469      10.46527611       0.67019507       0.00463177       0.02568180      -0.07886202      -1.03259054       1.13333080      -0.39731148
Cs      28.40932830      13.02000952       5.19617862       0.12667427       0.12562469      -0.10963929       0.05194180      -0.77207433      -0.65379832
Pb      18.32690709      15.72483145       8.74188627      -0.23878883      -0.09008485       0.00658152      -0.40939029       6.26472419       2.15158759
Pb      22.23338828      16.14129993       8.23601297       0.35586898      -0.34966968       0.17135976      -0.48627903      -0.12648461       0.23061991
Pb      19.51795018       8.13586297       5.09331773       0.18502137      -0.16839137      -0.09817098       1.41847894       2.03210978      -2.84138279
Pb      15.76833387       8.03516404       4.72958676      -0.66567953       0.19998271       0.01808317      -0.11353522       1.26405714      -0.64186904
Pb      26.32197269      16.23640911       8.70461213       0.07401029      -0.08129403      -0.18351570       3.13503972       1.22679822       0.95608749
Pb      30.16065486      15.89485548       9.05438595      -0.09677757      -0.02080710      -0.03749563      -2.20056523       0.05288618      -0.62136415
Pb      27.62244333       8.19995674       5.43238071      -0.01886798      -0.01370360      -0.26583511       0.77738888      -2.47243719       0.01676188
Pb      23.50776812       8.42116089       5.00621281       0.09373431      -0.58692320       0.15382585      -0.98578228      -3.39773298       0.39725015
I       20.76794280       1.69512186       3.28530530      -0.34296476       0.11070391       0.13222265      -0.66406508       1.27814560      -0.71821815
I       17.76639854       6.54469798       2.76520186      -0.02243236      -0.12424266       0.08136441       0.85785969      -1.30228467       4.37083728
I       19.88206030       1.68018837       7.44972755       0.03772232       0.19606451      -0.32658303       0.38861297       0.50905496      -2.14005810
I       17.33936818       7.26090704       7.31484681       0.21861732      -0.15611516       0.08588852      -1.08178243       0.87027754      -0.98203516
I       21.66667905       5.56132866       5.61757312      -0.00610605       0.41479244      -0.07056842       2.01915017      -1.03845696       0.63009892
I       16.35519797       3.24954558       9.52150368       0.10505647       0.31495006      -0.01218032       1.56987838      -1.65729850       2.22921853
I       21.34319056       9.95854268       6.84764965       0.17662945       0.08234379       0.05513385       0.59000681       0.36376055       0.51495658
I       16.08683656      14.13678554       6.87769210       0.36140491      -0.12635570      -0.20082451       0.47220300      -1.28973894      -1.60868734
I       21.52630282       9.01440415       2.57593044      -0.00511899      -0.00295451       0.03464034      -1.57907058      -1.74074347       2.84569222
I       16.45236593      14.03152971       2.52375187      -0.04802687       0.08903324       0.05430625       2.89084073       0.46367695       0.36423686
I       20.48775157      13.29722158       8.94241545      -0.04850795       0.04744935      -0.04773871      -1.32781083       0.76281304       1.92823480
I       17.52089474      10.59504472       4.65629799       0.24253762       0.18950848      -0.10144671       1.70196829       1.45419236       1.08195744
I       28.49345439       2.13061913       3.50577246      -0.25704844       0.02344805       0.06521634       1.61109580       0.64079912       2.12225754
I       25.78907678       6.47620571       3.37334177      -0.16991771       0.15035186       0.07774309       0.18056310       0.72192891       1.67744033