320
Lattice="36.61494431704515 0.8521064442996575 0.6472952383376436 -0.4899562435077865 21.43320960287554 0.4582089290160639 -0.349194964961731 -0.4123068262220005 19.635594233834194" Properties=species:S:1:pos:R:3:forces:R:3:momenta:R:3 pbc="T T T"
Cs       7.41622098      20.98492490       1.12935480      -0.10563968       0.01158920       0.08091992      -0.36126877       0.24849342       1.62033303
Cs      13.90526736       8.18817675      18.44863538      -0.08698331       0.00889584      -0.13660684      -1.28056167      -0.37306504       0.16138087
Cs       4.91878518       4.87370774       0.98880530       0.01737046       0.06255269      -0.09729117       0.30126110       1.33842893       2.85231116
Cs      16.75551548       2.89594267      18.24142580      -0.06557110       0.02414889      -0.06404132       0.05052510       0.48166839       0.15806864
Cs       7.13602855      21.00725590       6.05282216       0.09842669      -0.03813557       0.13149332      -0.11049128      -1.56744643       0.06737918
Cs      13.83521698       8.51415625       3.58731478      -0.06569339      -0.03730430      -0.04569525       0.66041746       1.97812164       1.28761908
Cs       4.81930867       4.85671951       5.87537271       0.02890904      -0.03857308       0.03803693      -1.14501114      -1.58075848      -0.23824786
Cs      16.80917547       3.19356767       3.50017471       0.08435496       0.03268725       0.04544544      -0.74071921       0.20432264       1.42181903
Pb       2.71825336      -0.09779358      17.95915770       0.27913370       0.32557070       0.17474217      -0.54032943       1.99061517      -2.71343118
Pb      18.92745472       7.88239971       1.29036540       0.20673747       0.19526273      -0.07591794      -0.29777649      -0.57698219      -0.55833405
Pb       9.56090090       5.14628888      18.10422780      -0.31777034       0.26933198      -0.19601308       2.65839400       1.48350808       0.69574811
Pb      12.02590074       2.34576791       1.08474545      -0.11677854       0.08888502       0.09707662       1.19842612      -1.63404377       0.31087419
Pb       2.86163565       0.29111631       3.28981946       0.17653597       0.08235214      -0.18289280       1.17603531       0.32136909      -1.18735348
Pb      18.72455611       8.05399078       6.08348375       0.18788321      -0.16188412       0.10355465       0.86516180       1.09796405       0.09676644
Pb       9.72021025       5.86187638       3.23071243       0.25510511      -0.37857369       0.39931132      -1.25105634       2.46681377      -2.35415128
Pb      11.93942720       2.04358481       6.09037836       0.11611000       0.11433999      -0.38275944      -0.68289184      -0.50939607       0.91291751
I        1.88156011       2.28055383       0.89540933      -0.01302954      -0.14653717      -0.15237349       0.44435107       0.47636229       1.00277561
I        1.37059744       5.44294095      18.09390599       0.01794385      -0.03245715      -0.16076751       0.45415964       1.40442081       1.30022435
I       10.78366111       7.53456629       0.81506106       0.20995246       0.23954270       0.22376226       1.72235291       0.10158101      -0.61683045
I       10.74003959      -0.05420171      18.17203143      -0.01399708       0.06341520      -0.08373823       0.69680856      -0.91933933       0.02528675
I       17.60041924      20.53648894      18.75441471      -0.26046383      -0.18203743       0.05704697       1.50966335       1.26057331       1.29367451
I        3.62597669       9.09531110       0.91884991       0.11468932      -0.13444996       0.22098370       0.28317660       1.01147453      -1.07745656
I       12.73000444       3.97181675      18.20640962      -0.04347891      -0.08803409      -0.02314353      -0.66207909      -0.43398759      -0.17527819
I        8.89052737       3.62524781       1.01681039      -0.04196186       0.03935586      -0.06376272      -1.18044761      -1.28914648      -0.89173587
I        5.42968612       1.72520272      18.07888364      -0.09763662      -0.25754775      -0.03835115       1.66805975       0.25431077       1.10901535
I       16.29076551       6.39454553       1.09844801      -0.21723504      -0.13244484       0.01965260      -1.48024592       2.07194747       1.19671439
I        6.86066226       6.94728722      18.07280303       0.04305203      -0.24194927       0.07479848       0.16127664       0.18224114      -0.81547844
I       14.76738602       1.05722892       1.11073969       0.25490788      -0.19368485      -0.10862917       0.32913918      -0.22873651       1.04915157
I        1.83370987       1.99657088       5.80771956      -0.19277467       0.20421362      -0.19212472      -1.97314363       0.80748171       1.84604159
I        1.73374791       5.76493222       3.49652934      -0.01666444      -0.07259783      -0.09538911      -0.17387010       1.02461468       0.05719256
I       10.75528246       7.41242938       6.01849357       0.08052942       0.10326156      -0.04922671      -0.48004992       0.43611012       1.91429018
I       10.76421291       0.40496318       3.33053999       0.12832134      -0.03408198       0.08981136      -1.71839639       0.41845294       1.58928560
I       17.60847998      20.68321069       3.87481406      -0.02210397       0.07747661       0.05117955       0.41700483      -0.97414590       0.48461954
I        3.62386378       8.91236208       5.83839536      -0.04958029       0.02146202       0.13717546       1.88101043       0.59120019       0.19203767
I       12.95324489       4.23715123       3.49386300      -0.23507729      -0.03384099       0.12054926       0.81019859       0.86679658       3.49716503
I        8.90092340       3.62206869       5.75302858       0.07551336      -0.15031537      -0.14344166      -1.00168125       1.97762741       1.66284201
I        5.61442338       1.79903781       3.34187762      -0.06943369      -0.04298535      -0.04920308      -1.94950010       0.50032160      -1.72507990
I       16.18943306       6.30877618       5.73219902      -0.13237842      -0.00779473       0.24826124       1.77269223       1.94015936      -0.04237634
I        6.95315629       7.08117186       3.49505044      -0.09881409       0.16184973      -0.12351819      -0.73348924       1.96039637       1.83412486
I       14.76878789       0.50031151       5.78142467      -0.11241016       0.27903581       0.15108585       0.97101504       2.66582407      -1.88354445
Cs       7.24162349      20.77877149      10.94715192      -0.10563968       0.01158920       0.08091992      -0.36126877       0.24849342       1.62033303
Cs      14.07986484       8.39433017       8.63083827      -0.08698331       0.00889584      -0.13660684      -1.28056167      -0.37306504       0.16138087
Cs       4.74418770       4.66755433      10.80660242       0.01737046       0.06255269      -0.09729117       0.30126110       1.33842893       2.85231116
Cs      16.93011296       3.10209609       8.42362869      -0.06557110       0.02414889      -0.06404132       0.05052510       0.48166839       0.15806864
Cs       6.96143106      20.80110249      15.87061928       0.09842669      -0.03813557       0.13149332      -0.11049128      -1.56744643       0.06737918
Cs      13.66061950       8.30800284      13.40511190      -0.06569339      -0.03730430      -0.04569525       0.66041746       1.97812164       1.28761908
Cs       4.64471119       4.65056610      15.69316983       0.02890904      -0.03857308       0.03803693      -1.14501114      -1.58075848      -0.23824786
Cs      16.63457799       2.98741426      13.31797183       0.08435496       0.03268725       0.04544544      -0.74071921       0.20432264       1.42181903
Pb       2.89285084       0.10835984       8.14136059       0.27913370       0.32557070       0.17474217      -0.54032943       1.99061517      -2.71343118
Pb      18.75285724       7.67624630      11.10816252       0.20673747       0.19526273      -0.07591794      -0.29777649      -0.57698219      -0.55833405
Pb       9.73549838       5.35244230       8.28643069      -0.31777034       0.26933198      -0.19601308       2.65839400       1.48350808       0.69574811
Pb      11.85130326       2.13961450      10.90254257      -0.11677854       0.08888502       0.09707662       1.19842612      -1.63404377       0.31087419
Pb       2.68703817       0.08496290      13.10761658       0.17653597       0.08235214      -0.18289280       1.17603531       0.32136909      -1.18735348
Pb      18.54995863       7.84783737      15.90128087       0.18788321      -0.16188412       0.10355465       0.86516180       1.09796405       0.09676644
Pb       9.54561277       5.65572297      13.04850955       0.25510511      -0.37857369       0.39931132      -1.25105634       2.46681377      -2.35415128
Pb      11.76482972       1.83743140      15.90817548       0.11611000       0.11433999      -0.38275944      -0.68289184      -0.50939607       0.91291751
I        1.70696263       2.07440042      10.71320645      -0.01302954      -0.14653717      -0.15237349       0.44435107       0.47636229       1.00277561
I        1.54519492       5.64909437       8.27610888       0.01794385      -0.03245715      -0.16076751       0.45415964       1.40442081       1.30022435
I       10.60906363       7.32841288      10.63285818       0.20995246       0.23954270       0.22376226       1.72235291       0.10158101      -0.61683045
I       10.91463707       0.15195171       8.35423432      -0.01399708       0.06341520      -0.08373823       0.69680856      -0.91933933       0.02528675
I       17.77501672      20.74264235       8.93661760      -0.26046383      -0.18203743       0.05704697       1.50966335       1.26057331       1.29367451
I        3.45137921       8.88915769      10.73664703       0.11468932      -0.13444996       0.22098370       0.28317660       1.01147453      -1.07745656
I       12.90460192       4.17797017       8.38861251      -0.04347891      -0.08803409      -0.02314353      -0.66207909      -0.43398759      -0.17527819
I        8.71592989       3.41909440      10.83460751      -0.04196186       0.03935586      -0.06376272      -1.18044761      -1.28914648      -0.89173587
I        5.60428360       1.93135614       8.26108653      -0.09763662      -0.25754775      -0.03835115       1.66805975       0.25431077       1.10901535
I       16.11616803       6.18839212      10.91624513      -0.21723504      -0.13244484       0.01965260      -1.48024592       2.07194747       1.19671439
I        7.03525974       7.15344064       8.25500592       0.04305203      -0.24194927       0.07479848       0.16127664       0.18224114      -0.81547844
I       14.59278854       0.85107551      10.92853681       0.25490788      -0.19368485      -0.10862917       0.32913918      -0.22873651       1.04915157
I        1.65911239       1.79041747      15.62551668      -0.19277467       0.20421362      -0.19212472      -1.97314363       0.80748171       1.84604159
I        1.55915043       5.55877881      13.31432646      -0.01666444      -0.07259783      -0.09538911      -0.17387010       1.02461468       0.05719256
I       10.58068498       7.20627597      15.83629069       0.08052942       0.10326156      -0.04922671      -0.48004992       0.43611012       1.91429018
I       10.58961543       0.19880977      13.14833711       0.12832134      -0.03408198       0.08981136      -1.71839639       0.41845294       1.58928560
I       17.43388249      20.47705728      13.69261118      -0.02210397       0.07747661       0.05117955       0.41700483      -0.97414590       0.48461954
I        3.44926630       8.70620867      15.65619248      -0.04958029       0.02146202       0.13717546       1.88101043       0.59120019       0.19203767
I       12.77864741       4.03099782      13.31166012      -0.23507729      -0.03384099       0.12054926       0.81019859       0.86679658       3.49716503
I        8.72632592       3.41591528      15.57082570       0.07551336      -0.15031537      -0.14344166      -1.00168125       1.97762741       1.66284201
I        5.43982590       1.59288440      13.15967474      -0.06943369      -0.04298535      -0.04920308      -1.94950010       0.50032160      -1.72507990
I       16.01483558       6.10262277      15.54999614      -0.13237842      -0.00779473       0.24826124       1.77269223       1.94015936      -0.04237634
I        6.77855881       6.87501845      13.31284756      -0.09881409       0.16184973      -0.12351819      -0.73348924       1.96039637       1.83412486
I       14.59419041       0.29415810      15.59922179      -0.11241016       0.27903581       0.15108585       0.97101504       2.66582407      -1.88354445
Cs       7.66119910      10.26832010       0.90025033      -0.10563968       0.01158920       0.08091992      -0.36126877       0.24849342       1.62033303
Cs      13.66028923      18.90478156      18.67773985      -0.08698331       0.00889584      -0.13660684      -1.28056167      -0.37306504       0.16138087
Cs       4.67380706      15.59031254       1.21790976       0.01737046       0.06255269      -0.09729117       0.30126110       1.33842893       2.85231116
Cs      16.51053735      13.61254748      18.47053027      -0.06557110       0.02414889      -0.06404132       0.05052510       0.48166839       0.15806864
Cs       7.38100667      10.29065110       5.82371769       0.09842669      -0.03813557       0.13149332      -0.11049128      -1.56744643       0.06737918
Cs      13.59023886      19.23076105       3.81641924      -0.06569339      -0.03730430      -0.04569525       0.66041746       1.97812164       1.28761908
Cs       4.57433055      15.57332431       6.10447717       0.02890904      -0.03857308       0.03803693      -1.14501114      -1.58075848      -0.23824786
Cs      16.56419735      13.91017247       3.72927917       0.08435496       0.03268725       0.04544544      -0.74071921       0.20432264       1.42181903
Pb       2.47327523      10.61881123      18.18826217       0.27913370       0.32557070       0.17474217      -0.54032943       1.99061517      -2.71343118
Pb      18.68247660      18.59900451       1.51946986       0.20673747       0.19526273      -0.07591794      -0.29777649      -0.57698219      -0.55833405
Pb       9.31592277      15.86289369      18.33333227      -0.31777034       0.26933198      -0.19601308       2.65839400       1.48350808       0.69574811
Pb      11.78092262      13.06237271       1.31384991      -0.11677854       0.08888502       0.09707662       1.19842612      -1.63404377       0.31087419
Pb       2.61665753      11.00772111       3.51892392       0.17653597       0.08235214      -0.18289280       1.17603531       0.32136909      -1.18735348
Pb      18.47957799      18.77059558       6.31258821       0.18788321      -0.16188412       0.10355465       0.86516180       1.09796405       0.09676644
Pb       9.47523213      16.57848118       3.45981689       0.25510511      -0.37857369       0.39931132      -1.25105634       2.46681377      -2.35415128
Pb      11.69444908      12.76018961       6.31948282       0.11611000       0.11433999      -0.38275944      -0.68289184      -0.50939607       0.91291751
I        1.63658199      12.99715863       1.12451379      -0.01302954      -0.14653717      -0.15237349       0.44435107       0.47636229       1.00277561
I        1.12561931      16.15954576      18.32301046       0.01794385      -0.03245715      -0.16076751       0.45415964       1.40442081       1.30022435
I       10.53868299      18.25117109       1.04416552       0.20995246       0.23954270       0.22376226       1.72235291       0.10158101      -0.61683045
I       10.49506146      10.66240310      18.40113590      -0.01399708       0.06341520      -0.08373823       0.69680856      -0.91933933       0.02528675
I       17.84539736       9.81988414      18.52531025      -0.26046383      -0.18203743       0.05704697       1.50966335       1.26057331       1.29367451
I        3.38099857      19.81191590       1.14795437       0.11468932      -0.13444996       0.22098370       0.28317660       1.01147453      -1.07745656
I       12.48502631      14.68842156      18.43551409      -0.04347891      -0.08803409      -0.02314353      -0.66207909      -0.43398759      -0.17527819
I        8.64554925      14.34185261       1.24591485      -0.04196186       0.03935586      -0.06376272      -1.18044761      -1.28914648      -0.89173587
I        5.18470799      12.44180753      18.30798811      -0.09763662      -0.25754775      -0.03835115       1.66805975       0.25431077       1.10901535
I       16.04578739      17.11115033       1.32755247      -0.21723504      -0.13244484       0.01965260      -1.48024592       2.07194747       1.19671439
I        6.61568413      17.66389203      18.30190750       0.04305203      -0.24194927       0.07479848       0.16127664       0.18224114      -0.81547844
I       14.52240790      11.77383372       1.33984415       0.25490788      -0.19368485      -0.10862917       0.32913918      -0.22873651       1.04915157
I        1.58873175      12.71317568       6.03682402      -0.19277467       0.20421362      -0.19212472      -1.97314363       0.80748171       1.84604159
I        1.48876979      16.48153702       3.72563380      -0.01666444      -0.07259783      -0.09538911      -0.17387010       1.02461468       0.05719256
I       10.51030434      18.12903418       6.24759803       0.08052942       0.10326156      -0.04922671      -0.48004992       0.43611012       1.91429018
I       10.51923479      11.12156798       3.55964445       0.12832134      -0.03408198       0.08981136      -1.71839639       0.41845294       1.58928560
I       17.85345810       9.96660589       3.64570959      -0.02210397       0.07747661       0.05117955       0.41700483      -0.97414590       0.48461954
I        3.37888566      19.62896688       6.06749982      -0.04958029       0.02146202       0.13717546       1.88101043       0.59120019       0.19203767
I       12.70826677      14.95375603       3.72296746      -0.23507729      -0.03384099       0.12054926       0.81019859       0.86679658       3.49716503
I        8.65594528      14.33867349       5.98213304       0.07551336      -0.15031537      -0.14344166      -1.00168125       1.97762741       1.66284201
I        5.36944526      12.51564261       3.57098208      -0.06943369      -0.04298535      -0.04920308      -1.94950010       0.50032160      -1.72507990
I       15.94445494      17.02538098       5.96130348      -0.13237842      -0.00779473       0.24826124       1.77269223       1.94015936      -0.04237634
I        6.70817817      17.79777666       3.72415490      -0.09881409       0.16184973      -0.12351819      -0.73348924       1.96039637       1.83412486
I       14.52380977      11.21691631       6.01052913      -0.11241016       0.27903581       0.15108585       0.97101504       2.66582407      -1.88354445
Cs       7.48660162      10.06216669      10.71804745      -0.10563968       0.01158920       0.08091992      -0.36126877       0.24849342       1.62033303
Cs      13.83488672      19.11093497       8.85994273      -0.08698331       0.00889584      -0.13660684      -1.28056167      -0.37306504       0.16138087
Cs       4.49920958      15.38415913      11.03570688       0.01737046       0.06255269      -0.09729117       0.30126110       1.33842893       2.85231116
Cs      16.68513484      13.81870089       8.65273315      -0.06557110       0.02414889      -0.06404132       0.05052510       0.48166839       0.15806864
Cs       7.20640919      10.08449769      15.64151481       0.09842669      -0.03813557       0.13149332      -0.11049128      -1.56744643       0.06737918
Cs      13.41564138      19.02460764      13.63421636      -0.06569339      -0.03730430      -0.04569525       0.66041746       1.97812164       1.28761908
Cs       4.39973307      15.36717090      15.92227429       0.02890904      -0.03857308       0.03803693      -1.14501114      -1.58075848      -0.23824786
Cs      16.38959987      13.70401906      13.54707629       0.08435496       0.03268725       0.04544544      -0.74071921       0.20432264       1.42181903
Pb       2.64787272      10.82496464       8.37046505       0.27913370       0.32557070       0.17474217      -0.54032943       1.99061517      -2.71343118
Pb      18.50787912      18.39285110      11.33726698       0.20673747       0.19526273      -0.07591794      -0.29777649      -0.57698219      -0.55833405
Pb       9.49052026      16.06904710       8.51553515      -0.31777034       0.26933198      -0.19601308       2.65839400       1.48350808       0.69574811
Pb      11.60632514      12.85621930      11.13164703      -0.11677854       0.08888502       0.09707662       1.19842612      -1.63404377       0.31087419
Pb       2.44206005      10.80156770      13.33672104       0.17653597       0.08235214      -0.18289280       1.17603531       0.32136909      -1.18735348
Pb      18.30498051      18.56444217      16.13038533       0.18788321      -0.16188412       0.10355465       0.86516180       1.09796405       0.09676644
Pb       9.30063465      16.37232777      13.27761401       0.25510511      -0.37857369       0.39931132      -1.25105634       2.46681377      -2.35415128
Pb      11.51985160      12.55403620      16.13727994       0.11611000       0.11433999      -0.38275944      -0.68289184      -0.50939607       0.91291751
I        1.46198451      12.79100522      10.94231091      -0.01302954      -0.14653717      -0.15237349       0.44435107       0.47636229       1.00277561
I        1.30021680      16.36569917       8.50521334       0.01794385      -0.03245715      -0.16076751       0.45415964       1.40442081       1.30022435
I       10.36408551      18.04501768      10.86196264       0.20995246       0.23954270       0.22376226       1.72235291       0.10158101      -0.61683045
I       10.66965895      10.86855651       8.58333878      -0.01399708       0.06341520      -0.08373823       0.69680856      -0.91933933       0.02528675
I       18.01999485      10.02603755       8.70751313      -0.26046383      -0.18203743       0.05704697       1.50966335       1.26057331       1.29367451
I        3.20640109      19.60576249      10.96575149       0.11468932      -0.13444996       0.22098370       0.28317660       1.01147453      -1.07745656
I       12.65962380      14.89457497       8.61771697      -0.04347891      -0.08803409      -0.02314353      -0.66207909      -0.43398759      -0.17527819
I        8.47095177      14.13569920      11.06371197      -0.04196186       0.03935586      -0.06376272      -1.18044761      -1.28914648      -0.89173587
I        5.35930548      12.64796094       8.49019099      -0.09763662      -0.25754775      -0.03835115       1.66805975       0.25431077       1.10901535
I       15.87118991      16.90499692      11.14534959      -0.21723504      -0.13244484       0.01965260      -1.48024592       2.07194747       1.19671439
I        6.79028162      17.87004544       8.48411038       0.04305203      -0.24194927       0.07479848       0.16127664       0.18224114      -0.81547844
I       14.34781042      11.56768031      11.15764127       0.25490788      -0.19368485      -0.10862917       0.32913918      -0.22873651       1.04915157
I        1.41413427      12.50702227      15.85462114      -0.19277467       0.20421362      -0.19212472      -1.97314363       0.80748171       1.84604159
I        1.31417231      16.27538361      13.54343092      -0.01666444      -0.07259783      -0.09538911      -0.17387010       1.02461468       0.05719256
I       10.33570686      17.92288077      16.06539515       0.08052942       0.10326156      -0.04922671      -0.48004992       0.43611012       1.91429018
I       10.34463731      10.91541457      13.37744157       0.12832134      -0.03408198       0.08981136      -1.71839639       0.41845294       1.58928560
I       17.67886062       9.76045248      13.46350671      -0.02210397       0.07747661       0.05117955       0.41700483      -0.97414590       0.48461954
I        3.20428818      19.42281347      15.88529694      -0.04958029       0.02146202       0.13717546       1.88101043       0.59120019       0.19203767
I       12.53366929      14.74760262      13.54076458      -0.23507729      -0.03384099       0.12054926       0.81019859       0.86679658       3.49716503
I        8.48134780      14.13252008      15.79993016       0.07551336      -0.15031537      -0.14344166      -1.00168125       1.97762741       1.66284201
I        5.19484778      12.30948920      13.38877920      -0.06943369      -0.04298535      -0.04920308      -1.94950010       0.50032160      -1.72507990
I       15.76985746      16.81922757      15.77910060      -0.13237842      -0.00779473       0.24826124       1.77269223       1.94015936      -0.04237634
I        6.53358069      17.59162325      13.54195202      -0.09881409       0.16184973      -0.12351819      -0.73348924       1.96039637       1.83412486
I       14.34921229      11.01076290      15.82832625      -0.11241016       0.27903581       0.15108585       0.97101504       2.66582407      -1.88354445
Cs      25.72369314      21.41097813       1.45300242      -0.10563968       0.01158920       0.08091992      -0.36126877       0.24849342       1.62033303
Cs      32.21273951       8.61422998      18.77228300      -0.08698331       0.00889584      -0.13660684      -1.28056167      -0.37306504       0.16138087
Cs      23.22625734       5.29976096       1.31245292       0.01737046       0.06255269      -0.09729117       0.30126110       1.33842893       2.85231116
Cs      35.06298763       3.32199590      18.56507342      -0.06557110       0.02414889      -0.06404132       0.05052510       0.48166839       0.15806864
Cs      25.44350071      21.43330913       6.37646978       0.09842669      -0.03813557       0.13149332      -0.11049128      -1.56744643       0.06737918
Cs      32.14268914       8.94020947       3.91096240      -0.06569339      -0.03730430      -0.04569525       0.66041746       1.97812164       1.28761908
Cs      23.12678083       5.28277273       6.19902033       0.02890904      -0.03857308       0.03803693      -1.14501114      -1.58075848      -0.23824786
Cs      35.11664763       3.61962089       3.82382233       0.08435496       0.03268725       0.04544544      -0.74071921       0.20432264       1.42181903
Pb      21.02572551       0.32825965      18.28280532       0.27913370       0.32557070       0.17474217      -0.54032943       1.99061517      -2.71343118
Pb       0.61998256       7.45634649       0.96671778       0.20673747       0.19526273      -0.07591794      -0.29777649      -0.57698219      -0.55833405
Pb      27.86837305       5.57234211      18.42787542      -0.31777034       0.26933198      -0.19601308       2.65839400       1.48350808       0.69574811
Pb      30.33337290       2.77182113       1.40839307      -0.11677854       0.08888502       0.09707662       1.19842612      -1.63404377       0.31087419
Pb      21.16910781       0.71716953       3.61346708       0.17653597       0.08235214      -0.18289280       1.17603531       0.32136909      -1.18735348
Pb       0.41708395       7.62793756       5.75983613       0.18788321      -0.16188412       0.10355465       0.86516180       1.09796405       0.09676644
Pb      28.02768241       6.28792960       3.55436005       0.25510511      -0.37857369       0.39931132      -1.25105634       2.46681377      -2.35415128
Pb      30.24689936       2.46963803       6.41402598       0.11611000       0.11433999      -0.38275944      -0.68289184      -0.50939607       0.91291751
I       20.18903227       2.70660705       1.21905695      -0.01302954      -0.14653717      -0.15237349       0.44435107       0.47636229       1.00277561
I       19.67806959       5.86899418      18.41755361       0.01794385      -0.03245715      -0.16076751       0.45415964       1.40442081       1.30022435
I       29.09113327       7.96061951       1.13870868       0.20995246       0.23954270       0.22376226       1.72235291       0.10158101      -0.61683045
I       29.04751174       0.37185152      18.49567905      -0.01399708       0.06341520      -0.08373823       0.69680856      -0.91933933       0.02528675
I       -0.70705292      20.11043571      18.43076709      -0.26046383      -0.18203743       0.05704697       1.50966335       1.26057331       1.29367451
I       21.93344885       9.52136432       1.24249753       0.11468932      -0.13444996       0.22098370       0.28317660       1.01147453      -1.07745656
I       31.03747659       4.39786998      18.53005724      -0.04347891      -0.08803409      -0.02314353      -0.66207909      -0.43398759      -0.17527819
I       27.19799953       4.05130103       1.34045801      -0.04196186       0.03935586      -0.06376272      -1.18044761      -1.28914648      -0.89173587
I       23.73715827       2.15125595      18.40253126      -0.09763662      -0.25754775      -0.03835115       1.66805975       0.25431077       1.10901535
I       34.59823767       6.82059875       1.42209563      -0.21723504      -0.13244484       0.01965260      -1.48024592       2.07194747       1.19671439
I       25.16813441       7.37334045      18.39645065       0.04305203      -0.24194927       0.07479848       0.16127664       0.18224114      -0.81547844
I       33.07485818       1.48328214       1.43438731       0.25490788      -0.19368485      -0.10862917       0.32913918      -0.22873651       1.04915157
I       20.14118203       2.42262410       6.13136718      -0.19277467       0.20421362      -0.19212472      -1.97314363       0.80748171       1.84604159
I       20.04122007       6.19098544       3.82017696      -0.01666444      -0.07259783      -0.09538911      -0.17387010       1.02461468       0.05719256