320
Lattice="31.705123562890115 0.00098397742904671 0.8597404125717283 0.019921660697184568 29.971723771014627 -2.6265873698904523 -0.4087198441794399 1.5773423540450537 17.106165182112967" Properties=species:S:1:pos:R:3:forces:R:3:momenta:R:3 energy=-961.2948515951887 stress="0.0 0.0 0.0 0.0 0.0 0.0 0.0 0.0 0.0" pbc="T T T"
Cs       1.57496357       2.89417178       4.29692633      -0.17038528      -0.05301458       0.01914500       0.38726030       1.30334578       2.04059683
Cs       5.95739129       5.99833825       8.85407038      -0.12752265       0.20026700       0.00126390       0.89945569       0.07384564       0.17859498
Cs       0.94446672      10.22074395      -0.60793161       0.02107585      -0.08688450       0.04217009       3.55533542       2.71771590       2.42716999
Cs       4.64039965      13.22015177       3.74711825      -0.03236036      -0.00894764       0.02815660       1.04837274      -1.28004697      -1.61972886
Cs       9.67399551       4.08105352       3.81902717       0.02477109      -0.32966654       0.07985522      -1.09260211       0.31725619      -2.34001672
Cs      12.47636370       4.72110706       8.02834299      -0.00444031       0.03775171       0.20996196       2.82564504       1.79505674       2.29316869
Cs      10.42421602       9.43957773       0.30924592      -0.39893454      -0.07124239      -0.17099463       4.24689576      -0.02063858       0.04068226
Cs      11.84535997      13.72576348       3.66400985       0.19436196      -0.18151737      -0.06846093       0.93395718      -1.76246573      -3.65254641
Pb       2.43358996      15.33590918       7.84342365       0.04782127       0.61995104      -0.28768705       0.34655603       0.10499645       2.61090486
Pb       6.68070993      15.57481286       8.37049237      -0.31344379      -0.16910792       0.24107544      -0.11210224       0.94879536       3.34042316
Pb       3.56483583       7.80044909       4.09979158       0.19818536      -0.45034233       0.00881665      -2.83983879       7.04270943       4.49254719
Pb      31.15716669       7.40710146       5.09595678      -0.18291425       0.03625347       0.06496006       4.48164273      -3.35774854      -0.85789334
Pb      10.52243642      15.77168995       8.08160944       0.33501121      -0.17067190       0.55130024       4.51633390      -1.62697403     -12.06783940
Pb      14.55353297      15.62685600       8.09773304      -1.28581297      -0.01348144       0.21302173       0.71284516      -1.73768173       2.11049156
Pb      11.55674497       8.01931774       3.90104397      -0.08154729       0.24179861      -0.14126866       1.16845199       7.73105035       5.54877642
Pb       7.55260313       7.69276082       4.22226822      -0.59313760       0.36468331      -0.76021385      -3.24125007       1.65260758       9.47016937
I        4.73959503       1.63427508       2.05519240      -0.12967743      -0.01005818      -0.01352421       3.00786676       1.84429877       4.13227131
I        1.82243610       6.16894696       2.26432082      -0.22436152      -0.30084449      -0.54179304      -2.41110991       3.81302131      -6.06455262
I        4.55549111       1.68026895       6.32901640       0.05307469      -0.16164950       0.07518888      -2.25017709      -2.37317405      -4.83221954
I        1.89052263       6.37862423       6.54399480      -0.15942244      -0.02308368      -0.51464142      -1.11506714       1.54029432       4.08673474
I        6.04088796       4.99956225       4.80150126      -0.25354985       0.70459847      -0.05689975      -1.07106963       1.66364701       1.11883949
I        0.44289498       3.50892838       8.50027661      -0.07569331       0.57562615      -0.30552556      -1.50335858       0.03844677       4.07346679
I        5.44887793       9.70491887       5.68001196       0.32489181       0.22238522       0.40736189      -0.82876694       3.30183605       2.88170472
I        0.52190856      13.47425567       5.80980770       0.11454535       0.63937574       0.31178682       0.77214498       3.24482507       3.63979602
I        5.55491103       7.81357280       1.32112828       0.15852513       0.33900038       0.44880997      -0.96272135       3.14148475       0.25087035
I       -0.13432139      14.63685072       1.64984980       0.61394702       0.05492705      -0.22600255       1.40147648      -0.73851019      -0.80698992
I        4.09955396      13.13043800       8.53910672       0.17455346      -0.12756347      -0.12326684      -5.38820430       0.02081291      -1.61237303
I        1.12859168      10.08891703       4.65795556       0.59429008       0.41775490      -0.48038658       0.59442718      -3.24939462       3.84189217
I       12.47351570       1.72003668       2.24679993      -0.61766267       0.23113464       0.10659506       0.37026972       3.19617596      -0.56708983
I        9.39384962       6.68969577       1.51990922       0.29322181       0.06478914       0.20034701      -4.03219266       1.05532707       2.34727749
I       12.70917914       2.31647104       6.81826015      -0.35136417       0.01753645       0.10766392       3.01627714      -1.74138786       1.38218025
I        9.57737827       7.10774187       6.30346734       0.12639830      -0.30697062       0.32959516      -2.53511809       1.46573289       4.14876643
I       13.46374443       5.46098021       4.11394001       0.07195258      -0.25013502       0.09936495       3.60656778      -0.11859006       1.99904592
I        8.49503276       3.31468999       8.02754248       0.13430046       0.09753034      -0.04687985      -0.14410398       1.00097430      -3.35277644
I       13.41290057       9.80069220       5.84907250      -0.11699626      -0.01311322      -0.10539046       0.08643850      -3.60659526      -7.40428538
I        8.43504086      14.05708394       6.46516951       0.07816670      -0.58486339      -0.81031246      -0.60064539      -1.85609816       1.13659031
I       13.66332269       8.89145948       1.78732843      -0.02298445       0.14659394      -0.56343574       4.39791961       5.11091957      -1.10810243
I        8.10643434      13.64870106       2.06307449       0.25105986       0.23294745      -0.08986870       2.21339984       4.35995646      -5.24971794
I       12.36829191      13.22938165       9.66660085      -0.04942666       0.21067555      -0.46581650      -3.46147264      -0.18441442      -3.73876983
I        9.62897054      10.56702153       3.54499157      -0.15838316      -0.22512009       0.23335799      -3.01490316      -1.70176829      -4.25940297
Cs       1.70368702       4.66758189      12.63938651       0.05531399       0.00575955      -0.09737214      -2.08013689       4.16457378       3.29255050
Cs       5.79340979       5.14302947       0.06769845      -0.14137179      -0.08448530      -0.14243255       2.74221103       3.80107188       1.88079782
Cs       1.61329260       9.83067738       7.28290998      -0.10481303       0.00902466       0.15046991      -0.03397984       1.67637255      -3.90219558
Cs       4.76774153      13.26880619      12.14632079       0.16242861       0.15285886       0.09541232       2.66371867       2.39723029      -1.66175826
Cs       9.25422761       4.47465395      12.79831634      -0.12599254      -0.14293144       0.06955495       3.76088054       2.75440626       1.85107967
Cs      13.08610228       5.35580575      -0.16392023       0.15894203      -0.23703168      -0.01219652       1.55099645       1.66228426      -2.43846907
Cs       9.59180529      10.89214551       7.69368131      -0.12324527      -0.09285091       0.25188643      -1.69216252       2.34179021      -0.95333842
Cs      12.26958709      14.26045280      12.75594231      -0.00432012       0.02378394       0.06610557       2.98464985       1.41396035       3.00717613
Pb       2.19776431      15.05061522      -0.95144312       0.90241706      -0.20651864      -0.01949486      -2.46382211      -2.72374868       3.15132270
Pb       6.22788080      14.63557470      -0.59857155      -0.14608191      -0.49255381      -0.08709588      -5.36495259       1.55586487       5.91589268
Pb       3.88845638       9.39487511      12.38574269      -0.19009622      -0.61021074      -0.12795946       4.77434688       0.15669147      -7.25692302
Pb      31.32151786       8.80761422      12.83576279       0.36489017      -0.37158647       0.41102128       0.44666502      -3.33570039      -0.33818773
Pb      10.07017387      14.42249956      -0.46979867      -0.17919481       0.32146990      -0.51197225      -1.73023162      -1.35684239      -4.31185098
Pb      14.18416358      15.17204771      -0.54406698       0.23508965       0.32418167       0.34676814      -1.14226742      -5.82683821       0.19183229
Pb      11.98483937       8.44892694      12.48732877      -0.33156941      -0.03620695      -0.41165796      -0.02313507      -2.04567427       5.63609281
Pb       7.72457170       9.06971319      12.63027372       0.12363482      -0.12411514      -0.60744979       3.43644498      -1.02332376       6.99250156
I        4.89983334       2.97573454      10.42321680      -0.21493619      -0.29430720      -0.20178928      -2.02669593       0.95993024       3.03698905
I        1.96911580       7.73820329       9.96587556       0.43316912       0.21320120       0.51258230      -4.41824553      -2.90281722      -1.72000561
I        4.23896439       1.92476228      14.79058685       0.35376721       0.27719188      -0.10668727       1.18943738       0.10262563       1.89832680
I        2.00807271       7.92330367      14.43069282      -0.18847311      -0.02333813       0.48511960      -0.55070954      -3.50376181      -0.84484640
I        5.82947028       6.44732712      12.73438314      -0.23272856       0.05672931       0.04766076       0.07569980       1.62960980      -3.56629939
I       -0.31238591       3.97741214      16.24589638       0.46514644      -0.18761535       0.09516172       2.97825537       1.20193353       2.22172517
I        6.26038722      10.81156475      14.59940217      -0.38109866      -0.19609926      -0.22877590      -1.09265789      -1.69535445       0.53616074
I        0.19198125      15.33176215      13.87695732      -0.25655147       0.02115700       0.53311712       1.87448966      -3.46665205       1.80053756
I        5.83855603      10.40098079      10.13094572       0.32240449      -0.09305322      -0.10020660      -0.40489488       0.97425587      -3.90890628
I        0.29903767      14.70390553      10.06146533       0.20131553       0.04315989       0.12192763      -1.86859415      -1.65801159       0.96338797
I        4.02551161      12.24309810      -0.02366318      -0.60236863       0.33579874       0.07858169      -1.82809418       0.33635790       1.91682475
I        1.65693458      11.37896627      11.60344371      -0.13219370       0.25967931       0.08911423      -1.62283023      -0.25334933       0.98173613
I       11.86983758       1.74448309      11.47514225       0.21381384       0.51202381       0.22799813       0.82651630      -2.57633138      -3.48105050
I        9.83906815       7.18192604      10.41016198      -0.27828414      -0.14327165      -0.04001289      -3.08998549       2.94329001       4.96186937
I       12.16591845       2.53916030      15.25551900      -0.43208743      -0.08539507       0.02738498      -1.86406256       0.07716748       3.60323474
I        9.54764283       7.88794863      14.80982830       0.46327120      -0.26769582      -0.01277681       4.21151308       0.14457112      -1.26071169
I       14.16932555       5.79924044      12.89053145      -0.49998981      -0.12233795       0.16984357      -3.38959131      -0.00348159       1.13250562
I        8.13251287       4.04271956      16.83261313      -0.10741203      -0.61902349       0.00915239      -0.45770260      -3.88686300       0.49286058
I       13.73095036       9.91063408      14.20285049       0.30851349       0.38581568       0.46298457      -3.82027880       1.03693603       1.86718439
I        7.55288414      13.77224471      14.91824407       0.29812911       0.42277217       0.38960571       2.30192164       2.02770976      -6.61027771
I       14.30843347       8.37799542       9.75330547      -0.55855426       0.10494741      -0.04201257      -3.10300174      -0.01068443      -3.98000651
I        8.83057378      14.62805921      10.75212470      -0.18806548       0.32363280      -0.20524045       0.58582995      -0.67851593      -0.72937238
I       12.43465486      12.22267131      -0.57641976       0.30679738       0.04517129       0.23088747       1.62874630      -3.68798888       4.82110225
I       10.15279403      11.02423854      12.03488470       0.30632225       0.07253581      -0.08951274       0.74402967      -1.03417053      -0.94386206
Cs       1.68793979      18.33775996       3.16463678       0.08911812       0.04343642       0.09977734      -1.87037266      -2.68230087      -1.50795100
Cs       4.14989691      19.35832819       6.68897595       0.06448246       0.14357616      -0.15966493      -0.66748136      -1.34269606      -1.32681637
Cs       0.92351597      24.62046097      -2.19576515       0.12059594       0.06736826       0.04740071      -2.38508536      -0.49952711       1.39446487
Cs       5.61167517      28.18364836       1.81641479      -0.15968393      -0.17807693       0.14201210       1.19455497       1.89473769       0.30103376
Cs       8.42588084      17.83707895       3.40017850       0.06051627      -0.17237637       0.01385138       2.92497059      -2.36093097       0.84506938
Cs      13.72338946      20.92155441       7.24377820      -0.21240160      -0.03641710       0.08752409      -2.41525575      -0.11505023      -5.19329612
Cs       9.59336808      24.58100210      -2.76247720       0.11600982      -0.03693270       0.25444439      -4.41723057       0.67775755      -8.36863324
Cs      12.21046897      27.73138560       2.94883357       0.18258671       0.29230550      -0.06808462       2.98787021       2.63685478       1.86247555
Pb       2.45405555      31.15992640       6.09139732       0.12705426      -0.17578311       0.17454472       2.02516227      -0.83242840      -1.93240415
Pb       6.68293681      30.65340593       6.06183521      -0.48246010       0.11793389       0.37054462       4.96322875       5.16163090      -0.20224057
Pb       3.55922347      22.53173477       1.60565212       0.54523208       0.89774951       0.17514704       0.11485089      -3.51535883      -0.46080585
Pb      31.31007149      22.98968037       2.73052973       0.20190790       0.25965824       0.00008409       1.24079205      -2.90764501      -4.36621797
Pb      10.33683569      30.81363137       6.21344680      -0.11818188      -0.31608558       0.01314328       3.16987601      -2.12336398      -8.26219021
Pb      14.30853217      30.86558803       6.66827409       0.53651638      -0.21405503      -0.44600757      -3.89488007       5.37225395      -1.83322987
Pb      11.53195231      21.97005762       2.79652706       0.26967050       0.29889072      -0.13177035      -0.18326024      -2.83999360      -1.50757593
Pb       7.75952685      22.42550510       2.27504741      -0.70255481       0.04845016       0.00679327      -1.40125489       2.99676236      -3.25466600
I        4.39528049      17.01548526       0.97586491      -0.30675500      -0.33002502      -0.21547796       0.63378028      -0.82861424       2.74082026
I        1.68604701      21.44873596      -0.55378482      -0.32075741       0.03890017       0.09133614      -0.23765607      -0.88290470      -6.23200172
I        5.08126981      16.87598500       5.87261267      -0.39916572      -0.14369507      -0.17285409       2.88381173      -1.25960446       0.03754206
I        1.81045095      21.51015819       3.94003788      -0.00099055      -0.32297773       0.32192771      -3.54106159       2.39974480      -2.75863500
I        5.32688640      19.85972626       2.31563895       0.15663788       0.53955333      -0.04313925       2.53966523      -1.22794081      -0.68454072
I        0.47979606      18.55349837       7.44819682       0.16158738      -0.76271781      -0.12077896      -1.53619980       2.98654525       2.40332397
I        5.48009518      24.20009542       3.89057132       0.14702468      -0.05472387      -0.09422943      -3.38330900       1.06964845      -1.22104468
I        0.58763220      29.30617126       3.85383798       0.20135552       0.35194827       0.44760008      -0.67003779       3.81986173      -1.28883084
I        6.25944932      23.62601244      -0.42835199      -0.01686169      -0.12947703       0.39609323       0.63009558       1.26679217      -1.80103360
I        0.36757030      28.95611322      -0.59441461      -0.09607495       0.01972987       0.35856633      -2.95709624       6.23158912       0.22505037
I        4.24290875      28.65915051       7.21016701       0.15537172      -0.43609378      -0.16085103      -2.41733845      -0.70156153      -0.31023102
I        1.90650687      25.84594010       2.28828858       0.04763446      -0.89061046      -0.17044284       1.76316403       3.73348912       1.85220701
I       11.54713392      16.83885113       1.28423605       0.30155482      -0.58564615      -0.32597333       1.07797800       0.69934891       2.63491967
I        9.84875302      20.59854804       0.48404578      -0.07718440      -0.06842014       0.17845377      -1.25137417      -3.82186461      -1.02031641
I       12.42510329      16.10473601       5.47165432      -0.11449833       0.22733087      -0.03826929      -0.19523392       1.92636437      -1.06969306
I        9.36891867      21.21440710       5.00759058      -0.06948875      -0.06178354      -0.06118909       3.19535035      -0.35945566      -0.79407961
I       14.14014982      20.10850923       3.76768423      -0.13748009      -0.05914880      -0.11353038       2.48380668      -3.39578713      -1.11942498
I        8.14736535      18.06187558       7.70158038       0.24723337       0.28173815      -0.02527132      -4.20260926      -5.43919616      -0.82538813
I       13.41145659      24.45984664       4.50196509      -0.20265385      -0.01557871       0.12781298       1.05953407      -0.11546567       1.73682930
I        8.62733191      28.55282211       4.49707407      -0.07035962      -0.01444789      -0.11216453      -3.06030610      -2.30745986       0.56019657
I       13.23022710      23.02574250       0.20260480       0.07359809       0.05263407      -0.06454625      -4.66198568       3.88041900      -6.32430385
I        8.56970215      29.77982786       0.63198289      -0.12136795      -0.04022450      -0.54798420       0.40549728       0.84430217      -0.89403271
I       12.14774463      28.10826266       6.14789648       0.32955950       0.07247671       0.15751013      -2.70293828       4.01541941      -0.08726842
I        9.93474776      24.76245943       2.03562513      -0.29477887      -0.07876943      -0.01147793      -0.18941538       2.68023261       1.73827342
Cs       1.15189170      18.23808364      11.32662178      -0.03801504       0.13453308       0.00741325       1.12966178      -1.56027255       4.51995835
Cs       5.20721103      20.46873208      -1.91809685       0.09826623      -0.27503522       0.01625191      -2.24552250       2.04163781       3.58355540
Cs       1.73805938      24.87347794       5.18836422      -0.05125601       0.20850377       0.09187023       0.75786487       2.91301356       3.12595818
Cs       5.08658779      28.93944736      10.57380954      -0.20233217      -0.14792525       0.03800687      -2.42914425       0.88150970       2.14376046
Cs       8.97517482      19.14166850      11.84043638       0.02297502      -0.15779852      -0.01124845      -0.31670936       4.61277881      -0.90879222
Cs      12.97557895      19.63167096      -1.34836864       0.00778527      -0.07430414      -0.07088432       2.39239874      -1.87251734      -2.00071476
Cs       9.09880725      25.19627931       5.76246751      -0.00264796      -0.06839119       0.28138002      -2.70520797      -0.53341418      -2.59983182
Cs      11.84108812      29.26131714      10.67550368       0.14109396      -0.00782122       0.01111432       0.69459738      -2.05889403       4.60567865
Pb       2.70693649      29.73557911      -2.59754600      -0.40805824       0.37058096       0.07573831      -4.16931142       5.66741397      -0.00818299
Pb       6.51680645      29.69468615      -2.28723434       0.59576139       0.30815812       0.03476278      -5.14322867      -1.24358943       2.81260458
Pb       3.57923630      23.40473552      10.49319048      -0.39918276      -0.03675215      -0.03275967      -0.88563184      -0.69451530       1.64060373
Pb      31.48671406      23.45793060      11.19481955      -0.21659513       0.25257549      -0.01633208       0.92482940      -0.19185198       3.26677884
Pb      10.50535543      29.66370145      -2.21608483       0.26317900       0.22100082       0.13108398       3.13851353       0.48173731      -1.43603036
Pb      14.52417455      30.17173514      -1.93881156      -0.03297343      -0.76890980      -0.07014899      -1.53774440      -1.93613279      -1.06684008
Pb      11.50292822      23.73235500      11.34124224      -0.38954559      -0.69734269      -0.07942337       2.01610566      -0.38755565       4.36217527
Pb       7.22627641      23.45402101      10.93056992       0.39647427      -0.56423042      -0.14234563       1.60492122       6.36683193      -1.73900401
I        4.37515240      17.38693127       9.62685728      -0.37917853      -0.13182636       0.30667861      -3.16080701      -2.41347204      -0.76386862
I        1.65667434      21.59221857       8.48929532      -0.03632201       0.10898491       0.12671504       1.40863428       1.38061947       0.04417855
I        4.49277662      16.87429965      13.72599118      -0.66468788      -0.06038941       0.51936097       2.10531592       4.01723208      -5.52339223
I        1.15921718      22.48823750      12.78687759       0.37784948       0.14940769      -0.08634140      -0.42252978      -4.17508046      -4.32825956
I        5.32752266      20.76520660      11.46297153       0.11133503       0.17400283       0.03504480      -2.72974106       1.33123325       5.37655794
I       -0.06904614      19.13988614      14.96370935       0.31339828       0.36998311       0.23270311      -0.74299289      -3.42082112       0.14096756
I        5.06316135      25.19190233      12.85286011       0.27256432      -0.24504847      -0.51962448       2.13255082      -3.67912858       0.52689769
I        1.04363878      29.52276976      12.45934951      -0.56485232       0.00306469       0.12094760       0.14073636      -2.16816744      -0.03198390
I        5.69550999      23.38496224       8.02335723       0.00298402       0.20115914      -0.04745454       0.75818374      -3.19684764      -0.89768396
I        0.24966878      31.01478456       8.69168826       0.07111745      -0.16485024      -0.17656697      -2.21246461       1.64084214       4.62817566
I        4.36730486      27.22140721      -1.90584650       0.14737097       0.19354006       0.05835281       3.89713263       1.23237662      -6.99566635
I        1.77585433      25.89305824       9.19731206       0.11619571       0.00788976       0.12611152      -0.30077892       3.23958047      -0.29443164
I       12.35449369      17.80003156       9.65664426       0.12446874      -0.00705539       0.07146463       2.57493402      -0.92166367       1.41335738
I       10.07735611      21.79836801       9.28198112      -0.46857164       0.37421724       0.26989481      -2.32472530      -0.27528282       0.31365538
I       11.62848628      17.65782495      14.17071044      -0.09259256      -0.19455232       0.42707008       2.30333527      -0.03002773       0.14316518
I        9.20677414      22.38755127      13.34902150      -0.07732758      -0.11866027       0.28670194      -1.54645401      -4.41753168      -2.57363820
I       13.62439424      20.76711264      11.74169701      -0.32976179       0.47500095       0.01046299       2.38727089       2.53346642       0.18377524
I        7.57197940      18.44191074      15.93626097       0.37940514       0.53543120      -0.13396120       3.89106327      -0.16361750       1.24436417
I       13.46284646      25.56569073      13.04544924       0.00684129       0.06525575       0.04046810      -1.93565668       1.35781571      -1.73262008
I        8.02180727      29.20329992      12.93392644       0.30661527       0.37664901       0.54272468       0.98372543       0.90692744      -0.07154798
I       13.03916997      24.22076626       8.72236549       0.29087494       0.22711607      -0.18942974       0.06217868       1.92362239      -2.30768917
I        8.33446201      30.16198750       8.97324195       0.23565708       0.25952973      -0.62450931       2.12048088      -5.55217382      -1.14087107
I       12.75351031      27.49473884      -0.76588187      -0.67882449      -0.00368463      -0.37877447       5.12628494      -1.34907430       2.13587783
I        9.21660619      25.94253717      10.91144789       0.10171796       0.11862952      -0.22409123       0.94674890      -0.23848461       2.84879858
Cs      17.74542768       3.27003348       5.10451525      -0.18069571      -0.26277787      -0.07791632      -0.24752053      -3.42338573       0.12024265
Cs      20.85443836       5.78838493       8.76157822       0.11397055      -0.29718722       0.15112212       0.81529112       3.65122660      -1.33073083
Cs      17.90313372       9.23996575      -0.58404177      -0.12954693       0.01411336       0.02121047       1.46627652       0.05075728       5.45998793
Cs      21.48200160      12.18811854       3.56072490      -0.09284648       0.05794681       0.07407807      -0.58065940       0.52690425       2.55913621
Cs      24.89423219       2.95513967       4.65537270       0.06706300      -0.08714492      -0.03169443       5.57393038      -1.58785284       1.77265641
Cs      27.90017917       5.23506454       8.81015015       0.13362536       0.02500283       0.01107013      -2.37615905      -3.87059423       3.48640646
Cs      24.69167682      10.30874975      -0.22989052       0.06916226       0.01208479       0.05864922       2.66191893       3.81587390       1.55651260
Cs      28.74118785      12.44814671       4.49683309       0.00946357       0.00580820      -0.05325048       1.85493428       2.76315128       4.42531732
Pb      18.18112018      15.21921950       7.73187072       0.94232285       0.13513289       0.29650678       3.27519337       0.70394470       3.01939652
Pb      22.19476155      15.37209133       7.98095305      -0.02208696      -0.52088407      -0.54736998       0.78699059      -2.25764217       0.45901453
Pb      19.40027626       7.53208127       4.00455398      -0.14217646       0.61295363       0.13994303       5.39413953      -2.25525134      -4.55708081
Pb      15.37410685       8.10691561       4.20666626       0.55602534       0.01183800      -0.01659078       5.92680234       3.51492746      -4.54421378
Pb      26.52790514      15.28243588       8.08027435      -0.03524877      -0.10631372      -0.38588739      -0.76781761      -0.95832739       1.27441540
Pb      30.39427620      15.68154784       8.43870827       0.05517157       0.04654473      -0.31491604      -6.82128005      -2.25595537       0.17433769
Pb      27.12458746       7.64127799       4.00384766       0.62244528      -0.22032926       0.43764343      -2.33134624       0.04045676       1.33462885
Pb      23.21962861       7.47110586       4.13362967       0.31811194      -0.05760208       0.11377945      -1.63456682       4.76776458       3.40902255
I       20.48152561       1.12728508       2.31854509      -0.29237390       0.13195816       0.44983650      -0.61656261       1.92169943      -0.36316710
I       17.53288578       6.28151559       1.91935042      -0.43806647       0.04037956       0.26325046      -3.93944645      -2.61214873      -1.11282018
I       20.52808804       1.93738437       7.25223326      -0.06855495      -0.20299475      -0.38173446      -5.12752150      -1.72777191      -0.02785792
I       17.62046273       7.02327360       6.54883594      -0.18514073      -0.02985073      -0.12752297      -2.91239368       2.32999140      -2.55979086
I       21.25096095       5.04413786       4.67115433       0.00828908      -0.17677048       0.04236926       2.63283562       0.23022774       1.90094051
I       16.48444546       3.62676180       9.34960716      -0.30723006      -0.43978376       0.09042852      -0.16876554       0.50411341      -2.19824149
I       21.45786179       9.37285086       6.03931578       0.04597915      -0.22490786      -0.13867601      -5.38268607       0.74101557      -1.54786609
I       15.97104811      13.71828534       6.16968399       0.23887554      -0.00027263      -0.27011669      -3.50157874      -0.44913903      -3.32953633
I       21.65511351       7.92800231       1.46624283      -0.13129433       0.21067095       0.17980174       1.90560288      -3.97885973      -5.10934716
I       16.11829160      14.54709744       2.16215203      -0.04689351       0.15326230      -0.66834397       1.57148983       4.08682781      -2.91755849
I       20.13703203      12.48056890       8.01277236      -0.12715372       0.66567063       0.15025735       1.13301150       3.35107536       3.02531960
I       17.61855592      10.44222922       3.69273304       0.15695131      -0.32408497      -0.07318467      -1.25566058      -1.60077922       5.04002276
I       28.40663863       1.46527714       2.38790014       0.06208018      -0.12250525      -0.23562966       2.87045282       0.37046416      -1.09291563
I       25.24516570       5.88195769       1.96854280       0.09212716       0.30681200       0.41526517       0.47521360      -1.50137101      -1.27622607