320
Lattice="36.61494431704515 0.8521064442996575 0.6472952383376436 -0.4899562435077865 21.43320960287554 0.4582089290160639 -0.349194964961731 -0.4123068262220005 19.635594233834194" Properties=species:S:1:pos:R:3:forces:R:3:momenta:R:3 energy=-992.418367698868 stress="0.005490713519344761 2.586903493598562e-05 -1.4119955967976739e-05 2.586903493598562e-05 0.005201087518936515 3.7076107456878006e-05 -1.4119955967976739e-05 3.7076107456878006e-05 0.005245670579465307" free_energy=-992.418367698868 pbc="T T T"
Cs       7.87419960      19.28377160       1.08394165      -0.00000185      -0.00002055      -0.00000461      -2.20113066       0.56642075      -0.54755623
Cs      14.17512823       6.67107682      18.11072038       0.00001906      -0.00002199      -0.00000235      -1.33835398      -0.17053643       1.26708935
Cs       5.41132253       3.14302114       0.68969191       0.00001067      -0.00000768      -0.00001059       2.75167273      -1.92105080      -0.60426151
Cs      17.12795743       1.37855125      18.04677304      -0.00001216       0.00000660      -0.00000474       0.45267477       1.89237753       0.22864016
Cs       7.78683576      19.18062116       5.99281555       0.00002130       0.00001202       0.00000732      -1.52139486      -0.39792284      -0.04679671
Cs      14.43705349       6.98027352       3.38405775       0.00000629       0.00000324      -0.00001740       0.01211914       0.51326789       0.29813978
Cs       5.32409261       3.03994046       5.59858554      -0.00002087       0.00000377       0.00000514       0.84288049      -1.06233918       2.16694313
Cs      17.38982912       1.68778126       3.32006904       0.00000515       0.00000231      -0.00001206       1.62595751       2.01609415       1.79506137
Pb       2.65797044      19.69951678      18.19736998      -0.00001402       0.00001951       0.00002393      -2.07789889       0.01538598      -1.08615900
Pb      19.39135243       6.25522470       0.99726602       0.00001129      -0.00000483      -0.00000001       1.24361013      -1.89589560      -1.43266923
Pb       9.97475250       3.78710300      17.97599942       0.00002754      -0.00000414      -0.00000135      -0.42903490      -2.47091553       1.08082321
Pb      12.56450769       0.73443306       0.76044109       0.00004880       0.00002696       0.00002984       2.24037538       0.95952578       1.17624384
Pb       2.91987366      20.00883736       3.47070175      -0.00005059      -0.00003986      -0.00001062      -2.01357988      -0.77034444      -0.25998475
Pb      19.30408281       6.15209864       5.90614066      -0.00001589      -0.00001012      -0.00001430       2.50805599      -3.21851624       2.37160806
Pb      10.23670664       4.09633803       3.24928893      -0.00003007       0.00000524      -0.00000818      -2.05762172      -1.40677205       1.06230018
Pb      12.47719868       0.63139419       5.66935940       0.00003504       0.00002623      -0.00003183      -0.62228276       1.54788211       1.71293793
I        2.29539705       0.46016790       0.57660220      -0.00001272       0.00000049       0.00001304      -0.84481262      -1.23388142      -0.32813641
I        1.93641579       3.63532948      17.83616899       0.00003440      -0.00001368      -0.00000572       2.19528379       0.61122610      -0.22167467
I       11.35315694       6.03152321       0.85381756      -0.00001474       0.00001547       0.00000720      -1.52992208      -1.31312404      -0.05734877
I       10.69618235      19.92325415      18.34078759      -0.00000469      -0.00002129       0.00001332       0.49983893       0.05395019      -1.72789547
I       17.91555822      18.62746127      18.43362061      -0.00000571       0.00000495       0.00002649      -0.70784621      -0.20726057       1.55727106
I        4.13375772       7.32729063       0.76101716       0.00003302       0.00000322      -0.00002465       1.20649684       1.13124212      -0.52103393
I       13.09098177       2.42994151      17.99986976      -0.00000700      -0.00000768      -0.00001011      -1.20968820       0.02481301       0.42280014
I        9.44830606       2.09160809       0.73660685      -0.00001560       0.00000820      -0.00000643       1.89176780      -0.06977460      -0.89744987
I        5.40945665      21.18455416      18.27695623       0.00001391       0.00000675      -0.00002157       0.34152747      -1.15819311      -0.53897606
I       16.63986082       4.77020584       0.91771289      -0.00001740       0.00000841       0.00000668      -1.91337930      -0.99980882      -0.06572274
I        7.15699230       5.14341212      17.95760624      -0.00000991      -0.00000980      -0.00000792      -2.15924850      -0.50294704      -0.97299711
I       14.89234601      20.81136774       1.23706261      -0.00002835       0.00000926       0.00001505       1.25732393       2.57525577      -0.95404825
I        2.20811487       0.35713534       5.48558662      -0.00000240      -0.00000338       0.00000189       1.23284296       0.48696610       0.64822411
I        2.19830311       3.94449278       3.10939407       0.00000400       0.00003318       0.00001560      -0.30590144       0.92179237       1.16973044
I       11.26582146       5.92844845       5.76275004       0.00000219      -0.00000035      -0.00000241      -0.31519277       1.85328373       0.10582737
I       10.95809302      20.23246532       3.61413310       0.00000808       0.00000624       0.00000144       0.71465330      -0.73898399       2.10326439
I       18.17746955      18.93672130       3.70703126      -0.00001391      -0.00000418      -0.00001993       0.01443331       0.80483912       1.10940099
I        4.04648283       7.22418893       5.66980406       0.00001361       0.00001223       0.00001869      -1.23523511       2.54151786      -1.34972044
I       13.35291578       2.73916271       3.27313186      -0.00002989      -0.00001473       0.00000525      -1.29637885      -2.44572656       0.95456635
I        9.36097227       1.98857272       5.64547103       0.00001414      -0.00002603       0.00000950       2.74419310       1.16728326       0.15897477
I        5.67137602      21.49383319       3.55024092       0.00000867       0.00000227       0.00000107      -0.66479651       1.07427071      -0.26525744
I       16.55256538       4.66709881       5.82663085       0.00000821       0.00001876      -0.00000400      -1.11688363       0.06923770       1.26784958
I        7.41892776       5.45262706       3.23083840       0.00000528      -0.00001596       0.00000955      -1.22845769      -0.26260128       0.25930357
I       14.80502774      20.70834296       6.14597816      -0.00002288      -0.00000906       0.00000984      -0.33907872       1.20474204      -0.07989552
Cs       7.69960211      19.07761819      10.90173877      -0.00000185      -0.00002055      -0.00000461      -2.20113066       0.56642075      -0.54755623
Cs      14.34972571       6.87723024       8.29292327       0.00001906      -0.00002200      -0.00000236      -1.33835398      -0.17053643       1.26708935
Cs       5.23672505       2.93686773      10.50748903       0.00001067      -0.00000768      -0.00001060       2.75167273      -1.92105080      -0.60426151
Cs      17.30255491       1.58470467       8.22897593      -0.00001216       0.00000659      -0.00000475       0.45267477       1.89237753       0.22864016
Cs       7.61223827      18.97446775      15.81061267       0.00002131       0.00001202       0.00000732      -1.52139486      -0.39792284      -0.04679671
Cs      14.26245601       6.77412011      13.20185487       0.00000629       0.00000324      -0.00001740       0.01211914       0.51326789       0.29813978
Cs       5.14949513       2.83378705      15.41638266      -0.00002087       0.00000377       0.00000513       0.84288049      -1.06233918       2.16694313
Cs      17.21523164       1.48162785      13.13786616       0.00000514       0.00000231      -0.00001206       1.62595751       2.01609415       1.79506137
Pb       2.83256792      19.90567019       8.37957287      -0.00001401       0.00001952       0.00002390      -2.07789889       0.01538598      -1.08615900
Pb      19.21675495       6.04907129      10.81506314       0.00001129      -0.00000483      -0.00000001       1.24361013      -1.89589560      -1.43266923
Pb      10.14934998       3.99325642       8.15820231       0.00002754      -0.00000415      -0.00000136      -0.42903490      -2.47091553       1.08082321
Pb      12.38991021       0.52827965      10.57823821       0.00004878       0.00002696       0.00002984       2.24037538       0.95952578       1.17624384
Pb       2.74527617      19.80268395      13.28849887      -0.00005057      -0.00003986      -0.00001062      -2.01357988      -0.77034444      -0.25998475
Pb      19.12948533       5.94594523      15.72393778      -0.00001589      -0.00001011      -0.00001430       2.50805599      -3.21851624       2.37160806
Pb      10.06210916       3.89018462      13.06708605      -0.00003007       0.00000524      -0.00000819      -2.05762172      -1.40677205       1.06230018
Pb      12.30260120       0.42524078      15.48715652       0.00003502       0.00002623      -0.00003185      -0.62228276       1.54788211       1.71293793
I        2.12079957       0.25401449      10.39439932      -0.00001272       0.00000049       0.00001304      -0.84481262      -1.23388142      -0.32813641
I        2.11101327       3.84148290       8.01837188       0.00003441      -0.00001370      -0.00000574       2.19528379       0.61122610      -0.22167467
I       11.17855946       5.82536980      10.67161468      -0.00001474       0.00001547       0.00000720      -1.52992208      -1.31312404      -0.05734877
I       10.87077983      20.12940756       8.52299048      -0.00000469      -0.00002128       0.00001330       0.49983893       0.05395019      -1.72789547
I       18.09015570      18.83361468       8.61582350      -0.00000571       0.00000495       0.00002648      -0.70784621      -0.20726057       1.55727106
I        3.95916024       7.12113722      10.57881428       0.00003301       0.00000322      -0.00002465       1.20649684       1.13124212      -0.52103393
I       13.26557925       2.63609493       8.18207265      -0.00000701      -0.00000769      -0.00001012      -1.20968820       0.02481301       0.42280014
I        9.27370858       1.88545468      10.55440397      -0.00001560       0.00000820      -0.00000643       1.89176780      -0.06977460      -0.89744987
I        5.58405413      21.39070757       8.45915912       0.00001391       0.00000676      -0.00002158       0.34152747      -1.15819311      -0.53897606
I       16.46526334       4.56405243      10.73551001      -0.00001740       0.00000841       0.00000668      -1.91337930      -0.99980882      -0.06572274
I        7.33158978       5.34956554       8.13980913      -0.00000991      -0.00000980      -0.00000793      -2.15924850      -0.50294704      -0.97299711
I       14.71774852      20.60521433      11.05485973      -0.00002832       0.00000925       0.00001505       1.25732393       2.57525577      -0.95404825
I        2.03351739       0.15098193      15.30338374      -0.00000241      -0.00000337       0.00000188       1.23284296       0.48696610       0.64822411
I        2.02370563       3.73833937      12.92719119       0.00000400       0.00003316       0.00001560      -0.30590144       0.92179237       1.16973044
I       11.09122398       5.72229504      15.58054716       0.00000219      -0.00000035      -0.00000241      -0.31519277       1.85328373       0.10582737
I       10.78349553      20.02631191      13.43193022       0.00000809       0.00000624       0.00000143       0.71465330      -0.73898399       2.10326439
I       18.00287206      18.73056789      13.52482838      -0.00001390      -0.00000418      -0.00001993       0.01443331       0.80483912       1.10940099
I        3.87188535       7.01803552      15.48760118       0.00001361       0.00001223       0.00001869      -1.23523511       2.54151786      -1.34972044
I       13.17831830       2.53300930      13.09092898      -0.00002989      -0.00001473       0.00000525      -1.29637885      -2.44572656       0.95456635
I        9.18637479       1.78241931      15.46326815       0.00001412      -0.00002604       0.00000949       2.74419310       1.16728326       0.15897477
I        5.49677853      21.28767978      13.36803804       0.00000867       0.00000227       0.00000107      -0.66479651       1.07427071      -0.26525744
I       16.37796790       4.46094540      15.64442797       0.00000821       0.00001875      -0.00000400      -1.11688363       0.06923770       1.26784958
I        7.24433028       5.24647365      13.04863552       0.00000528      -0.00001596       0.00000955      -1.22845769      -0.26260128       0.25930357
I       14.63043025      20.50218955      15.96377528      -0.00002286      -0.00000907       0.00000984      -0.33907872       1.20474204      -0.07989552
Cs       8.11917772       8.56716680       0.85483718      -0.00000185      -0.00002055      -0.00000461      -2.20113066       0.56642075      -0.54755623
Cs      13.93015010      17.38768163      18.33982485       0.00001907      -0.00002200      -0.00000236      -1.33835398      -0.17053643       1.26708935
Cs       5.16634441      13.85962594       0.91879637       0.00001066      -0.00000767      -0.00001059       2.75167273      -1.92105080      -0.60426151
Cs      16.88297930      12.09515606      18.27587751      -0.00001215       0.00000660      -0.00000475       0.45267477       1.89237753       0.22864016
Cs       8.03181388       8.46401636       5.76371108       0.00002130       0.00001202       0.00000732      -1.52139486      -0.39792284      -0.04679671
Cs      14.19207537      17.69687832       3.61316221       0.00000629       0.00000324      -0.00001739       0.01211914       0.51326789       0.29813978
Cs       5.07911449      13.75654526       5.82769000      -0.00002087       0.00000377       0.00000514       0.84288049      -1.06233918       2.16694313
Cs      17.14485100      12.40438606       3.54917350       0.00000514       0.00000232      -0.00001206       1.62595751       2.01609415       1.79506137
Pb       2.90294856       8.98291198      17.96826552      -0.00001402       0.00001950       0.00002390      -2.07789889       0.01538598      -1.08615900
Pb      19.14637431      16.97182950       1.22637048       0.00001129      -0.00000482      -0.00000000       1.24361013      -1.89589560      -1.43266923
Pb       9.72977437      14.50370781      18.20510389       0.00002755      -0.00000415      -0.00000137      -0.42903490      -2.47091553       1.08082321
Pb      12.31952957      11.45103786       0.98954555       0.00004879       0.00002697       0.00002984       2.24037538       0.95952578       1.17624384
Pb       3.16485178       9.29223256       3.24159728      -0.00005058      -0.00003986      -0.00001061      -2.01357988      -0.77034444      -0.25998475
Pb      19.05910469      16.86870344       6.13524512      -0.00001590      -0.00001011      -0.00001429       2.50805599      -3.21851624       2.37160806
Pb       9.99172852      14.81294283       3.47839339      -0.00003007       0.00000524      -0.00000818      -2.05762172      -1.40677205       1.06230018
Pb      12.23222056      11.34799899       5.89846386       0.00003503       0.00002624      -0.00003183      -0.62228276       1.54788211       1.71293793
I        2.05041893      11.17677270       0.80570666      -0.00001272       0.00000050       0.00001305      -0.84481262      -1.23388142      -0.32813641
I        1.69143766      14.35193429      18.06527346       0.00003442      -0.00001370      -0.00000574       2.19528379       0.61122610      -0.22167467
I       11.10817882      16.74812801       1.08292202      -0.00001474       0.00001548       0.00000720      -1.52992208      -1.31312404      -0.05734877
I       10.94116047       9.20664935      18.11168313      -0.00000469      -0.00002130       0.00001330       0.49983893       0.05395019      -1.72789547
I       18.16053634       7.91085647      18.20451615      -0.00000571       0.00000495       0.00002649      -0.70784621      -0.20726057       1.55727106
I        3.88877960      18.04389543       0.99012162       0.00003301       0.00000323      -0.00002464       1.20649684       1.13124212      -0.52103393
I       12.84600364      13.14654632      18.22897423      -0.00000700      -0.00000769      -0.00001012      -1.20968820       0.02481301       0.42280014
I        9.20332794      12.80821289       0.96571131      -0.00001560       0.00000820      -0.00000643       1.89176780      -0.06977460      -0.89744987
I        5.65443477      10.46794936      18.04785177       0.00001391       0.00000675      -0.00002157       0.34152747      -1.15819311      -0.53897606
I       16.39488270      15.48681064       1.14681735      -0.00001741       0.00000841       0.00000668      -1.91337930      -0.99980882      -0.06572274
I        6.91201417      15.86001693      18.18671071      -0.00000991      -0.00000980      -0.00000792      -2.15924850      -0.50294704      -0.97299711
I       15.13732413      10.09476294       1.00795814      -0.00002834       0.00000925       0.00001505       1.25732393       2.57525577      -0.95404825
I        1.96313675      11.07374014       5.71469108      -0.00000240      -0.00000337       0.00000189       1.23284296       0.48696610       0.64822411
I        1.95332499      14.66109758       3.33849853       0.00000400       0.00003318       0.00001562      -0.30590144       0.92179237       1.16973044
I       11.02084334      16.64505325       5.99185450       0.00000219      -0.00000035      -0.00000241      -0.31519277       1.85328373       0.10582737
I       11.20307114       9.51586052       3.38502863       0.00000808       0.00000624       0.00000145       0.71465330      -0.73898399       2.10326439
I       18.42244767       8.22011650       3.47792679      -0.00001391      -0.00000418      -0.00001992       0.01443331       0.80483912       1.10940099
I        3.80150471      17.94079373       5.89890852       0.00001361       0.00001223       0.00001871      -1.23523511       2.54151786      -1.34972044
I       13.10793766      13.45576751       3.50223632      -0.00002989      -0.00001473       0.00000525      -1.29637885      -2.44572656       0.95456635
I        9.11599415      12.70517752       5.87457549       0.00001413      -0.00002603       0.00000949       2.74419310       1.16728326       0.15897477
I        5.91635414      10.77722839       3.32113645       0.00000867       0.00000227       0.00000107      -0.66479651       1.07427071      -0.26525744
I       16.30758726      15.38370361       6.05573531       0.00000821       0.00001876      -0.00000400      -1.11688363       0.06923770       1.26784958
I        7.17394964      16.16923186       3.45994286       0.00000528      -0.00001596       0.00000955      -1.22845769      -0.26260128       0.25930357
I       15.05000586       9.99173816       5.91687369      -0.00002287      -0.00000906       0.00000985      -0.33907872       1.20474204      -0.07989552
Cs       7.94458024       8.36101339      10.67263430      -0.00000185      -0.00002055      -0.00000461      -2.20113066       0.56642075      -0.54755623
Cs      14.10474759      17.59383504       8.52202773       0.00001906      -0.00002200      -0.00000236      -1.33835398      -0.17053643       1.26708935
Cs       4.99174693      13.65347253      10.73659349       0.00001067      -0.00000768      -0.00001060       2.75167273      -1.92105080      -0.60426151
Cs      17.05757679      12.30130947       8.45808039      -0.00001216       0.00000660      -0.00000475       0.45267477       1.89237753       0.22864016
Cs       7.85721640       8.25786295      15.58150820       0.00002130       0.00001202       0.00000732      -1.52139486      -0.39792284      -0.04679671
Cs      14.01747789      17.49072491      13.43095933       0.00000629       0.00000324      -0.00001739       0.01211914       0.51326789       0.29813978
Cs       4.90451701      13.55039185      15.64548712      -0.00002087       0.00000377       0.00000514       0.84288049      -1.06233918       2.16694313
Cs      16.97025352      12.19823265      13.36697062       0.00000514       0.00000232      -0.00001206       1.62595751       2.01609415       1.79506137
Pb       3.07754605       9.18906539       8.15046840      -0.00001403       0.00001951       0.00002392      -2.07789889       0.01538598      -1.08615900
Pb      18.97177683      16.76567609      11.04416760       0.00001127      -0.00000483      -0.00000001       1.24361013      -1.89589560      -1.43266923
Pb       9.90437186      14.70986122       8.38730677       0.00002754      -0.00000415      -0.00000136      -0.42903490      -2.47091553       1.08082321
Pb      12.14493209      11.24488445      10.80734267       0.00004879       0.00002697       0.00002984       2.24037538       0.95952578       1.17624384
Pb       2.99025430       9.08607915      13.05939440      -0.00005059      -0.00003986      -0.00001061      -2.01357988      -0.77034444      -0.25998475
Pb      18.88450721      16.66255003      15.95304224      -0.00001591      -0.00001011      -0.00001429       2.50805599      -3.21851624       2.37160806
Pb       9.81713104      14.60678942      13.29619051      -0.00003006       0.00000524      -0.00000818      -2.05762172      -1.40677205       1.06230018
Pb      12.05762308      11.14184558      15.71626098       0.00003503       0.00002624      -0.00003183      -0.62228276       1.54788211       1.71293793
I        1.87582145      10.97061929      10.62350378      -0.00001272       0.00000049       0.00001304      -0.84481262      -1.23388142      -0.32813641
I        1.86603515      14.55808770       8.24747634       0.00003441      -0.00001369      -0.00000573       2.19528379       0.61122610      -0.22167467
I       10.93358134      16.54197460      10.90071914      -0.00001474       0.00001547       0.00000720      -1.52992208      -1.31312404      -0.05734877
I       11.11575796       9.41280276       8.29388601      -0.00000469      -0.00002129       0.00001331       0.49983893       0.05395019      -1.72789547
I       18.33513383       8.11700988       8.38671903      -0.00000573       0.00000495       0.00002649      -0.70784621      -0.20726057       1.55727106
I        3.71418212      17.83774202      10.80791874       0.00003300       0.00000322      -0.00002464       1.20649684       1.13124212      -0.52103393
I       13.02060113      13.35269973       8.41117711      -0.00000701      -0.00000769      -0.00001012      -1.20968820       0.02481301       0.42280014
I        9.02873046      12.60205948      10.78350843      -0.00001560       0.00000820      -0.00000643       1.89176780      -0.06977460      -0.89744987
I        5.82903226      10.67410277       8.23005465       0.00001391       0.00000676      -0.00002157       0.34152747      -1.15819311      -0.53897606
I       16.22028522      15.28065723      10.96461447      -0.00001741       0.00000841       0.00000668      -1.91337930      -0.99980882      -0.06572274
I        7.08661166      16.06617034       8.36891359      -0.00000991      -0.00000980      -0.00000792      -2.15924850      -0.50294704      -0.97299711
I       14.96272665       9.88860953      10.82575526      -0.00002834       0.00000925       0.00001505       1.25732393       2.57525577      -0.95404825
I        1.78853927      10.86758673      15.53248820      -0.00000241      -0.00000337       0.00000189       1.23284296       0.48696610       0.64822411
I        1.77872751      14.45494417      13.15629565       0.00000400       0.00003318       0.00001560      -0.30590144       0.92179237       1.16973044
I       10.84624586      16.43889984      15.80965162       0.00000219      -0.00000035      -0.00000240      -0.31519277       1.85328373       0.10582737
I       11.02847366       9.30970711      13.20282575       0.00000808       0.00000624       0.00000144       0.71465330      -0.73898399       2.10326439
I       18.24785019       8.01396309      13.29572391      -0.00001392      -0.00000418      -0.00001993       0.01443331       0.80483912       1.10940099
I        3.62690723      17.73464032      15.71670564       0.00001360       0.00001223       0.00001870      -1.23523511       2.54151786      -1.34972044
I       12.93334018      13.24961410      13.32003344      -0.00002989      -0.00001473       0.00000525      -1.29637885      -2.44572656       0.95456635
I        8.94139667      12.49902411      15.69237261       0.00001413      -0.00002603       0.00000949       2.74419310       1.16728326       0.15897477
I        5.74175666      10.57107498      13.13893357       0.00000867       0.00000227       0.00000107      -0.66479651       1.07427071      -0.26525744
I       16.13298978      15.17755020      15.87353243       0.00000821       0.00001875      -0.00000399      -1.11688363       0.06923770       1.26784958
I        6.99935216      15.96307845      13.27773998       0.00000528      -0.00001596       0.00000955      -1.22845769      -0.26260128       0.25930357
I       14.87540838       9.78558475      15.73467081      -0.00002287      -0.00000907       0.00000985      -0.33907872       1.20474204      -0.07989552
Cs      26.18167176      19.70982483       1.40758927      -0.00000185      -0.00002055      -0.00000461      -2.20113066       0.56642075      -0.54755623
Cs      32.48260038       7.09713005      18.43436800       0.00001907      -0.00002200      -0.00000235      -1.33835398      -0.17053643       1.26708935
Cs      23.71879469       3.56907436       1.01333953       0.00001067      -0.00000767      -0.00001060       2.75167273      -1.92105080      -0.60426151
Cs      35.43542958       1.80460448      18.37042066      -0.00001215       0.00000659      -0.00000475       0.45267477       1.89237753       0.22864016
Cs      26.09430792      19.60667439       6.31646317       0.00002130       0.00001201       0.00000732      -1.52139486      -0.39792284      -0.04679671
Cs      32.74452565       7.40632674       3.70770537       0.00000629       0.00000324      -0.00001740       0.01211914       0.51326789       0.29813978
Cs      23.63156477       3.46599368       5.92223316      -0.00002087       0.00000378       0.00000514       0.84288049      -1.06233918       2.16694313
Cs      35.69730128       2.11383448       3.64371666       0.00000515       0.00000232      -0.00001206       1.62595751       2.01609415       1.79506137
Pb      20.96544260      20.12557000      18.52101760      -0.00001402       0.00001950       0.00002393      -2.07789889       0.01538598      -1.08615900
Pb       1.08388027       5.82917148       0.67361840       0.00001129      -0.00000484      -0.00000001       1.24361013      -1.89589560      -1.43266923
Pb      28.28222465       4.21315623      18.29964704       0.00002755      -0.00000415      -0.00000135      -0.42903490      -2.47091553       1.08082321
Pb      30.87197985       1.16048628       1.08408871       0.00004879       0.00002698       0.00002983       2.24037538       0.95952578       1.17624384
Pb      21.22734582      20.43489059       3.79434937      -0.00005059      -0.00003988      -0.00001062      -2.01357988      -0.77034444      -0.25998475
Pb       0.99661065       5.72604542       5.58249304      -0.00001589      -0.00001011      -0.00001429       2.50805599      -3.21851624       2.37160806
Pb      28.54417880       4.52239125       3.57293655      -0.00003006       0.00000524      -0.00000818      -2.05762172      -1.40677205       1.06230018
Pb      30.78467084       1.05744741       5.99300702       0.00003503       0.00002625      -0.00003182      -0.62228276       1.54788211       1.71293793
I       20.60286921       0.88622112       0.90024982      -0.00001272       0.00000049       0.00001304      -0.84481262      -1.23388142      -0.32813641
I       20.24388794       4.06138271      18.15981661       0.00003442      -0.00001370      -0.00000573       2.19528379       0.61122610      -0.22167467
I       29.66062910       6.45757643       1.17746518      -0.00001474       0.00001547       0.00000720      -1.52992208      -1.31312404      -0.05734877
I       29.00365451      20.34930737      18.66443521      -0.00000469      -0.00002129       0.00001331       0.49983893       0.05395019      -1.72789547
I       -0.39191394      18.20140804      18.10997299      -0.00000571       0.00000496       0.00002649      -0.70784621      -0.20726057       1.55727106
I       22.44122988       7.75334385       1.08466478       0.00003301       0.00000322      -0.00002465       1.20649684       1.13124212      -0.52103393
I       31.39845392       2.85599474      18.32351738      -0.00000700      -0.00000769      -0.00001011      -1.20968820       0.02481301       0.42280014
I       27.75577822       2.51766131       1.06025447      -0.00001560       0.00000820      -0.00000643       1.89176780      -0.06977460      -0.89744987
I       23.71692881      21.61060738      18.60060385       0.00001391       0.00000676      -0.00002157       0.34152747      -1.15819311      -0.53897606
I       34.94733298       5.19625906       1.24136051      -0.00001741       0.00000842       0.00000668      -1.91337930      -0.99980882      -0.06572274
I       25.46446445       5.56946535      18.28125386      -0.00000991      -0.00000980      -0.00000792      -2.15924850      -0.50294704      -0.97299711
I       33.19981817      21.23742097       1.56071023      -0.00002834       0.00000924       0.00001505       1.25732393       2.57525577      -0.95404825
I       20.51558703       0.78318856       5.80923424      -0.00000240      -0.00000337       0.00000189       1.23284296       0.48696610       0.64822411