320
Lattice="25.356093371687486 -0.1065490082268892 -0.19187677835240669 0.07755788227136919 25.376386568457004 0.27590338859444424 0.1691801122122475 -0.29781874292918886 25.404906270035514" Properties=species:S:1:pos:R:3:forces:R:3:momenta:R:3 energy=-982.9023218370598 stress="0.005606251936729382 0.0006206668070678621 -1.0836204732065308e-05 0.0006206668070678621 0.005677500780780384 -2.5994163610993144e-05 -1.0836204732065308e-05 -2.5994163610993144e-05 0.005905245270697818" free_energy=-982.9023218370598 pbc="T T T"
Cs      13.81204899       8.87180365       5.58019539      -0.00000182       0.00001119       0.00002747       0.96293982       2.41040702      -3.40148885
Cs       7.45357004       2.55437554       5.55932147       0.00000347       0.00001046      -0.00002325       0.42190313      -0.92053314       0.22309023
Cs       6.56247610       3.03160790      11.92694491      -0.00001425      -0.00002222      -0.00001718      -2.48241327      -0.73938014      -1.41227345
Cs      12.92078323       9.34899840      11.94795031       0.00000271       0.00000425      -0.00000294       0.18676790      -0.79918518       0.20327614
Cs      13.09621688       3.19889544      11.87613863      -0.00002766       0.00000196       0.00002181      -1.62883551       0.79626029      -0.43930138
Cs       6.77665364       9.56965356      11.99316405       0.00000094       0.00000065      -0.00000578      -1.19762753       0.86835276      -1.15161083
Cs       7.27816196       8.70444440       5.63100510       0.00002055       0.00001350       0.00000130      -2.38538782       0.09221754       1.14251093
Cs      13.59770467       2.33372230       5.51416856       0.00000431       0.00001839      -0.00001973       0.51746998       2.99608023       1.00878989
Pb       3.90635534      25.01061243       9.00850955      -0.00000340      -0.00003580       0.00003064      -0.71506298       0.33979249       0.31420242
Pb      10.18722441       5.95168834       8.75358947       0.00001732       0.00003768       0.00000955       3.13215031      -0.02809690       0.47813332
Pb       3.84820701       5.97832396       8.80158898      -0.00002415       0.00002845      -0.00003048       1.48589933      -0.48490025       0.26988712
Pb      10.24538005      24.98393977       8.96053946      -0.00002358      -0.00001484      -0.00000361      -0.49924582      -2.56224598      -1.19915040
Pb       3.86408885      25.08509101       2.65728934      -0.00004602      -0.00000953      -0.00003260      -0.09072312      -2.32034750      -1.87523081
Pb      10.14489637       6.02614409       2.40237875       0.00000648      -0.00000260       0.00001288       0.10410304       0.69432023      -2.85417407
Pb       3.80586719       6.05276066       2.45033872       0.00000538       0.00001087       0.00002134       0.19547533      -2.28359302      -0.94897886
Pb      10.20308395      25.05843636       2.60931856       0.00000078       0.00002127       0.00002688      -0.62989376      -0.24919091      -0.41796997
I        3.28660720       2.80454454       9.25482852       0.00001737       0.00005095      -0.00001701       1.49721444      -0.65078029       0.27680551
I        9.64496864       9.12201963       9.27573394       0.00001102      -0.00001403       0.00000666       0.32300446       1.48295371      -3.86505644
I       17.08788666       9.09882706       8.25239922      -0.00004695      -0.00004856       0.00001214      -0.80084956      -3.83920937       0.18159356
I       10.72941565       2.78135328       8.23160651      -0.00000550       0.00000227      -0.00003384      -1.53519429       0.82786772      -0.16441493
I       13.36077948       6.48865365       9.22374271      -0.00000490      -0.00001157       0.00000667      -0.34662522      -1.37658285       1.48422530
I        7.04110204      12.85933163       9.34070094      -0.00001600       0.00002985       0.00002106       0.46937819       1.16807591      -3.56243810
I        7.01369339       5.41474427       8.28345336      -0.00002442       0.00000125       0.00000010       1.27591375      -0.27268663      -1.03488110
I       13.41082441      24.42031093       8.44246516       0.00004003       0.00001820      -0.00002638       2.18666083       1.69883076      -0.42333804
I       17.05151762       9.16255027       2.86857009      -0.00001149      -0.00004141      -0.00000621       1.63235659       2.18496144       1.03108903
I       10.69313078       2.84510132       2.84747848      -0.00001617      -0.00001424       0.00001678       0.45922492      -1.22685885       2.72230640
I        3.32288539       2.74084413      14.63858003       0.00000346       0.00005437       0.00000616       1.21995675      -1.07703785      -0.60755981
I        9.68129195       9.05832723      14.65975012       0.00000142       0.00000250      -0.00000356      -0.24507601      -0.34405174      -0.07682933
I        7.06306001       5.32847758      15.61048267       0.00000593      -0.00000889       0.00000051       0.09636644       1.58856896      -0.93149177
I       13.46027120      24.33418131      15.76945663      -0.00002002      -0.00000754      -0.00000960       1.68432524      -2.66899158      -1.97208573
I       13.31131008       6.57492607       1.89673686       0.00002686      -0.00001041       0.00000026      -0.70781922      -0.44349860       0.91892768
I        6.99168830      12.94572156       2.01371537       0.00003397      -0.00002491      -0.00000064      -0.21249540      -0.52483294       1.98004102
I        3.46067706      11.75918475      12.04302933       0.00000687       0.00000529      -0.00000994      -0.08547743       0.12901324      -2.43020576
I        9.78027160       5.38865961      11.92608434       0.00003034      -0.00002742      -0.00000293       1.88452351      -2.49195109       2.10110326
I       16.91367633       0.14423577       5.46418549       0.00000803      -0.00001742       0.00003152      -0.34791151      -2.73780871       1.50886461
I       10.59413119       6.51483695       5.58113124      -0.00000292      -0.00000295       0.00000655       0.74441105      -0.43673804       0.42360620
I        3.29507604       5.59341541       5.62473534      -0.00000271      -0.00000211       0.00000421       0.73338867      -1.44513057      -1.07440598
I        9.65343834      11.91097974       5.64576295       0.00001025      -0.00000634       0.00000108       0.79323947       1.44369697      -0.69735484
I       17.07935369       6.30996253      11.88247702       0.00000956      -0.00001146      -0.00000522       2.10699309       0.71886206      -1.15940696
I       10.72085557      -0.00758659      11.86149473       0.00002494       0.00001087      -0.00001469       0.87238779       1.15555928       0.83616342
Cs      13.89663905       8.72289428      18.28264853      -0.00000182       0.00001119       0.00002747       0.96293982       2.41040702      -3.40148885
Cs       7.53816010       2.40546617      18.26177461       0.00000347       0.00001046      -0.00002325       0.42190313      -0.92053314       0.22309023
Cs       6.64706616       2.88269853      24.62939805      -0.00001425      -0.00002222      -0.00001718      -2.48241327      -0.73938014      -1.41227345
Cs      13.00537329       9.20008903      24.65040345       0.00000271       0.00000425      -0.00000293       0.18676790      -0.79918518       0.20327614
Cs      13.18080694       3.04998607      24.57859177      -0.00002766       0.00000196       0.00002182      -1.62883551       0.79626029      -0.43930138
Cs       6.86124370       9.42074419      24.69561719       0.00000094       0.00000065      -0.00000579      -1.19762753       0.86835276      -1.15161083
Cs       7.36275202       8.55553503      18.33345824       0.00002055       0.00001350       0.00000129      -2.38538782       0.09221754       1.14251093
Cs      13.68229473       2.18481293      18.21662170       0.00000431       0.00001839      -0.00001973       0.51746998       2.99608023       1.00878989
Pb       3.99094540      24.86170306      21.71096268      -0.00000343      -0.00003580       0.00003065      -0.71506298       0.33979249       0.31420242
Pb      10.27181447       5.80277897      21.45604261       0.00001731       0.00003768       0.00000955       3.13215031      -0.02809690       0.47813332
Pb       3.93279707       5.82941459      21.50404212      -0.00002415       0.00002844      -0.00003049       1.48589933      -0.48490025       0.26988712
Pb      10.32997011      24.83503040      21.66299259      -0.00002358      -0.00001484      -0.00000358      -0.49924582      -2.56224598      -1.19915040
Pb       3.94867891      24.93618164      15.35974247      -0.00004604      -0.00000953      -0.00003259      -0.09072312      -2.32034750      -1.87523081
Pb      10.22948643       5.87723472      15.10483189       0.00000646      -0.00000259       0.00001287       0.10410304       0.69432023      -2.85417407
Pb       3.89045725       5.90385129      15.15279186       0.00000537       0.00001087       0.00002134       0.19547533      -2.28359302      -0.94897886
Pb      10.28767401      24.90952699      15.31177169       0.00000076       0.00002127       0.00002688      -0.62989376      -0.24919091      -0.41796997
I        3.37119726       2.65563517      21.95728166       0.00001737       0.00005095      -0.00001701       1.49721444      -0.65078029       0.27680551
I        9.72955870       8.97311026      21.97818708       0.00001102      -0.00001403       0.00000666       0.32300446       1.48295371      -3.86505644
I       17.17247672       8.94991769      20.95485236      -0.00004696      -0.00004858       0.00001214      -0.80084956      -3.83920937       0.18159356
I       10.81400571       2.63244391      20.93405965      -0.00000550       0.00000227      -0.00003384      -1.53519429       0.82786772      -0.16441493
I       13.44536954       6.33974428      21.92619585      -0.00000491      -0.00001157       0.00000667      -0.34662522      -1.37658285       1.48422530
I        7.12569210      12.71042226      22.04315408      -0.00001600       0.00002985       0.00002106       0.46937819       1.16807591      -3.56243810
I        7.09828345       5.26583490      20.98590650      -0.00002442       0.00000125       0.00000009       1.27591375      -0.27268663      -1.03488110
I       13.49541447      24.27140156      21.14491829       0.00004002       0.00001820      -0.00002638       2.18666083       1.69883076      -0.42333804
I       17.13610768       9.01364090      15.57102323      -0.00001150      -0.00004141      -0.00000622       1.63235659       2.18496144       1.03108903
I       10.77772084       2.69619195      15.54993162      -0.00001617      -0.00001425       0.00001678       0.45922492      -1.22685885       2.72230640
I        3.23829533       2.88975350       1.93612689       0.00000346       0.00005438       0.00000617       1.21995675      -1.07703785      -0.60755981
I        9.59670189       9.20723660       1.95729698       0.00000142       0.00000250      -0.00000355      -0.24507601      -0.34405174      -0.07682933
I        6.97846995       5.47738695       2.90802953       0.00000592      -0.00000889       0.00000051       0.09636644       1.58856896      -0.93149177
I       13.37568115      24.48309068       3.06700349      -0.00002003      -0.00000754      -0.00000959       1.68432524      -2.66899158      -1.97208573
I       13.39590014       6.42601670      14.59919000       0.00002686      -0.00001041       0.00000026      -0.70781922      -0.44349860       0.91892768
I        7.07627836      12.79681219      14.71616851       0.00003397      -0.00002491      -0.00000064      -0.21249540      -0.52483294       1.98004102
I        3.54526712      11.61027538      24.74548247       0.00000686       0.00000529      -0.00000995      -0.08547743       0.12901324      -2.43020576
I        9.86486166       5.23975024      24.62853748       0.00003033      -0.00002742      -0.00000295       1.88452351      -2.49195109       2.10110326
I       16.99826639      -0.00467360      18.16663863       0.00000803      -0.00001742       0.00003149      -0.34791151      -2.73780871       1.50886461
I       10.67872125       6.36592758      18.28358438      -0.00000292      -0.00000296       0.00000654       0.74441105      -0.43673804       0.42360620
I        3.37966610       5.44450604      18.32718848      -0.00000271      -0.00000211       0.00000420       0.73338867      -1.44513057      -1.07440598
I        9.73802840      11.76207037      18.34821609       0.00001025      -0.00000634       0.00000108       0.79323947       1.44369697      -0.69735484
I       17.16394375       6.16105316      24.58493016       0.00000956      -0.00001146      -0.00000524       2.10699309       0.71886206      -1.15940696
I       10.80544563      -0.15649596      24.56394787       0.00002494       0.00001087      -0.00001472       0.87238779       1.15555928       0.83616342
Cs      13.85082793      21.55999693       5.71814708      -0.00000182       0.00001119       0.00002747       0.96293982       2.41040702      -3.40148885
Cs       7.49234898      15.24256882       5.69727316       0.00000348       0.00001046      -0.00002325       0.42190313      -0.92053314       0.22309023
Cs       6.60125504      15.71980118      12.06489660      -0.00001425      -0.00002222      -0.00001718      -2.48241327      -0.73938014      -1.41227345
Cs      12.95956217      22.03719168      12.08590200       0.00000271       0.00000425      -0.00000294       0.18676790      -0.79918518       0.20327614
Cs      13.13499582      15.88708872      12.01409032      -0.00002766       0.00000196       0.00002182      -1.62883551       0.79626029      -0.43930138
Cs       6.81543258      22.25784684      12.13111574       0.00000094       0.00000065      -0.00000578      -1.19762753       0.86835276      -1.15161083
Cs       7.31694090      21.39263768       5.76895679       0.00002055       0.00001350       0.00000130      -2.38538782       0.09221754       1.14251093
Cs      13.63648361      15.02191558       5.65212025       0.00000431       0.00001839      -0.00001973       0.51746998       2.99608023       1.00878989
Pb       3.86757640      12.32241914       8.87055785      -0.00000341      -0.00003579       0.00003065      -0.71506298       0.33979249       0.31420242
Pb      10.22600335      18.63988162       8.89154116       0.00001731       0.00003768       0.00000955       3.13215031      -0.02809690       0.47813332
Pb       3.88698595      18.66651724       8.93954067      -0.00002413       0.00002846      -0.00003048       1.48589933      -0.48490025       0.26988712
Pb      10.20660111      12.29574648       8.82258776      -0.00002357      -0.00001483      -0.00000359      -0.49924582      -2.56224598      -1.19915040
Pb       3.82530991      12.39689772       2.51933764      -0.00004603      -0.00000951      -0.00003258      -0.09072312      -2.32034750      -1.87523081
Pb      10.18367531      18.71433737       2.54033044       0.00000648      -0.00000258       0.00001288       0.10410304       0.69432023      -2.85417407
Pb       3.84464613      18.74095394       2.58829041       0.00000540       0.00001089       0.00002135       0.19547533      -2.28359302      -0.94897886
Pb      10.16430501      12.37024307       2.47136686       0.00000078       0.00002128       0.00002689      -0.62989376      -0.24919091      -0.41796997
I        3.32538614      15.49273782       9.39278021       0.00001737       0.00005096      -0.00001701       1.49721444      -0.65078029       0.27680551
I        9.68374758      21.81021291       9.41368563       0.00001103      -0.00001402       0.00000666       0.32300446       1.48295371      -3.86505644
I       17.12666560      21.78702034       8.39035091      -0.00004695      -0.00004856       0.00001214      -0.80084956      -3.83920937       0.18159356
I       10.76819459      15.46954656       8.36955820      -0.00000550       0.00000227      -0.00003384      -1.53519429       0.82786772      -0.16441493
I       13.39955842      19.17684693       9.36169440      -0.00000490      -0.00001157       0.00000667      -0.34662522      -1.37658285       1.48422530
I        7.00232310       0.17113835       9.20274925      -0.00001600       0.00002985       0.00002106       0.46937819       1.16807591      -3.56243810
I        7.05247233      18.10293755       8.42140505      -0.00002442       0.00000125       0.00000010       1.27591375      -0.27268663      -1.03488110
I       13.37204547      11.73211764       8.30451346       0.00004004       0.00001820      -0.00002637       2.18666083       1.69883076      -0.42333804
I       17.09029656      21.85074355       3.00652178      -0.00001149      -0.00004141      -0.00000621       1.63235659       2.18496144       1.03108903
I       10.73190972      15.53329460       2.98543017      -0.00001617      -0.00001424       0.00001678       0.45922492      -1.22685885       2.72230640
I        3.36166433      15.42903741      14.77653172       0.00000346       0.00005438       0.00000617       1.21995675      -1.07703785      -0.60755981
I        9.72007089      21.74652051      14.79770181       0.00000142       0.00000251      -0.00000355      -0.24507601      -0.34405174      -0.07682933
I        7.10183895      18.01667086      15.74843436       0.00000593      -0.00000889       0.00000051       0.09636644       1.58856896      -0.93149177
I       13.42149226      11.64598802      15.63150493      -0.00002002      -0.00000754      -0.00000960       1.68432524      -2.66899158      -1.97208573
I       13.35008902      19.26311935       2.03468855       0.00002687      -0.00001041       0.00000026      -0.70781922      -0.44349860       0.91892768
I        6.95290936       0.25752828       1.87576368       0.00003396      -0.00002491      -0.00000064      -0.21249540      -0.52483294       1.98004102
I        3.49945600      24.44737803      12.18098102       0.00000687       0.00000530      -0.00000993      -0.08547743       0.12901324      -2.43020576
I        9.81905054      18.07685289      12.06403603       0.00003034      -0.00002742      -0.00000293       1.88452351      -2.49195109       2.10110326
I       16.95245527      12.83242905       5.60213718       0.00000804      -0.00001741       0.00003153      -0.34791151      -2.73780871       1.50886461
I       10.63291013      19.20303023       5.71908293      -0.00000292      -0.00000296       0.00000655       0.74441105      -0.43673804       0.42360620
I        3.33385498      18.28160869       5.76268703      -0.00000271      -0.00000211       0.00000422       0.73338867      -1.44513057      -1.07440598
I        9.69221728      24.59917302       5.78371464       0.00001025      -0.00000634       0.00000111       0.79323947       1.44369697      -0.69735484
I       17.11813263      18.99815581      12.02042871       0.00000957      -0.00001146      -0.00000521       2.10699309       0.71886206      -1.15940696
I       10.75963451      12.68060669      11.99944642       0.00002494       0.00001087      -0.00001468       0.87238779       1.15555928       0.83616342
Cs      13.93541799      21.41108756      18.42060022      -0.00000182       0.00001119       0.00002747       0.96293982       2.41040702      -3.40148885
Cs       7.57693904      15.09365945      18.39972630       0.00000347       0.00001046      -0.00002325       0.42190313      -0.92053314       0.22309023
Cs       6.68584510      15.57089181      24.76734974      -0.00001425      -0.00002222      -0.00001718      -2.48241327      -0.73938014      -1.41227345
Cs      13.04415223      21.88828231      24.78835514       0.00000271       0.00000425      -0.00000293       0.18676790      -0.79918518       0.20327614
Cs      13.21958588      15.73817935      24.71654346      -0.00002766       0.00000196       0.00002182      -1.62883551       0.79626029      -0.43930138
Cs       6.90002264      22.10893747      24.83356888       0.00000094       0.00000065      -0.00000578      -1.19762753       0.86835276      -1.15161083
Cs       7.40153096      21.24372831      18.47140993       0.00002055       0.00001350       0.00000130      -2.38538782       0.09221754       1.14251093
Cs      13.72107367      14.87300621      18.35457339       0.00000431       0.00001839      -0.00001973       0.51746998       2.99608023       1.00878989
Pb       3.95216646      12.17350977      21.57301099      -0.00000342      -0.00003580       0.00003064      -0.71506298       0.33979249       0.31420242
Pb      10.31059341      18.49097225      21.59399430       0.00001731       0.00003768       0.00000956       3.13215031      -0.02809690       0.47813332
Pb       3.97157601      18.51760787      21.64199381      -0.00002415       0.00002846      -0.00003048       1.48589933      -0.48490025       0.26988712
Pb      10.29119117      12.14683711      21.52504090      -0.00002357      -0.00001483      -0.00000359      -0.49924582      -2.56224598      -1.19915040
Pb       3.90989997      12.24798835      15.22179078      -0.00004603      -0.00000951      -0.00003259      -0.09072312      -2.32034750      -1.87523081
Pb      10.26826537      18.56542800      15.24278358       0.00000646      -0.00000259       0.00001287       0.10410304       0.69432023      -2.85417407
Pb       3.92923619      18.59204457      15.29074355       0.00000538       0.00001089       0.00002134       0.19547533      -2.28359302      -0.94897886
Pb      10.24889507      12.22133370      15.17382000       0.00000077       0.00002128       0.00002687      -0.62989376      -0.24919091      -0.41796997
I        3.40997620      15.34382845      22.09523335       0.00001737       0.00005095      -0.00001701       1.49721444      -0.65078029       0.27680551
I        9.76833764      21.66130354      22.11613877       0.00001103      -0.00001402       0.00000665       0.32300446       1.48295371      -3.86505644
I       17.21125566      21.63811097      21.09280405      -0.00004696      -0.00004856       0.00001214      -0.80084956      -3.83920937       0.18159356
I       10.85278465      15.32063719      21.07201134      -0.00000550       0.00000227      -0.00003384      -1.53519429       0.82786772      -0.16441493
I       13.48414848      19.02793756      22.06414754      -0.00000491      -0.00001156       0.00000667      -0.34662522      -1.37658285       1.48422530
I        7.08691315       0.02222897      21.90520238      -0.00001598       0.00002985       0.00002107       0.46937819       1.16807591      -3.56243810
I        7.13706239      17.95402818      21.12385819      -0.00002442       0.00000125       0.00000010       1.27591375      -0.27268663      -1.03488110
I       13.45663553      11.58320827      21.00696660       0.00004002       0.00001820      -0.00002638       2.18666083       1.69883076      -0.42333804
I       17.17488662      21.70183418      15.70897492      -0.00001149      -0.00004140      -0.00000621       1.63235659       2.18496144       1.03108903
I       10.81649978      15.38438523      15.68788331      -0.00001617      -0.00001425       0.00001678       0.45922492      -1.22685885       2.72230640
I        3.27707428      15.57794679       2.07407859       0.00000346       0.00005435       0.00000616       1.21995675      -1.07703785      -0.60755981
I        9.63548084      21.89542989       2.09524868       0.00000142       0.00000249      -0.00000356      -0.24507601      -0.34405174      -0.07682933
I        7.01724890      18.16558024       3.04598123       0.00000591      -0.00000889       0.00000051       0.09636644       1.58856896      -0.93149177
I       13.33690221      11.79489740       2.92905180      -0.00002004      -0.00000755      -0.00000960       1.68432524      -2.66899158      -1.97208573
I       13.43467908      19.11420998      14.73714169       0.00002686      -0.00001041       0.00000026      -0.70781922      -0.44349860       0.91892768
I        7.03749941       0.10861890      14.57821681       0.00003399      -0.00002491      -0.00000064      -0.21249540      -0.52483294       1.98004102
I        3.58404606      24.29846866      24.88343416       0.00000687       0.00000530      -0.00000994      -0.08547743       0.12901324      -2.43020576
I        9.90364060      17.92794352      24.76648917       0.00003033      -0.00002742      -0.00000295       1.88452351      -2.49195109       2.10110326
I       17.03704533      12.68351968      18.30459032       0.00000803      -0.00001741       0.00003150      -0.34791151      -2.73780871       1.50886461
I       10.71750019      19.05412086      18.42153607      -0.00000292      -0.00000296       0.00000654       0.74441105      -0.43673804       0.42360620
I        3.41844504      18.13269932      18.46514017      -0.00000271      -0.00000211       0.00000421       0.73338867      -1.44513057      -1.07440598
I        9.77680734      24.45026365      18.48616778       0.00001025      -0.00000634       0.00000109       0.79323947       1.44369697      -0.69735484
I       17.20272269      18.84924644      24.72288185       0.00000956      -0.00001146      -0.00000522       2.10699309       0.71886206      -1.15940696
I       10.84422457      12.53169732      24.70189956       0.00002494       0.00001087      -0.00001470       0.87238779       1.15555928       0.83616342
Cs       1.13400230       8.92507815       5.67613378      -0.00000182       0.00001119       0.00002747       0.96293982       2.41040702      -3.40148885
Cs      20.13161673       2.50110104       5.46338308       0.00000347       0.00001046      -0.00002325       0.42190313      -0.92053314       0.22309023
Cs      19.24052279       2.97833340      11.83100652      -0.00001425      -0.00002222      -0.00001718      -2.48241327      -0.73938014      -1.41227345
Cs       0.24273654       9.40227290      12.04388870       0.00000271       0.00000425      -0.00000293       0.18676790      -0.79918518       0.20327614
Cs       0.41817019       3.25216994      11.97207702      -0.00002765       0.00000197       0.00002182      -1.62883551       0.79626029      -0.43930138
Cs      19.45470033       9.51637906      11.89722566       0.00000094       0.00000065      -0.00000578      -1.19762753       0.86835276      -1.15161083
Cs      19.95620865       8.65116990       5.53506671       0.00002055       0.00001349       0.00000130      -2.38538782       0.09221754       1.14251093
Cs       0.91965798       2.38699680       5.61010695       0.00000431       0.00001839      -0.00001973       0.51746998       2.99608023       1.00878989
Pb      16.58440203      24.95733792       8.91257116      -0.00000342      -0.00003578       0.00003063      -0.71506298       0.33979249       0.31420242
Pb      22.86527110       5.89841384       8.65765108       0.00001731       0.00003767       0.00000955       3.13215031      -0.02809690       0.47813332
Pb      16.52625370       5.92504946       8.70565059      -0.00002415       0.00002844      -0.00003049       1.48589933      -0.48490025       0.26988712
Pb      22.92342674      24.93066526       8.86460107      -0.00002357      -0.00001482      -0.00000359      -0.49924582      -2.56224598      -1.19915040
Pb      16.54213554      25.03181650       2.56135095      -0.00004604      -0.00000951      -0.00003259      -0.09072312      -2.32034750      -1.87523081
Pb      22.82294306       5.97286959       2.30644036       0.00000646      -0.00000260       0.00001288       0.10410304       0.69432023      -2.85417407
Pb      16.48391388       5.99948616       2.35440033       0.00000538       0.00001087       0.00002135       0.19547533      -2.28359302      -0.94897886
Pb      22.88113064      25.00516185       2.51338017       0.00000077       0.00002129       0.00002687      -0.62989376      -0.24919091      -0.41796997
I       15.96465389       2.75127004       9.15889013       0.00001737       0.00005094      -0.00001701       1.49721444      -0.65078029       0.27680551
I       22.32301533       9.06874513       9.17979555       0.00001102      -0.00001403       0.00000666       0.32300446       1.48295371      -3.86505644
I        4.40983997       9.15210156       8.34833761      -0.00004695      -0.00004857       0.00001214      -0.80084956      -3.83920937       0.18159356
I       23.40746234       2.72807878       8.13566812      -0.00000551       0.00000226      -0.00003384      -1.53519429       0.82786772      -0.16441493
I        0.68273279       6.54192815       9.31968110      -0.00000489      -0.00001156       0.00000667      -0.34662522      -1.37658285       1.48422530
I       19.71914873      12.80605713       9.24476255      -0.00001600       0.00002985       0.00002107       0.46937819       1.16807591      -3.56243810
I       19.69174008       5.36146977       8.18751497      -0.00002443       0.00000125       0.00000010       1.27591375      -0.27268663      -1.03488110
I        0.73277773      24.47358543       8.53840355       0.00004001       0.00001820      -0.00002638       2.18666083       1.69883076      -0.42333804
I        4.37347093       9.21582477       2.96450848      -0.00001149      -0.00004140      -0.00000621       1.63235659       2.18496144       1.03108903
I       23.37117747       2.79182682       2.75154009      -0.00001617      -0.00001426       0.00001678       0.45922492      -1.22685885       2.72230640
I       16.00093208       2.68756963      14.54264164       0.00000346       0.00005435       0.00000616       1.21995675      -1.07703785      -0.60755981
I       22.35933864       9.00505273      14.56381173       0.00000142       0.00000249      -0.00000356      -0.24507601      -0.34405174      -0.07682933