320
Lattice="31.705123562890115 0.00098397742904671 0.8597404125717283 0.019921660697184568 29.971723771014627 -2.6265873698904523 -0.4087198441794399 1.5773423540450537 17.106165182112967" Properties=species:S:1:pos:R:3:forces:R:3:momenta:R:3 energy=-983.8978707064234 stress="0.003654577627283334 -2.543582603443095e-05 2.2889042791709897e-05 -2.543582603443095e-05 0.005103456698607885 -0.00011424398755290958 2.2889042791709897e-05 -0.00011424398755290958 0.0035952045918059205" free_energy=-983.8978707064234 pbc="T T T"
Cs       1.05742749       2.65023969       4.23566627      -0.00001666      -0.00000186       0.00003511      -1.85392056      -1.09345262       0.33384467
Cs       5.06598735       5.61535686       8.45957808      -0.00000044      -0.00001280      -0.00001473      -1.01214345       1.11496560      -1.16410659
Cs       1.31381917       9.74526738      -0.70778162      -0.00000075       0.00001308       0.00000879       0.32026524       2.07092793       1.94167431
Cs       5.02409184      12.71707991       3.53693394       0.00000323      -0.00003130      -0.00001919      -1.54821830      -1.23388583       0.26252369
Cs       8.98340603       2.65001561       4.45084718       0.00001196       0.00000514      -0.00001454      -1.01335316       0.09581938      -2.97702539
Cs      12.99273617       5.61601936       8.67466318      -0.00002643      -0.00002530      -0.00000218       0.58667999      -1.04615600       0.37136920
Cs       9.23966828       9.74602068      -0.49297208       0.00000928       0.00000981       0.00002507       1.59190387       1.15400908       1.40131403
Cs      12.95029680      12.71722747       3.75193063       0.00001487      -0.00000394       0.00000074       0.50219316      -0.46145013       1.48147288
Pb       2.40284041      15.56987851       7.49480961       0.00001974      -0.00002225      -0.00003652      -2.34468510       1.88803419       3.56302235
Pb       6.36631749      15.57031850       7.58673494      -0.00001184      -0.00002693       0.00003575      -0.67193823       1.63403194      -0.81500586
Pb       3.73041117       7.68124910       3.88726584       0.00001063      -0.00000616      -0.00001389       1.79382358      -0.83750360       0.79467986
Pb      31.47204964       7.68204829       4.65511304       0.00001181      -0.00001556       0.00001741      -3.61064174       3.60973277      -3.67497615
Pb      10.32919273      15.57034672       7.70967665      -0.00006725       0.00000766      -0.00000688       2.09617129       1.63535822       0.95993277
Pb      14.29259574      15.57056347       7.80178183       0.00002939       0.00004811      -0.00002628       0.44784002      -1.50589938       2.23665661
Pb      11.65667435       7.68158599       4.10247724      -0.00003608       0.00000572       0.00000822      -2.36859439       1.31837934      -1.53263953
Pb       7.69326264       7.68104101       4.01035004      -0.00002019       0.00003636      -0.00000370      -1.09983464      -0.13495735       1.04382384
I        4.49494239       1.51906580       2.21582882       0.00001644      -0.00000012       0.00000157      -1.85312912       2.51314767      -0.81649013
I        1.83254856       5.95785110       1.92624434       0.00002083      -0.00003964       0.00000078       1.44591566      -1.27423299      -1.48244379
I        4.38233019       1.44052791       6.42428704      -0.00003742       0.00000432       0.00001390       2.09801663      -0.25749076      -1.87082439
I        1.74098896       6.82459587       6.27098665      -0.00001361      -0.00001222      -0.00000220      -0.16855789       0.29764875       0.27807722
I        5.75559605       5.14525690       4.44260199      -0.00002609       0.00001535       0.00001919      -2.46538866       1.59147919       0.77403211
I        0.36774307       3.11994646       8.25261121      -0.00000688       0.00001757       0.00001849       0.53479430      -0.97437552       0.62418658
I        5.69088274       9.40288736       5.86846290       0.00002847      -0.00000337       0.00000235      -1.28338335      -1.12362348       0.42822354
I        0.44220636      13.84800300       5.51388873      -0.00001001       0.00003037      -0.00000248       0.52412181       0.36806782      -2.66385611
I        5.83540479       8.53444957       1.52220478      -0.00000322       0.00001168       0.00001407       2.56149049       0.07372451       0.27553710
I        0.50230591      13.92821978       1.30697271       0.00001960      -0.00000765       0.00000305       0.04504364      -0.04376802      -2.38555952
I        4.31551003      13.03434209       8.03466584       0.00000803       0.00002896       0.00000361       2.36486680      -1.66159140       0.39515420
I        1.81789013      10.21687869       3.34751060       0.00000765       0.00000726       0.00001826      -0.67094547      -0.33656105      -1.66992350
I       12.42119185       1.51952836       2.43068773       0.00002435       0.00001513       0.00002927      -0.34270387      -2.15852151       0.37290802
I        9.75915136       5.95774215       2.14168021      -0.00000093       0.00000939      -0.00001525      -0.59633888       0.00270358       0.24930946
I       12.30872035       1.44086409       6.63923069      -0.00000838      -0.00003355      -0.00002231       0.00305310       1.12803218       1.81344361
I        9.66722390       6.82515659       6.48624084      -0.00002753      -0.00000108       0.00001444      -0.56767549       0.01014192       0.76408103
I       13.68196994       5.14570530       4.65764367       0.00001217       0.00000997      -0.00000782       2.17721439       0.13831590       1.75908338
I        8.29382086       3.12032938       8.46774362       0.00003788      -0.00000083      -0.00002462      -1.11063577       1.30608701      -2.37982085
I       13.61737262       9.40324853       6.08364734      -0.00002332       0.00000070      -0.00000903      -1.21993048       0.36974215      -2.14001170
I        8.36859230      13.84865207       5.72844468       0.00000237       0.00000279      -0.00000586      -0.63863224      -1.68472837       0.31647752
I       13.76150001       8.53517707       1.73736723       0.00000457       0.00001236      -0.00003270      -1.13468106       1.51339025       1.65122590
I        8.42861562      13.92812887       1.52164746       0.00001890      -0.00000897       0.00000152      -2.05559337       0.32734972       2.85591065
I       12.24167550      13.03476281       8.24967854      -0.00001377      -0.00002735      -0.00001545       0.96459521       3.96336229       0.78531010
I        9.74394576      10.21705975       3.56252181       0.00003861      -0.00001083       0.00000409       0.10317181       1.28588886      -0.02766037
Cs       0.85306757       3.43891087      12.78874886      -0.00001666      -0.00000186       0.00003511      -1.85392056      -1.09345262       0.33384467
Cs       5.27034727       4.82668568      -0.09350451      -0.00000044      -0.00001280      -0.00001473      -1.01214345       1.11496560      -1.16410659
Cs       1.10945925      10.53393856       7.84530097      -0.00000075       0.00001308       0.00000879       0.32026524       2.07092793       1.94167431
Cs       4.81973192      13.50575109      12.09001653       0.00000323      -0.00003130      -0.00001919      -1.54821830      -1.23388583       0.26252369
Cs       8.77904611       3.43868679      13.00392977       0.00001196       0.00000514      -0.00001454      -1.01335316       0.09581938      -2.97702539
Cs      13.19709609       4.82734818       0.12158059      -0.00002643      -0.00002530      -0.00000218       0.58667999      -1.04615600       0.37136920
Cs       9.03530836      10.53469186       8.06011051       0.00000928       0.00000981       0.00002507       1.59190387       1.15400908       1.40131403
Cs      12.74593688      13.50589865      12.30501322       0.00001487      -0.00000394       0.00000074       0.50219316      -0.46145013       1.48147288
Pb       2.60720033      14.78120733      -1.05827298       0.00001975      -0.00002224      -0.00003652      -2.34468510       1.88803419       3.56302235
Pb       6.57067741      14.78164732      -0.96634765      -0.00001185      -0.00002692       0.00003575      -0.67193823       1.63403194      -0.81500586
Pb       3.52605125       8.46992028      12.44034843       0.00001063      -0.00000615      -0.00001389       1.79382358      -0.83750360       0.79467986
Pb      31.26768972       8.47071946      13.20819563       0.00001180      -0.00001553       0.00001741      -3.61064174       3.60973277      -3.67497615
Pb      10.53355265      14.78167554      -0.84340594      -0.00006725       0.00000766      -0.00000687       2.09617129       1.63535822       0.95993277
Pb      14.49695566      14.78189229      -0.75130076       0.00002939       0.00004812      -0.00002628       0.44784002      -1.50589938       2.23665661
Pb      11.45231443       8.47025717      12.65555983      -0.00003608       0.00000572       0.00000822      -2.36859439       1.31837934      -1.53263953
Pb       7.48890272       8.46971219      12.56343263      -0.00002019       0.00003637      -0.00000370      -1.09983464      -0.13495735       1.04382384
I        4.29058247       2.30773698      10.76891141       0.00001644      -0.00000010       0.00000159      -1.85312912       2.51314767      -0.81649013
I        1.62818864       6.74652228      10.47932693       0.00002083      -0.00003964       0.00000078       1.44591566      -1.27423299      -1.48244379
I        4.17797027       2.22919909      14.97736963      -0.00003742       0.00000432       0.00001389       2.09801663      -0.25749076      -1.87082439
I        1.53662904       7.61326705      14.82406924      -0.00001361      -0.00001223      -0.00000219      -0.16855789       0.29764875       0.27807722
I        5.55123613       5.93392808      12.99568458      -0.00002609       0.00001534       0.00001919      -2.46538866       1.59147919       0.77403211
I        0.16338315       3.90861764      16.80569380      -0.00000688       0.00001757       0.00001849       0.53479430      -0.97437552       0.62418658
I        5.48652282      10.19155854      14.42154549       0.00002847      -0.00000337       0.00000235      -1.28338335      -1.12362348       0.42822354
I        0.23784644      14.63667418      14.06697132      -0.00001001       0.00003036      -0.00000248       0.52412181       0.36806782      -2.66385611
I        5.63104487       9.32312075      10.07528737      -0.00000322       0.00001168       0.00001407       2.56149049       0.07372451       0.27553710
I        0.29794599      14.71689096       9.86005530       0.00001960      -0.00000765       0.00000305       0.04504364      -0.04376802      -2.38555952
I        4.51986995      12.24567091      -0.51841675       0.00000803       0.00002896       0.00000361       2.36486680      -1.66159140       0.39515420
I        1.61353021      11.00554987      11.90059319       0.00000765       0.00000725       0.00001826      -0.67094547      -0.33656105      -1.66992350
I       12.21683193       2.30819954      10.98377032       0.00002435       0.00001514       0.00002929      -0.34270387      -2.15852151       0.37290802
I        9.55479144       6.74641333      10.69476280      -0.00000094       0.00000939      -0.00001525      -0.59633888       0.00270358       0.24930946
I       12.10436043       2.22953527      15.19231328      -0.00000839      -0.00003355      -0.00002232       0.00305310       1.12803218       1.81344361
I        9.46286398       7.61382777      15.03932343      -0.00002753      -0.00000109       0.00001444      -0.56767549       0.01014192       0.76408103
I       13.47761002       5.93437648      13.21072626       0.00001217       0.00000997      -0.00000782       2.17721439       0.13831590       1.75908338
I        8.08946094       3.90900056      17.02082621       0.00003788      -0.00000084      -0.00002463      -1.11063577       1.30608701      -2.37982085
I       13.41301270      10.19191971      14.63672993      -0.00002332       0.00000070      -0.00000903      -1.21993048       0.36974215      -2.14001170
I        8.16423238      14.63732325      14.28152727       0.00000236       0.00000279      -0.00000586      -0.63863224      -1.68472837       0.31647752
I       13.55714009       9.32384825      10.29044982       0.00000457       0.00001236      -0.00003270      -1.13468106       1.51339025       1.65122590
I        8.22425570      14.71680005      10.07473005       0.00001890      -0.00000897       0.00000152      -2.05559337       0.32734972       2.85591065
I       12.44603542      12.24609163      -0.30340405      -0.00001377      -0.00002735      -0.00001545       0.96459521       3.96336229       0.78531010
I        9.53958584      11.00573093      12.11560440       0.00003861      -0.00001083       0.00000409       0.10317181       1.28588886      -0.02766037
Cs       1.06738832      17.63610158       2.92237259      -0.00001666      -0.00000186       0.00003511      -1.85392056      -1.09345262       0.33384467
Cs       5.07594818      20.60121875       7.14628440      -0.00000044      -0.00001280      -0.00001473      -1.01214345       1.11496560      -1.16410659
Cs       1.32378000      24.73112927      -2.02107530      -0.00000075       0.00001308       0.00000879       0.32026524       2.07092793       1.94167431
Cs       5.03405267      27.70294180       2.22364026       0.00000323      -0.00003130      -0.00001919      -1.54821830      -1.23388583       0.26252369
Cs       8.99336686      17.63587750       3.13755350       0.00001196       0.00000514      -0.00001454      -1.01335316       0.09581938      -2.97702539
Cs      13.00269700      20.60188125       7.36136950      -0.00002643      -0.00002530      -0.00000218       0.58667999      -1.04615600       0.37136920
Cs       9.24962911      24.73188257      -1.80626576       0.00000928       0.00000981       0.00002507       1.59190387       1.15400908       1.40131403
Cs      12.96025763      27.70308936       2.43863695       0.00001487      -0.00000394       0.00000074       0.50219316      -0.46145013       1.48147288
Pb       2.41280124      30.55574040       6.18151593       0.00001974      -0.00002226      -0.00003653      -2.34468510       1.88803419       3.56302235
Pb       6.37627832      30.55618039       6.27344126      -0.00001184      -0.00002694       0.00003574      -0.67193823       1.63403194      -0.81500586
Pb       3.74037200      22.66711099       2.57397216       0.00001063      -0.00000616      -0.00001390       1.79382358      -0.83750360       0.79467986
Pb      31.48201047      22.66791017       3.34181936       0.00001181      -0.00001555       0.00001739      -3.61064174       3.60973277      -3.67497615
Pb      10.33915356      30.55620861       6.39638297      -0.00006725       0.00000764      -0.00000689       2.09617129       1.63535822       0.95993277
Pb      14.30255657      30.55642536       6.48848815       0.00002939       0.00004810      -0.00002630       0.44784002      -1.50589938       2.23665661
Pb      11.66663518      22.66744788       2.78918356      -0.00003608       0.00000573       0.00000822      -2.36859439       1.31837934      -1.53263953
Pb       7.70322347      22.66690290       2.69705636      -0.00002019       0.00003636      -0.00000370      -1.09983464      -0.13495735       1.04382384
I        4.50490322      16.50492769       0.90253514       0.00001644      -0.00000013       0.00000156      -1.85312912       2.51314767      -0.81649013
I        1.84250939      20.94371299       0.61295066       0.00002084      -0.00003965       0.00000078       1.44591566      -1.27423299      -1.48244379
I        4.39229102      16.42638980       5.11099336      -0.00003742       0.00000432       0.00001388       2.09801663      -0.25749076      -1.87082439
I        1.75094979      21.81045776       4.95769297      -0.00001362      -0.00001223      -0.00000220      -0.16855789       0.29764875       0.27807722
I        5.76555688      20.13111879       3.12930831      -0.00002609       0.00001535       0.00001919      -2.46538866       1.59147919       0.77403211
I        0.37770390      18.10580835       6.93931753      -0.00000687       0.00001756       0.00001849       0.53479430      -0.97437552       0.62418658
I        5.70084357      24.38874925       4.55516922       0.00002847      -0.00000337       0.00000235      -1.28338335      -1.12362348       0.42822354
I        0.45216719      28.83386489       4.20059505      -0.00001000       0.00003036      -0.00000249       0.52412181       0.36806782      -2.66385611
I        5.84536562      23.52031146       0.20891110      -0.00000323       0.00001168       0.00001407       2.56149049       0.07372451       0.27553710
I        0.51226674      28.91408167      -0.00632097       0.00001961      -0.00000765       0.00000303       0.04504364      -0.04376802      -2.38555952
I        4.32547086      28.02020398       6.72137216       0.00000803       0.00002895       0.00000361       2.36486680      -1.66159140       0.39515420
I        1.82785096      25.20274058       2.03421692       0.00000765       0.00000725       0.00001826      -0.67094547      -0.33656105      -1.66992350
I       12.43115268      16.50539025       1.11739405       0.00002434       0.00001512       0.00002926      -0.34270387      -2.15852151       0.37290802
I        9.76911219      20.94360404       0.82838653      -0.00000094       0.00000939      -0.00001525      -0.59633888       0.00270358       0.24930946
I       12.31868118      16.42672598       5.32593701      -0.00000838      -0.00003355      -0.00002232       0.00305310       1.12803218       1.81344361
I        9.67718473      21.81101848       5.17294716      -0.00002753      -0.00000109       0.00001444      -0.56767549       0.01014192       0.76408103
I       13.69193077      20.13156719       3.34434999       0.00001217       0.00000996      -0.00000782       2.17721439       0.13831590       1.75908338
I        8.30378169      18.10619127       7.15444994       0.00003788      -0.00000085      -0.00002462      -1.11063577       1.30608701      -2.37982085
I       13.62733345      24.38911042       4.77035366      -0.00002331       0.00000069      -0.00000905      -1.21993048       0.36974215      -2.14001170
I        8.37855313      28.83451396       4.41515100       0.00000237       0.00000279      -0.00000586      -0.63863224      -1.68472837       0.31647752
I       13.77146084      23.52103896       0.42407355       0.00000457       0.00001236      -0.00003271      -1.13468106       1.51339025       1.65122590
I        8.43857645      28.91399076       0.20835378       0.00001890      -0.00000896       0.00000150      -2.05559337       0.32734972       2.85591065
I       12.25163633      28.02062470       6.93638486      -0.00001377      -0.00002735      -0.00001545       0.96459521       3.96336229       0.78531010
I        9.75390659      25.20292164       2.24922813       0.00003861      -0.00001083       0.00000409       0.10317181       1.28588886      -0.02766037
Cs       0.86302840      18.42477275      11.47545518      -0.00001666      -0.00000186       0.00003511      -1.85392056      -1.09345262       0.33384467
Cs       5.28030810      19.81254757      -1.40679820      -0.00000044      -0.00001280      -0.00001473      -1.01214345       1.11496560      -1.16410659
Cs       1.11942008      25.51980044       6.53200729      -0.00000075       0.00001309       0.00000879       0.32026524       2.07092793       1.94167431
Cs       4.82969275      28.49161297      10.77672285       0.00000323      -0.00003130      -0.00001919      -1.54821830      -1.23388583       0.26252369
Cs       8.78900694      18.42454867      11.69063609       0.00001196       0.00000514      -0.00001454      -1.01335316       0.09581938      -2.97702539
Cs      13.20705692      19.81321007      -1.19171310      -0.00002643      -0.00002530      -0.00000217       0.58667999      -1.04615600       0.37136920
Cs       9.04526919      25.52055374       6.74681683       0.00000928       0.00000982       0.00002507       1.59190387       1.15400908       1.40131403
Cs      12.75589771      28.49176053      10.99171954       0.00001487      -0.00000394       0.00000074       0.50219316      -0.46145013       1.48147288
Pb       2.61716116      29.76706922      -2.37156667       0.00001974      -0.00002225      -0.00003651      -2.34468510       1.88803419       3.56302235
Pb       6.58063824      29.76750921      -2.27964134      -0.00001184      -0.00002693       0.00003577      -0.67193823       1.63403194      -0.81500586
Pb       3.53601208      23.45578216      11.12705475       0.00001063      -0.00000616      -0.00001389       1.79382358      -0.83750360       0.79467986
Pb      31.27765055      23.45658135      11.89490195       0.00001181      -0.00001556       0.00001739      -3.61064174       3.60973277      -3.67497615
Pb      10.54351348      29.76753743      -2.15669963      -0.00006725       0.00000765      -0.00000686       2.09617129       1.63535822       0.95993277
Pb      14.50691649      29.76775418      -2.06459445       0.00002940       0.00004811      -0.00002627       0.44784002      -1.50589938       2.23665661
Pb      11.46227526      23.45611905      11.34226615      -0.00003608       0.00000572       0.00000822      -2.36859439       1.31837934      -1.53263953
Pb       7.49886355      23.45557407      11.25013895      -0.00002018       0.00003636      -0.00000370      -1.09983464      -0.13495735       1.04382384
I        4.30054330      17.29359886       9.45561773       0.00001644      -0.00000012       0.00000157      -1.85312912       2.51314767      -0.81649013
I        1.63814947      21.73238416       9.16603325       0.00002083      -0.00003964       0.00000078       1.44591566      -1.27423299      -1.48244379
I        4.18793110      17.21506097      13.66407595      -0.00003742       0.00000432       0.00001388       2.09801663      -0.25749076      -1.87082439
I        1.54658987      22.59912893      13.51077556      -0.00001362      -0.00001222      -0.00000220      -0.16855789       0.29764875       0.27807722
I        5.56119696      20.91978996      11.68239090      -0.00002609       0.00001535       0.00001919      -2.46538866       1.59147919       0.77403211
I        0.17334398      18.89447952      15.49240012      -0.00000688       0.00001757       0.00001849       0.53479430      -0.97437552       0.62418658
I        5.49648365      25.17742042      13.10825181       0.00002847      -0.00000337       0.00000235      -1.28338335      -1.12362348       0.42822354
I        0.24780727      29.62253606      12.75367764      -0.00001001       0.00003037      -0.00000248       0.52412181       0.36806782      -2.66385611
I        5.64100570      24.30898263       8.76199369      -0.00000323       0.00001168       0.00001407       2.56149049       0.07372451       0.27553710
I        0.30790682      29.70275284       8.54676162       0.00001960      -0.00000764       0.00000303       0.04504364      -0.04376802      -2.38555952
I        4.52983078      27.23153280      -1.83171044       0.00000803       0.00002896       0.00000361       2.36486680      -1.66159140       0.39515420
I        1.62349104      25.99141175      10.58729951       0.00000766       0.00000726       0.00001826      -0.67094547      -0.33656105      -1.66992350
I       12.22679276      17.29406142       9.67047664       0.00002434       0.00001514       0.00002927      -0.34270387      -2.15852151       0.37290802
I        9.56475227      21.73227521       9.38146912      -0.00000094       0.00000939      -0.00001525      -0.59633888       0.00270358       0.24930946
I       12.11432126      17.21539715      13.87901960      -0.00000838      -0.00003355      -0.00002232       0.00305310       1.12803218       1.81344361
I        9.47282481      22.59968965      13.72602975      -0.00002753      -0.00000108       0.00001444      -0.56767549       0.01014192       0.76408103
I       13.48757085      20.92023836      11.89743258       0.00001217       0.00000997      -0.00000782       2.17721439       0.13831590       1.75908338
I        8.09942177      18.89486244      15.70753253       0.00003788      -0.00000084      -0.00002463      -1.11063577       1.30608701      -2.37982085
I       13.42297353      25.17778159      13.32343625      -0.00002331       0.00000070      -0.00000904      -1.21993048       0.36974215      -2.14001170
I        8.17419321      29.62318513      12.96823359       0.00000236       0.00000279      -0.00000587      -0.63863224      -1.68472837       0.31647752
I       13.56710092      24.30971013       8.97715614       0.00000457       0.00001237      -0.00003271      -1.13468106       1.51339025       1.65122590
I        8.23421653      29.70266193       8.76143637       0.00001890      -0.00000896       0.00000152      -2.05559337       0.32734972       2.85591065
I       12.45599625      27.23195352      -1.61669774      -0.00001377      -0.00002735      -0.00001545       0.96459521       3.96336229       0.78531010
I        9.54954667      25.99159281      10.80231072       0.00003861      -0.00001083       0.00000409       0.10317181       1.28588886      -0.02766037
Cs      16.90998927       2.65073168       4.66553648      -0.00001666      -0.00000186       0.00003511      -1.85392056      -1.09345262       0.33384467
Cs      20.91854913       5.61584885       8.88944829      -0.00000044      -0.00001280      -0.00001473      -1.01214345       1.11496560      -1.16410659
Cs      17.16638095       9.74575937      -0.27791141      -0.00000075       0.00001308       0.00000879       0.32026524       2.07092793       1.94167431
Cs      20.87665362      12.71757190       3.96680415       0.00000323      -0.00003130      -0.00001919      -1.54821830      -1.23388583       0.26252369
Cs      24.83596781       2.65050760       4.88071739       0.00001196       0.00000514      -0.00001454      -1.01335316       0.09581938      -2.97702539
Cs      28.84529795       5.61651135       9.10453339      -0.00002643      -0.00002530      -0.00000218       0.58667999      -1.04615600       0.37136920
Cs      25.09223006       9.74651267      -0.06310187       0.00000928       0.00000981       0.00002507       1.59190387       1.15400908       1.40131403
Cs      28.80285858      12.71771946       4.18180084       0.00001488      -0.00000394       0.00000074       0.50219316      -0.46145013       1.48147288
Pb      18.25540219      15.57037050       7.92467982       0.00001975      -0.00002226      -0.00003654      -2.34468510       1.88803419       3.56302235
Pb      22.21887927      15.57081049       8.01660515      -0.00001185      -0.00002694       0.00003574      -0.67193823       1.63403194      -0.81500586
Pb      19.58297295       7.68174109       4.31713605       0.00001063      -0.00000616      -0.00001389       1.79382358      -0.83750360       0.79467986
Pb      15.61948786       7.68155630       4.22524284       0.00001180      -0.00001556       0.00001739      -3.61064174       3.60973277      -3.67497615
Pb      26.18175451      15.57083871       8.13954686      -0.00006725       0.00000764      -0.00000689       2.09617129       1.63535822       0.95993277
Pb      30.14515752      15.57105546       8.23165204       0.00002940       0.00004811      -0.00002630       0.44784002      -1.50589938       2.23665661
Pb      27.50923613       7.68207798       4.53234745      -0.00003608       0.00000572       0.00000822      -2.36859439       1.31837934      -1.53263953
Pb      23.54582442       7.68153300       4.44022025      -0.00002018       0.00003636      -0.00000370      -1.09983464      -0.13495735       1.04382384
I       20.34750417       1.51955779       2.64569903       0.00001644      -0.00000012       0.00000157      -1.85312912       2.51314767      -0.81649013
I       17.68511034       5.95834309       2.35611455       0.00002084      -0.00003964       0.00000078       1.44591566      -1.27423299      -1.48244379
I       20.23489197       1.44101990       6.85415725      -0.00003742       0.00000432       0.00001388       2.09801663      -0.25749076      -1.87082439
I       17.59355074       6.82508786       6.70085686      -0.00001361      -0.00001222      -0.00000219      -0.16855789       0.29764875       0.27807722
I       21.60815783       5.14574889       4.87247220      -0.00002609       0.00001535       0.00001919      -2.46538866       1.59147919       0.77403211
I       16.22030485       3.12043845       8.68248142      -0.00000686       0.00001757       0.00001849       0.53479430      -0.97437552       0.62418658
I       21.54344452       9.40337935       6.29833311       0.00002847      -0.00000337       0.00000235      -1.28338335      -1.12362348       0.42822354
I       16.29476814      13.84849499       5.94375894      -0.00001000       0.00003036      -0.00000248       0.52412181       0.36806782      -2.66385611
I       21.68796657       8.53494156       1.95207499      -0.00000323       0.00001168       0.00001407       2.56149049       0.07372451       0.27553710
I       16.35486769      13.92871177       1.73684292       0.00001961      -0.00000765       0.00000304       0.04504364      -0.04376802      -2.38555952
I       20.16807181      13.03483408       8.46453605       0.00000803       0.00002895       0.00000361       2.36486680      -1.66159140       0.39515420
I       17.67045191      10.21737068       3.77738081       0.00000766       0.00000726       0.00001826      -0.67094547      -0.33656105      -1.66992350