320
Lattice="31.498051475414773 0.05813002179345216 0.274009451965566 -0.5028202582002688 29.458927588679703 1.8181143236740998 -0.04436334485814513 -1.0564119209466332 16.978011911209148" Properties=species:S:1:pos:R:3:forces:R:3 energy=-986.2522373832328 stress="0.0014530145638927577 -0.00027493040962853617 9.871138973231967e-05 -0.00027493040962853617 0.0028914562673607903 -5.338653976145023e-05 9.871138973231967e-05 -5.338653976145023e-05 0.003476468552213616" free_energy=-986.2522373832328 pbc="T T T"
Cs      26.29486306      10.68088346       3.79900530       0.00000972      -0.00002242      -0.00002133
Cs      30.10064646      12.84504623       8.37407229      -0.00000132      -0.00000241       0.00000187
Cs      26.15712963      17.29612994      17.16385201       0.00001614       0.00001702       0.00000307
Cs      30.08910910      20.49962202       4.38411648       0.00000213      -0.00000739       0.00000217
Cs       2.67115164      10.63692473       3.59363916       0.00001283       0.00000853      -0.00000644
Cs       6.47700763      12.80113091       8.16870853      -0.00001005       0.00000791      -0.00000887
Cs       2.53384339      17.25270885      16.95841310      -0.00000791      -0.00001320       0.00000028
Cs       6.46549463      20.45604350       4.17873448      -0.00001652      -0.00000030      -0.00000820
Pb      27.35729079      22.67291127       8.78122409       0.00000181       0.00001777       0.00000747
Pb      -0.19814381      22.62202260       8.54566136      -0.00001421       0.00002766       0.00000143
Pb      28.78670014      15.58207162       4.30089428       0.00001314      -0.00000542      -0.00000224
Pb      24.84407477      15.57480474       4.26255329       0.00001590      -0.00002202       0.00002020
Pb       3.73375506      22.62942973       8.57584147      -0.00001286      -0.00001080      -0.00000478
Pb       7.67636220      22.63672711       8.61418297      -0.00003980       0.00001364       0.00001298
Pb       5.16317103      15.53826155       4.09541192       0.00001778       0.00000275       0.00000033
Pb       1.22056721      15.53106392       4.05704221       0.00001147      -0.00000985       0.00003471
I       30.93123846       9.78867741       1.64119232      -0.00003479       0.00001211       0.00003708
I       26.90547014      14.27892179       2.05024071       0.00000913      -0.00000647      -0.00000855
I       29.52267110       9.16887192       5.62561693      -0.00002164       0.00000052      -0.00001660
I       26.87279986      14.35666183       6.54741674      -0.00000082       0.00000883       0.00001630
I       -0.67297292      12.94814642       4.11326202       0.00001078       0.00001135       0.00000385
I       25.57015293      10.51930698       7.78567419       0.00002867       0.00002411      -0.00001883
I       -0.70003720      16.89997448       6.21309369       0.00000592      -0.00000256      -0.00002202
I       25.34595517      21.29692302       6.59503295      -0.00000241      -0.00002154       0.00000373
I       -0.66399209      16.74450501       1.76373773       0.00000001      -0.00001255       0.00000374
I       26.72831488      21.99571437       2.56131631       0.00000471       0.00000539       0.00001081
I       29.26930294      20.10671011       8.84197170      -0.00000747      -0.00002696       0.00001619
I       26.87466724      18.14825725       4.24016995      -0.00000243       0.00000498      -0.00000628
I        7.30759570       9.74503917       1.43593970      -0.00000125       0.00000720       0.00001316
I        3.28194569      14.23491466       1.84487780       0.00000262      -0.00000003      -0.00001171
I        5.89896990       9.12527405       5.42029059       0.00000881      -0.00000086      -0.00000896
I        3.24925877      14.31299207       6.34199980      -0.00000969      -0.00000818       0.00001853
I        7.20175413      12.96265687       4.18200136       0.00000496       0.00001716      -0.00000201
I        1.94670261      10.47567336       7.58037598       0.00000417       0.00000609       0.00000007
I        7.17439526      16.91471441       6.28146162       0.00001201      -0.00000077       0.00000853
I        1.72252957      21.25304877       6.38975094       0.00001941       0.00000207      -0.00002015
I        7.21035340      16.75877582       1.83213276       0.00001328       0.00000808      -0.00001589
I        3.10472624      21.95229614       2.35604107       0.00000266      -0.00001111      -0.00000502
I        5.64583903      20.06324077       8.63675375      -0.00001391      -0.00000053      -0.00002405
I        3.25116211      18.10449970       4.03453813      -0.00001168       0.00002023      -0.00000177
Cs      26.19595968      10.14321845      12.24977797      -0.00000552      -0.00000732      -0.00000652
Cs      30.15525042      12.32606329      16.90157609      -0.00000536       0.00000402      -0.00001222
Cs      26.05489390      17.75538705       8.69808085       0.00001585      -0.00000163       0.00000984
Cs      29.94243719      19.90243431      12.89633507      -0.00000890       0.00001117      -0.00000983
Cs       2.57223828      10.09960901      12.04415837       0.00001049      -0.00000473      -0.00000226
Cs       6.53157947      12.28226253      16.69588485      -0.00001589       0.00000031       0.00000501
Cs       2.43157451      17.71168554       8.49248146      -0.00002735       0.00001266       0.00000917
Cs       6.31884292      19.85885297      12.69085864      -0.00000153       0.00000229       0.00000405
Pb      28.60771331      22.16754096      17.27992392      -0.00000715       0.00000242       0.00003115
Pb       1.05321716      22.11518180      17.02935881      -0.00002013       0.00001567      -0.00000843
Pb      27.49193458      15.03107587      12.78029399       0.00002357      -0.00000030       0.00000754
Pb      23.54837980      15.02535915      12.75684448      -0.00002576       0.00000005       0.00000057
Pb       4.98415602      22.12395431      17.07456705       0.00004368       0.00000509       0.00000621
Pb       8.92771115      22.12962481      17.09784130      -0.00002211      -0.00002459      -0.00000115
Pb       3.86838607      14.98753959      12.57471548      -0.00000376       0.00000178      -0.00001370
Pb      -0.07515853      14.98186188      12.55149546      -0.00001030      -0.00000264       0.00000257
I       29.48987564       9.24706817      10.12274929       0.00000423      -0.00001517       0.00000395
I       25.46432568      13.73692604      10.53179370      -0.00001106      -0.00000571      -0.00001323
I       30.90377656       8.64690226      14.11730761      -0.00001267       0.00001098       0.00001057
I       25.44717872      13.82189266      15.03366377       0.00001632      -0.00000547      -0.00000352
I       -2.09061423      12.40374090      12.61299628      -0.00002444       0.00001468       0.00000039
I       26.94384062      10.00736205      16.26425968      -0.00000291      -0.00000207       0.00000444
I       -2.14199489      16.33388821      14.71018943      -0.00000084       0.00000491      -0.00001808
I       26.74354704      20.80668786      15.07599958       0.00000115      -0.00002936      -0.00001142
I       -2.08237936      16.20110201      10.24683945      -0.00000686      -0.00000223      -0.00000258
I       25.30991074      21.45238278      11.04435174       0.00000525       0.00001040       0.00001456
I       30.65215175      19.59424241      17.33145490      -0.00001116      -0.00000632       0.00001562
I       25.44752685      17.60440208      12.72879566       0.00001901       0.00001984      -0.00002213
I        5.86638180       9.20315241       9.91747269       0.00000023       0.00000302      -0.00001003
I        1.84064646      13.69336084      10.32637114       0.00000561      -0.00001357      -0.00000463
I        7.28031301       8.60359309      13.91210489       0.00000295       0.00002328      -0.00001004
I        1.82379070      13.77854380      14.82830102      -0.00000483      -0.00001526       0.00000124
I        5.78373836      12.41822719      12.68137626      -0.00001713       0.00001430      -0.00001240
I        3.32011959       9.96360166      16.05862496      -0.00000465       0.00003022       0.00001805
I        5.73263975      16.34846701      14.77851087       0.00001186       0.00000568       0.00001934
I        3.11999978      20.76308939      14.87065745      -0.00004303      -0.00001819      -0.00000446
I        5.79214717      16.21550149      10.31514791       0.00000698      -0.00000418       0.00001257
I        1.68650802      21.40888125      10.83905385       0.00000630       0.00001554       0.00001030
I        7.02847948      19.55057120      17.12615583       0.00002870       0.00001409       0.00001134
I        1.82403224      17.56090196      12.52314816       0.00001145      -0.00001231       0.00001588
Cs      26.04339251      25.40988794       4.70802265       0.00001165       0.00003033       0.00000930
Cs      29.84886659      27.57407821       9.28349721       0.00001747       0.00001202      -0.00002220
Cs      26.40872409       2.56683568      16.25486264      -0.00000804      -0.00000273       0.00000307
Cs      30.34042626       5.77020538       3.47514373       0.00000308       0.00000293      -0.00001091
Cs       2.41979088      25.36658741       4.50267370       0.00001019       0.00000236      -0.00001923
Cs       6.22559818      27.53077297       9.07771380       0.00000921      -0.00000101       0.00001475
Cs       2.78506266       2.52296040      16.04939236      -0.00001781       0.00000573      -0.00000964
Cs       6.71687871       5.72658038       3.26968978      -0.00000296       0.00001838       0.00000603
Pb      27.60869955       7.94366458       7.87221675      -0.00000401      -0.00001087       0.00000480
Pb       0.05323335       7.89272056       7.63665330      -0.00000050       0.00001558      -0.00000133
Pb      29.03811471       0.85249823       3.39198178       0.00000463      -0.00001591      -0.00003102
Pb      25.09553643       0.84526111       3.35353559      -0.00000512       0.00000996      -0.00000506
Pb       3.98513157       7.89992428       7.66689784       0.00001500      -0.00000951      -0.00002140
Pb       7.92778674       7.90726322       7.70512769      -0.00005165       0.00002568       0.00000038
Pb       5.41455252       0.80892142       3.18633120       0.00001291      -0.00000720      -0.00000136
Pb       1.47193655       0.80164592       3.14808317      -0.00000468      -0.00002947      -0.00001878
I       30.67966052      24.51819369       2.55039262       0.00002257      -0.00000532      -0.00002565
I       26.65410894      29.00798987       2.95955762      -0.00000624       0.00001223       0.00000117
I       29.27126766      23.89828695       6.53473792      -0.00004039      -0.00000301       0.00000636
I       26.62132591      29.08632374       7.45674437       0.00000451      -0.00002101       0.00001069
I       -0.92430300      27.67759730       5.02278437      -0.00000378       0.00003113      -0.00000874
I       25.31896141      25.24874511       8.69479858      -0.00001369       0.00000740       0.00000038
I       -0.44867760       2.17083712       5.30393118       0.00001195      -0.00000347       0.00002032
I       25.59747131       6.56729436       5.68613035      -0.00000089      -0.00000036      -0.00000968
I       -0.41271133       2.01472837       0.85462975       0.00001365       0.00000449       0.00001697
I       26.97967069       7.26651667       1.65245610       0.00001075       0.00000132      -0.00001377
I       29.52069935       5.37741863       7.93321947      -0.00000766       0.00001471      -0.00001780
I       27.12609244       3.41873416       3.33092965       0.00000663       0.00000869       0.00000398
I        7.05623571      24.47461272       2.34488555      -0.00000582      -0.00000906      -0.00000579
I        3.03047484      28.96458682       2.75388586       0.00001411       0.00000889       0.00000719
I        5.64764307      23.85472350       6.32922429      -0.00001061      -0.00000073       0.00000848
I        2.99788474      29.04248263       7.25103026      -0.00000887       0.00002038       0.00001940
I        6.95023138      27.69215935       5.09101291      -0.00002208       0.00000446       0.00000329
I        1.69519195      25.20506778       8.48937393       0.00001514      -0.00000499      -0.00001252
I        7.42578933       2.18521794       5.37245229       0.00001350       0.00000875       0.00000114
I        1.97389754       6.52371712       5.48071165       0.00000147      -0.00000774       0.00000139
I        7.46184501       2.02939513       0.92309112      -0.00001277      -0.00001192       0.00001748
I        3.35614382       7.22277898       1.44693885      -0.00001371      -0.00001249       0.00001441
I        5.89722122       5.33376925       7.72769888      -0.00000126      -0.00001244      -0.00000614
I        3.50251224       3.37511936       3.12550625       0.00000507       0.00000625       0.00001525
Cs      25.94446357      24.87244969      13.15872730      -0.00000955      -0.00000713       0.00000763
Cs      29.90362994      27.05547032      17.81039346      -0.00000436      -0.00000485      -0.00000225
Cs      26.30634011       3.02607388       7.78894985       0.00000103      -0.00001205       0.00001690
Cs      30.19366961       5.17278877      11.98728741      -0.00000988       0.00002287       0.00000571
Cs       2.32099090      24.82905426      12.95330966      -0.00000367      -0.00000781       0.00000229
Cs       6.28020376      27.01186728      17.60496170      -0.00000540       0.00001229       0.00001062
Cs       2.68283268       2.98229283       7.58350142      -0.00000282       0.00000607      -0.00001555
Cs       6.57042277       5.12956723      11.78184111      -0.00002450      -0.00000746      -0.00000097
Pb      28.85911854       7.43803885      16.37093296       0.00002705      -0.00003848      -0.00001993
Pb       1.30463539       7.38550538      16.12014727      -0.00001838      -0.00002158       0.00001144
Pb      27.74325530       0.30160513      11.87115535       0.00001069       0.00001196       0.00002356
Pb      23.79973253       0.29592003      11.84795550      -0.00001186      -0.00000248       0.00001251
Pb       5.23558969       7.39439848      16.16551052       0.00002432      -0.00000292      -0.00003543
Pb       9.17916811       7.40016493      16.18891597      -0.00000101      -0.00000510      -0.00000342
Pb       4.11971554       0.25806512      11.66561228       0.00003590      -0.00000614       0.00001691
Pb       0.17617671       0.25226621      11.64228804      -0.00003468      -0.00002427       0.00000145
I       29.23845440      23.97594738      11.03199613      -0.00000070       0.00001687      -0.00000272
I       25.21271740      28.46617422      11.44104143       0.00001443       0.00000408      -0.00001337
I       30.65241247      23.37672854      15.02654342       0.00000844      -0.00000589       0.00000190
I       25.19587563      28.55161736      15.94293515      -0.00001418       0.00000534      -0.00002291
I       -2.34223416      27.13312049      13.52178010       0.00000917       0.00000303      -0.00000335
I       26.69220526      24.73674444      17.17332016       0.00001256      -0.00001765      -0.00000274
I       -1.89054992       1.60428187      13.80106019      -0.00001048       0.00001527      -0.00001036
I       26.99485283       6.07712802      14.16709358       0.00002871       0.00000578      -0.00000180
I       -1.83103288       1.47155792       9.33765169       0.00000517      -0.00000367       0.00000276
I       25.56146669       6.72315613      10.13544494      -0.00001799      -0.00000037       0.00002181
I       30.90344065       4.86461163      16.42254734       0.00001608       0.00001964       0.00000929
I       25.69892757       2.87498218      11.81950042      -0.00001000      -0.00001066       0.00001364
I        5.61495635      23.93273574      10.82641313      -0.00000036       0.00000446      -0.00000381
I        1.58923455      28.42274706      11.23532315       0.00001724      -0.00001055      -0.00001559
I        7.02880646      23.33296579      14.82101544      -0.00001209       0.00001271       0.00000650
I        1.57226889      28.50775088      15.73717512       0.00000059       0.00001716       0.00000214
I        5.53240123      27.14777575      13.59041089      -0.00000710       0.00001799       0.00000656
I        3.06878499      24.69322610      16.96789766      -0.00000638      -0.00001140      -0.00000520
I        5.98387445       1.61906401      13.86946681      -0.00000819      -0.00000094       0.00000762
I        3.37151538       6.03333229      13.96163804       0.00000677      -0.00001021      -0.00001084
I        6.04348194       1.48611859       9.40613237       0.00001118      -0.00000084       0.00000716
I        1.93777012       6.67945819       9.93008383       0.00000437       0.00001181      -0.00002649
I        7.28002566       4.82110989      16.21710150       0.00001302      -0.00000516       0.00000029
I        2.07526319       2.83133567      11.61407563       0.00002080      -0.00000135       0.00000814
Cs      10.54602573      10.65184108       3.66179601      -0.00001691      -0.00000480       0.00001100
Cs      14.35162005      12.81601926       8.23703617       0.00000126      -0.00001693       0.00001523
Cs      10.40802869      17.26696441      17.02682682       0.00001191       0.00001733       0.00000550
Cs      14.33989681      20.47070358       4.24719383       0.00002426       0.00000845      -0.00000309
Cs      18.42043538      10.66633920       3.73050687      -0.00001523      -0.00001695      -0.00000950
Cs      22.22608929      12.83039930       8.30564859      -0.00001781      -0.00000122       0.00002444
Cs      18.28283644      17.28182337      17.09539887      -0.00000306      -0.00000426       0.00001285
Cs      22.21444045      20.48518644       4.31566927       0.00000237       0.00000671      -0.00002153
Pb      11.60824071      22.64404477       8.64438293       0.00005068       0.00001444       0.00001277
Pb      15.55083507      22.65140167       8.68266202      -0.00003457      -0.00000390      -0.00001429
Pb      13.03767795      15.55312093       4.16386850       0.00000174       0.00000282       0.00000395
Pb       9.09506462      15.54571488       4.12554710      -0.00003088      -0.00001795       0.00001240
Pb      19.48274225      22.65865128       8.71276289       0.00001014       0.00000170       0.00000090
Pb      23.42535418      22.66587368       8.75106643      -0.00000495       0.00000324      -0.00001352
Pb      20.91215521      15.56756096       4.23248630       0.00001848      -0.00001682      -0.00003590
Pb      16.96956502      15.56032693       4.19412621      -0.00001000       0.00001238       0.00000468
I       15.18223625       9.75974953       1.50433689      -0.00003434       0.00001172      -0.00000036
I       11.15650038      14.24993811       1.91320140       0.00000672      -0.00001806      -0.00001245
I       13.77362282       9.13982697       5.48859215      -0.00001157      -0.00000879       0.00000654
I       11.12381947      14.32771974       6.41043550       0.00000140      -0.00000120       0.00000547
I       15.07608972      12.97736822       4.25032318       0.00000701      -0.00002308       0.00001736
I        9.82116118      10.49025866       7.64847183       0.00000172       0.00001837       0.00001609
I       15.04888314      16.92930614       6.35007898       0.00001484      -0.00000928      -0.00000769
I        9.59703187      21.26776261       6.45823875      -0.00002190      -0.00000697      -0.00000444
I       15.08504278      16.77364479       1.90073199      -0.00000472      -0.00000570       0.00000263
I       10.97926103      21.96691426       2.42455855       0.00000413      -0.00001801       0.00000010
I       13.52032780      20.07788102       8.70520421      -0.00002423      -0.00000584       0.00000342
I       11.12555027      18.11925683       4.10304094       0.00000891       0.00000835       0.00000161
I       23.05665350       9.77446911       1.57270802      -0.00001115      -0.00002901      -0.00001138
I       19.03089878      14.26436624       1.98184361       0.00003268      -0.00001669       0.00000378
I       21.64810321       9.15424665       5.55707297      -0.00001949       0.00000123      -0.00000063
I       18.99827274      14.34223922       6.47906459      -0.00000310      -0.00000114      -0.00000724
I       22.95061062      12.99184233       4.31896887      -0.00000306       0.00000925       0.00000298
I       17.69580101      10.50475543       7.71719786      -0.00001317       0.00003230      -0.00000178
I       22.92346326      16.94383263       6.41851472      -0.00000604       0.00000115       0.00001251
I       17.47142979      21.28242696       6.52666733       0.00001660      -0.00002379      -0.00001928
I       22.95941939      16.78804601       1.96922151      -0.00001469      -0.00000255      -0.00000461
I       18.85377850      21.98131896       2.49291132      -0.00001207      -0.00000106       0.00001199
I       21.39478997      20.09242763       8.77356688      -0.00001426       0.00000349       0.00000483
I       19.00012841      18.13377622       4.17170315       0.00000308       0.00000276      -0.00000281
Cs      10.44698167      10.11422092      12.11294791      -0.00000759      -0.00002466      -0.00000310
Cs      14.40618713      12.29709366      16.76447216      -0.00000329      -0.00001940       0.00000725
Cs      10.30595831      17.72638695       8.56099444      -0.00000663      -0.00000322       0.00000664
Cs      14.19341226      19.87347262      12.75943927      -0.00000594       0.00001328      -0.00001104
Cs      18.32126994      10.12866398      12.18109454       0.00001013      -0.00000287       0.00001971
Cs      22.28040067      12.31169955      16.83278353       0.00001417      -0.00001417       0.00001271
Cs      18.18044344      17.74102130       8.62955750      -0.00001443      -0.00000373      -0.00000999
Cs      22.06788409      19.88785089      12.82782184      -0.00003558       0.00000261      -0.00000471
Pb      12.85866433      22.13848483      17.14305158      -0.00000543      -0.00000235      -0.00002198
Pb      16.80222352      22.14428816      17.16630609       0.00001938      -0.00000822       0.00001601
Pb      11.74288854      15.00204520      12.64321290      -0.00000559       0.00000255       0.00000727
Pb       7.79933113      14.99624728      12.61981585      -0.00000126       0.00000277      -0.00002102
Pb      20.73318741      22.15303042      17.21147255       0.00001812      -0.00002281      -0.00000490
Pb      24.67672475      22.15863819      17.23473364      -0.00000760       0.00000811      -0.00000265
Pb      19.61739694      15.01664767      12.71164891       0.00000975       0.00001128       0.00003070
Pb      15.67384540      15.01098363      12.68845830       0.00001980       0.00000122       0.00002237
I       13.74093720       9.21803745       9.98572319      -0.00001718      -0.00001618       0.00001334
I        9.71527777      13.70776475      10.39477544      -0.00000421       0.00001302       0.00001263
I       15.15469794       8.61805099      13.98047549       0.00001034       0.00001089      -0.00001183
I        9.69818658      13.79277678      14.89659607       0.00002517       0.00000993       0.00000938
I       13.65841015      12.43285638      12.74993703      -0.00000537       0.00000725      -0.00000832
I       11.19472091       9.97825529      16.12748935       0.00001394      -0.00000397       0.00000016
I       13.60699201      16.36295564      14.84716903       0.00000483       0.00001164      -0.00001932
I       10.99452545      20.77740795      14.93925087      -0.00001694       0.00000309      -0.00001921
I       13.66665081      16.23024018      10.38380547      -0.00000606      -0.00001240      -0.00001118
I        9.56096939      21.42353239      10.90760067      -0.00000803      -0.00001627       0.00000421
I       14.90311572      19.56521425      17.19450435       0.00000872      -0.00001251      -0.00000147
I        9.69845505      17.57532484      12.59162814       0.00001446       0.00002043       0.00000239
I       21.61542017       9.23235110      10.05426357      -0.00002222      -0.00000251       0.00001292
I       17.58965510      13.72247566      10.46333186       0.00000060      -0.00001999      -0.00001416
I       23.02927818       8.63266205      14.04886959       0.00001928       0.00001058       0.00001260
I       17.57281021      13.80762437      14.96523169      -0.00001336      -0.00000107      -0.00000820
I       21.53274174      12.44735560      12.81819397      -0.00000200      -0.00001787      -0.00000337
I       19.06915643       9.99286446      16.19567291       0.00000637       0.00001534       0.00000641
I       21.48163712      16.37738626      14.91559996      -0.00001459       0.00002409       0.00000498
I       18.86898955      20.79225044      15.00754615      -0.00001895      -0.00002599      -0.00000376
I       21.54120629      16.24477769      10.45221442       0.00000093       0.00000004      -0.00000062
I       17.43548058      21.43813090      10.97599280       0.00001443      -0.00001331       0.00001502
I       22.77750019      19.57961269      17.26299942       0.00001829       0.00001582       0.00000467
I       17.57304415      17.59002839      12.66020338      -0.00000493       0.00000542      -0.00001314
Cs      10.29429334      25.38111814       4.57117838       0.00001332       0.00000581      -0.00001919
Cs      14.10009850      27.54536307       9.14623433       0.00000377      -0.00000512       0.00000126
Cs      10.65959321       2.53759274      16.11789305       0.00001400       0.00001705      -0.00000515
Cs      14.59141260       5.74109730       3.33822008      -0.00000668       0.00000342      -0.00001243
Cs      18.16892808      25.39568207       4.63950791      -0.00001278       0.00000171      -0.00000944
Cs      21.97476571      27.55996855       9.21450731      -0.00001197      -0.00001914       0.00002367
Cs      18.53404575       2.55221805      16.18622348       0.00000520      -0.00000229       0.00002273
Cs      22.46594302       5.75559923       3.40662411       0.00000961       0.00001408      -0.00001355
Pb      11.85967660       7.91463008       7.73522743       0.00002967       0.00001051       0.00000393
Pb      15.80228193       7.92182847       7.77356357       0.00001745      -0.00000440       0.00000166
Pb      13.28908261       0.82349800       3.25487166      -0.00000708      -0.00001018      -0.00000654
Pb       9.34645805       0.81621718       3.21652246       0.00000390       0.00000180       0.00000171
Pb      19.73420298       7.92900289       7.80372577      -0.00001072       0.00001251      -0.00001299
Pb      23.67679229       7.93631031       7.84204105      -0.00000695      -0.00001512       0.00002516
Pb      21.16359975       0.83809439       3.32329988      -0.00000280      -0.00003271       0.00001539
Pb      17.22099923       0.83078038       3.28498860      -0.00000723       0.00000494       0.00002736
I       14.93073557      24.48908340       2.41344374      -0.00000958       0.00000580      -0.00000115
I       10.90502950      28.97910707       2.82242039       0.00000196      -0.00000988      -0.00001655
I       13.52207208      23.86942842       6.39777663       0.00000076      -0.00002499       0.00000868
I       10.87233982      29.05715373       7.31958081       0.00000210      -0.00002070       0.00001880
I       14.82474616      27.70673921       5.15948347       0.00001388      -0.00000832       0.00000862
I        9.56974478      25.21973348       8.55788746       0.00000912       0.00002080      -0.00000335
I       15.30035240       2.19977054       5.44095918       0.00000681       0.00001806       0.00001645
I        9.84841186       6.53811546       5.54928339      -0.00000816      -0.00000764      -0.00002373
I       15.33632005       2.04397133       0.99163346       0.00001025       0.00000398      -0.00002949
I       11.23073671       7.23738187       1.51558871       0.00001006      -0.00000020      -0.00001333
I       13.77170647       5.34839400       7.79621357      -0.00001422       0.00000216      -0.00001845
I       11.37702605       3.38968733       3.19396674      -0.00000385       0.00000399       0.00001621
I       22.80527618      24.50360150       2.48183295       0.00001208      -0.00002625      -0.00001463
I       18.77955008      28.99372149       2.89084847       0.00001467      -0.00000089       0.00001702
I       21.39662387      23.88392854       6.46614046       0.00002550      -0.00001141       0.00002208
I       18.74689208      29.07177039       7.38807215       0.00001576      -0.00000363      -0.00001792
I       22.69923903      27.72125556       5.22781350      -0.00002124       0.00000665       0.00002110
I       17.44428426      25.23434478       8.62624820       0.00001316       0.00001989       0.00000426
I       23.17484515       2.21421132       5.50950392      -0.00000844       0.00001366      -0.00000215
I       17.72291566       6.55267166       5.61769314       0.00000597       0.00001914      -0.00000674
I       23.21095297       2.05861165       1.06017168       0.00000039      -0.00000452      -0.00001050
I       19.10528015       7.25204132       1.58395632      -0.00000724      -0.00000489       0.00000962
I       21.64624504       5.36279949       7.86469361       0.00000798      -0.00000549      -0.00001778
I       19.25154877       3.40427163       3.26233777       0.00000912       0.00000127       0.00001964