320
Lattice="31.776387278072196 -0.007869562818606825 -0.004662980873558358 0.02260364445487648 28.465365071340397 0.14677469429852438 0.03664626736618149 -0.07661941988814291 16.958472428750095" Properties=species:S:1:pos:R:3:forces:R:3 energy=-987.689669520707 stress="0.0005764114160547185 2.2746428186544566e-05 3.3633988838111025e-05 2.2746428186544566e-05 0.001923123767388688 2.230013772314541e-05 3.3633988838111025e-05 2.230013772314541e-05 0.0012295655084139186" free_energy=-987.689669520707 pbc="T T T"
Cs       4.95445011       1.61000489       4.45378787      -0.00000294       0.00000414      -0.00000670
Cs       8.79994499       4.17503041       8.71844617      -0.00000221       0.00000397       0.00002558
Cs       4.81343868       8.74436275       0.26128272      -0.00000256       0.00001336       0.00000842
Cs       8.93385293      11.31165574       4.50512365       0.00002885      -0.00000708      -0.00000696
Cs      12.89854793       1.60801683       4.45258921      -0.00000200       0.00001008      -0.00000595
Cs      16.74401757       4.17309205       8.71732188      -0.00001403      -0.00000164       0.00000274
Cs      12.75754714       8.74243529       0.26016722      -0.00000647       0.00000089      -0.00001434
Cs      16.87798417      11.30967397       4.50392209       0.00000703       0.00001287       0.00000878
Pb       7.57520741      13.55273370       8.75874307      -0.00000812      -0.00000256       0.00002889
Pb      11.54733436      13.56017845       8.75830522      -0.00001204      -0.00002801       0.00002872
Pb       6.19046396       6.46502141       4.48688433       0.00002734      -0.00003423      -0.00001406
Pb       2.21834115       6.45757172       4.48729553      -0.00003438       0.00000594       0.00003407
Pb      15.51930709      13.55077695       8.75756997      -0.00001875      -0.00005243       0.00000140
Pb      19.49144111      13.55823119       8.75718773      -0.00002631      -0.00001405       0.00001067
Pb      14.13456770       6.46307410       4.48574721      -0.00002513       0.00000561       0.00002187
Pb      10.16244067       6.45559651       4.48613132      -0.00001901       0.00000456      -0.00002162
I        9.60360031       0.66681895       2.40400441       0.00000402       0.00000172      -0.00000666
I        4.13241926       5.15651692       2.28901368       0.00003673      -0.00000149      -0.00002695
I        9.62082019       0.65016436       6.50189311       0.00002773       0.00000823       0.00000283
I        4.13351842       5.13491239       6.67033237      -0.00000412      -0.00001898       0.00002714
I        8.08288861       3.91517038       4.47470323       0.00001178       0.00001167       0.00001551
I        5.67147600       1.86990331       8.69745174       0.00000211       0.00000505      -0.00000195
I        8.10715096       7.76567648       6.68267585       0.00000552       0.00001410      -0.00000677
I        5.65850064      12.25199382       6.56301396      -0.00001998      -0.00000814      -0.00001640
I        8.10507205       7.78588030       2.30138322      -0.00001331       0.00001027      -0.00001597
I        5.64228119      12.27022978       2.46506421      -0.00000725       0.00001062      -0.00002984
I        9.65277589      11.01153899       8.74415078       0.00000206      -0.00001861      -0.00001267
I        4.11289533       9.00621169       4.50143637      -0.00001639       0.00001786       0.00001253
I       17.54766850       0.66487524       2.40286236      -0.00000383      -0.00001363      -0.00000619
I       12.07658644       5.15460762       2.28782676      -0.00000884      -0.00000327      -0.00001397
I       17.56493608       0.64822233       6.50077168       0.00004044       0.00001259      -0.00002470
I       12.07759969       5.13290953       6.66914984       0.00001334      -0.00001240       0.00002423
I       16.02696248       3.91322531       4.47365838       0.00004226      -0.00001341      -0.00001702
I       13.61555502       1.86791774       8.69626923       0.00000748       0.00002515       0.00000492
I       16.05126391       7.76376512       6.68151272       0.00000808       0.00000953       0.00001379
I       13.60261020      12.25002179       6.56181240       0.00002149       0.00002799       0.00001372
I       16.04917041       7.78393470       2.30024008      -0.00000961       0.00000371      -0.00003943
I       13.58636263      12.26822962       2.46385019      -0.00000122       0.00000497      -0.00000183
I       17.59690713      11.00958146       8.74294449      -0.00001789       0.00000537       0.00001926
I       12.05695985       9.00425683       4.50038112      -0.00000988      -0.00000027      -0.00001512
Cs       4.97277324       1.57169518      12.93302408      -0.00000294       0.00000414      -0.00000670
Cs       8.78162186       4.21334012       0.23920996      -0.00000221       0.00000397       0.00002558
Cs       4.83176181       8.70605304       8.74051893      -0.00000256       0.00001336       0.00000842
Cs       8.95217606      11.27334603      12.98435986       0.00002885      -0.00000708      -0.00000696
Cs      12.91687106       1.56970712      12.93182542      -0.00000200       0.00001008      -0.00000595
Cs      16.72569444       4.21140176       0.23808567      -0.00001403      -0.00000164       0.00000274
Cs      12.77587027       8.70412558       8.73940343      -0.00000647       0.00000089      -0.00001434
Cs      16.89630730      11.27136426      12.98315830       0.00000703       0.00001287       0.00000878
Pb       7.55688428      13.59104341       0.27950686      -0.00000812      -0.00000256       0.00002886
Pb      11.52901123      13.59848816       0.27906901      -0.00001204      -0.00002800       0.00002870
Pb       6.20878709       6.42671170      12.96612054       0.00002734      -0.00003423      -0.00001406
Pb       2.23666428       6.41926201      12.96653174      -0.00003438       0.00000594       0.00003407
Pb      15.50098396      13.58908666       0.27833376      -0.00001875      -0.00005243       0.00000138
Pb      19.47311798      13.59654090       0.27795152      -0.00002631      -0.00001404       0.00001065
Pb      14.15289083       6.42476439      12.96498342      -0.00002513       0.00000561       0.00002187
Pb      10.18076380       6.41728680      12.96536753      -0.00001901       0.00000456      -0.00002162
I        9.62192344       0.62850924      10.88324062       0.00000402       0.00000173      -0.00000664
I        4.15074239       5.11820721      10.76824989       0.00003673      -0.00000149      -0.00002695
I        9.63914332       0.61185465      14.98112932       0.00002773       0.00000823       0.00000283
I        4.15184155       5.09660268      15.14956858      -0.00000411      -0.00001899       0.00002714
I        8.10121174       3.87686067      12.95393944       0.00001178       0.00001167       0.00001551
I        5.65315287       1.90821302       0.21821553       0.00000211       0.00000505      -0.00000195
I        8.12547409       7.72736677      15.16191206       0.00000552       0.00001411      -0.00000676
I        5.67682377      12.21368411      15.04225017      -0.00001997      -0.00000813      -0.00001637
I        8.12339518       7.74757059      10.78061943      -0.00001331       0.00001026      -0.00001597
I        5.66060432      12.23192007      10.94430042      -0.00000725       0.00001062      -0.00002984
I        9.63445276      11.04984870       0.26491457       0.00000206      -0.00001861      -0.00001267
I        4.13121846       8.96790198      12.98067258      -0.00001639       0.00001786       0.00001253
I       17.56599163       0.62656553      10.88209857      -0.00000383      -0.00001362      -0.00000617
I       12.09490957       5.11629791      10.76706297      -0.00000884      -0.00000327      -0.00001397
I       17.58325921       0.60991262      14.98000789       0.00004045       0.00001259      -0.00002469
I       12.09592282       5.09459982      15.14838605       0.00001334      -0.00001240       0.00002423
I       16.04528561       3.87491560      12.95289459       0.00004226      -0.00001342      -0.00001702
I       13.59723189       1.90622745       0.21703302       0.00000748       0.00002515       0.00000491
I       16.06958704       7.72545541      15.16074893       0.00000808       0.00000953       0.00001379
I       13.62093333      12.21171208      15.04104861       0.00002150       0.00002800       0.00001374
I       16.06749354       7.74562499      10.77947629      -0.00000961       0.00000371      -0.00003943
I       13.60468576      12.22991991      10.94308640      -0.00000122       0.00000497      -0.00000182
I       17.57858400      11.04789117       0.26370828      -0.00001790       0.00000537       0.00001926
I       12.07528298       8.96594712      12.97961733      -0.00000988      -0.00000028      -0.00001512
Cs       4.96575193      15.84268743       4.52717522      -0.00000294       0.00000414      -0.00000670
Cs       8.81124681      18.40771295       8.79183352      -0.00000221       0.00000397       0.00002558
Cs       4.82474050      22.97704529       0.33467007      -0.00000256       0.00001336       0.00000842
Cs       8.94515475      25.54433828       4.57851100       0.00002885      -0.00000708      -0.00000696
Cs      12.90984975      15.84069937       4.52597656      -0.00000200       0.00001008      -0.00000595
Cs      16.75531939      18.40577459       8.79070923      -0.00001403      -0.00000164       0.00000274
Cs      12.76884896      22.97511783       0.33355457      -0.00000647       0.00000089      -0.00001434
Cs      16.88928599      25.54235651       4.57730944       0.00000703       0.00001287       0.00000878
Pb       7.58650923      27.78541624       8.83213042      -0.00000811      -0.00000258       0.00002887
Pb      11.55863618      27.79286099       8.83169257      -0.00001203      -0.00002803       0.00002870
Pb       6.20176578      20.69770395       4.56027168       0.00002734      -0.00003423      -0.00001406
Pb       2.22964297      20.69025426       4.56068288      -0.00003438       0.00000594       0.00003407
Pb      15.53060891      27.78345949       8.83095732      -0.00001874      -0.00005245       0.00000139
Pb      19.50274293      27.79091373       8.83057508      -0.00002630      -0.00001406       0.00001066
Pb      14.14586952      20.69575664       4.55913456      -0.00002513       0.00000561       0.00002187
Pb      10.17374249      20.68827905       4.55951867      -0.00001901       0.00000456      -0.00002162
I        9.61490213      14.89950149       2.47739176       0.00000402       0.00000171      -0.00000666
I        4.14372108      19.38919946       2.36240103       0.00003673      -0.00000149      -0.00002695
I        9.63212201      14.88284690       6.57528046       0.00002773       0.00000822       0.00000283
I        4.14482024      19.36759493       6.74371972      -0.00000412      -0.00001898       0.00002714
I        8.09419043      18.14785292       4.54809058       0.00001178       0.00001167       0.00001551
I        5.68277782      16.10258585       8.77083909       0.00000212       0.00000502      -0.00000195
I        8.11845278      21.99835902       6.75606320       0.00000552       0.00001410      -0.00000677
I        5.66980246      26.48467636       6.63640131      -0.00001998      -0.00000814      -0.00001640
I        8.11637387      22.01856284       2.37477057      -0.00001331       0.00001027      -0.00001597
I        5.65358301      26.50291232       2.53845156      -0.00000725       0.00001063      -0.00002986
I        9.66407771      25.24422153       8.81753813       0.00000207      -0.00001861      -0.00001267
I        4.12419715      23.23889423       4.57482372      -0.00001639       0.00001786       0.00001253
I       17.55897032      14.89755778       2.47624971      -0.00000383      -0.00001364      -0.00000620
I       12.08788826      19.38729016       2.36121411      -0.00000884      -0.00000327      -0.00001397
I       17.57623790      14.88090487       6.57415903       0.00004044       0.00001259      -0.00002470
I       12.08890151      19.36559207       6.74253719       0.00001334      -0.00001240       0.00002423
I       16.03826430      18.14590785       4.54704573       0.00004225      -0.00001343      -0.00001702
I       13.62685684      16.10060028       8.76965658       0.00000749       0.00002512       0.00000492
I       16.06256573      21.99644766       6.75490007       0.00000809       0.00000953       0.00001378
I       13.61391202      26.48270433       6.63519975       0.00002149       0.00002799       0.00001372
I       16.06047223      22.01661724       2.37362743      -0.00000961       0.00000371      -0.00003943
I       13.59766445      26.50091216       2.53723754      -0.00000122       0.00000498      -0.00000184
I       17.60820895      25.24226400       8.81633184      -0.00001788       0.00000537       0.00001926
I       12.06826167      23.23693937       4.57376847      -0.00000988      -0.00000028      -0.00001512
Cs       4.98407507      15.80437772      13.00641143      -0.00000294       0.00000414      -0.00000670
Cs       8.79292368      18.44602266       0.31259730      -0.00000221       0.00000397       0.00002558
Cs       4.84306364      22.93873558       8.81390628      -0.00000256       0.00001336       0.00000842
Cs       8.96347789      25.50602857      13.05774721       0.00002885      -0.00000708      -0.00000696
Cs      12.92817289      15.80238966      13.00521277      -0.00000200       0.00001008      -0.00000595
Cs      16.73699626      18.44408430       0.31147301      -0.00001404      -0.00000164       0.00000275
Cs      12.78717210      22.93680812       8.81279078      -0.00000648       0.00000089      -0.00001434
Cs      16.90760913      25.50404680      13.05654565       0.00000703       0.00001286       0.00000878
Pb       7.56818610      27.82372595       0.35289420      -0.00000812      -0.00000259       0.00002890
Pb      11.54031305      27.83117070       0.35245635      -0.00001204      -0.00002802       0.00002873
Pb       6.22008892      20.65939424      13.03950789       0.00002734      -0.00003423      -0.00001406
Pb       2.24796611      20.65194455      13.03991909      -0.00003439       0.00000594       0.00003407
Pb      15.51228578      27.82176920       0.35172110      -0.00001874      -0.00005245       0.00000142
Pb      19.48441980      27.82922344       0.35133886      -0.00002630      -0.00001406       0.00001068
Pb      14.16419266      20.65744693      13.03837077      -0.00002514       0.00000562       0.00002187
Pb      10.19206563      20.64996934      13.03875488      -0.00001901       0.00000456      -0.00002162
I        9.63322527      14.86119178      10.95662797       0.00000401       0.00000171      -0.00000666
I        4.16204422      19.35088975      10.84163724       0.00003673      -0.00000149      -0.00002695
I        9.65044515      14.84453719      15.05451667       0.00002772       0.00000821       0.00000285
I        4.16314338      19.32928522      15.22295593      -0.00000412      -0.00001898       0.00002714
I        8.11251357      18.10954321      13.02732679       0.00001178       0.00001167       0.00001551
I        5.66445469      16.14089556       0.29160287       0.00000212       0.00000502      -0.00000194
I        8.13677592      21.96004931      15.23529941       0.00000552       0.00001410      -0.00000676
I        5.68812560      26.44636665      15.11563752      -0.00001999      -0.00000814      -0.00001640
I        8.13469701      21.98025313      10.85400678      -0.00001331       0.00001026      -0.00001597
I        5.67190615      26.46460261      11.01768777      -0.00000726       0.00001062      -0.00002983
I        9.64575458      25.28253124       0.33830191       0.00000206      -0.00001861      -0.00001267
I        4.14252029      23.20058452      13.05405993      -0.00001639       0.00001786       0.00001253
I       17.57729346      14.85924807      10.95548592      -0.00000384      -0.00001363      -0.00000619
I       12.10621140      19.34898045      10.84045032      -0.00000884      -0.00000327      -0.00001397
I       17.59456104      14.84259516      15.05339524       0.00004043       0.00001258      -0.00002468
I       12.10722465      19.32728236      15.22177340       0.00001334      -0.00001240       0.00002423
I       16.05658744      18.10759814      13.02628194       0.00004224      -0.00001344      -0.00001702
I       13.60853371      16.13890999       0.29042036       0.00000749       0.00002512       0.00000492
I       16.08088887      21.95813795      15.23413628       0.00000808       0.00000953       0.00001379
I       13.63223516      26.44439462      15.11443596       0.00002148       0.00002799       0.00001372
I       16.07879537      21.97830753      10.85286364      -0.00000962       0.00000371      -0.00003943
I       13.61598759      26.46260245      11.01647375      -0.00000123       0.00000496      -0.00000182
I       17.58988582      25.28057371       0.33709562      -0.00001789       0.00000537       0.00001926
I       12.08658481      23.19862966      13.05300468      -0.00000987      -0.00000028      -0.00001512
Cs      20.84264375       1.60607011       4.45145638      -0.00000294       0.00000414      -0.00000670
Cs      24.68813863       4.17109563       8.71611468      -0.00000221       0.00000397       0.00002558
Cs      20.70163232       8.74042797       0.25895123      -0.00000256       0.00001336       0.00000842
Cs      24.82204657      11.30772096       4.50279216       0.00002885      -0.00000708      -0.00000696
Cs      28.78674157       1.60408205       4.45025772      -0.00000200       0.00001008      -0.00000595
Cs       0.85582393       4.17702683       8.71965337      -0.00001403      -0.00000164       0.00000274
Cs      28.64574078       8.73850051       0.25783573      -0.00000647       0.00000089      -0.00001434
Cs       0.98979053      11.31360875       4.50625358       0.00000703       0.00001287       0.00000878
Pb      23.46340105      13.54879892       8.75641158      -0.00000812      -0.00000259       0.00002889
Pb      27.43552800      13.55624367       8.75597373      -0.00001204      -0.00002803       0.00002872
Pb      22.07865760       6.46108663       4.48455284       0.00002734      -0.00003423      -0.00001406
Pb      18.10653479       6.45363694       4.48496404      -0.00003438       0.00000594       0.00003407
Pb      31.40750073      13.54684217       8.75523848      -0.00001874      -0.00005244       0.00000140
Pb       3.60324747      13.56216597       8.75951922      -0.00002630      -0.00001404       0.00001067
Pb      30.02276134       6.45913932       4.48341572      -0.00002514       0.00000560       0.00002187
Pb      26.05063431       6.45166173       4.48379983      -0.00001901       0.00000456      -0.00002162
I       25.49179395       0.66288417       2.40167292       0.00000402       0.00000170      -0.00000667
I       20.02061290       5.15258214       2.28668219       0.00003673      -0.00000149      -0.00002695
I       25.50901383       0.64622958       6.49956162       0.00002772       0.00000822       0.00000284
I       20.02171206       5.13097761       6.66800088      -0.00000412      -0.00001898       0.00002714
I       23.97108225       3.91123560       4.47237174       0.00001178       0.00001167       0.00001551
I       21.55966964       1.86596853       8.69512025       0.00000212       0.00000503      -0.00000195
I       23.99534460       7.76174170       6.68034436       0.00000552       0.00001410      -0.00000677
I       21.54669428      12.24805904       6.56068247      -0.00001998      -0.00000814      -0.00001640
I       23.99326569       7.78194552       2.29905173      -0.00001331       0.00001027      -0.00001597
I       21.53047483      12.26629500       2.46273272      -0.00000725       0.00001062      -0.00002984
I       25.54096953      11.00760421       8.74181929       0.00000206      -0.00001861      -0.00001267
I       20.00108897       9.00227691       4.49910488      -0.00001639       0.00001786       0.00001253
I        1.65947486       0.66881002       2.40519385      -0.00000383      -0.00001363      -0.00000620
I       27.96478008       5.15067284       2.28549527      -0.00000884      -0.00000327      -0.00001397
I        1.67674244       0.65215711       6.50310317       0.00004044       0.00001259      -0.00002469
I       27.96579333       5.12897475       6.66681835       0.00001334      -0.00001240       0.00002423
I        0.13876884       3.91716009       4.47598987       0.00004226      -0.00001341      -0.00001702
I       29.50374866       1.86398296       8.69393774       0.00000748       0.00002512       0.00000492
I        0.16307027       7.76769990       6.68384421       0.00000809       0.00000954       0.00001379
I       29.49080384      12.24608701       6.55948091       0.00002149       0.00002799       0.00001372
I        0.16097677       7.78786948       2.30257157      -0.00000961       0.00000372      -0.00003944
I       29.47455627      12.26429484       2.46151870      -0.00000122       0.00000497      -0.00000183
I        1.70871349      11.01351624       8.74527598      -0.00001789       0.00000538       0.00001926
I       27.94515349       9.00032205       4.49804963      -0.00000988      -0.00000027      -0.00001512
Cs      20.86096688       1.56776040      12.93069259      -0.00000294       0.00000414      -0.00000670
Cs      24.66981550       4.20940534       0.23687847      -0.00000221       0.00000397       0.00002558
Cs      20.71995545       8.70211826       8.73818744      -0.00000256       0.00001336       0.00000842
Cs      24.84036970      11.26941125      12.98202837       0.00002885      -0.00000708      -0.00000696
Cs      28.80506470       1.56577234      12.92949393      -0.00000200       0.00001008      -0.00000595
Cs       0.83750080       4.21533654       0.24041716      -0.00001403      -0.00000164       0.00000274
Cs      28.66406391       8.70019080       8.73707194      -0.00000647       0.00000089      -0.00001434
Cs       1.00811366      11.27529904      12.98548979       0.00000703       0.00001287       0.00000879
Pb      23.44507792      13.58710863       0.27717537      -0.00000812      -0.00000259       0.00002887
Pb      27.41720487      13.59455338       0.27673752      -0.00001205      -0.00002802       0.00002870
Pb      22.09698073       6.42277692      12.96378905       0.00002734      -0.00003423      -0.00001406
Pb      18.12485792       6.41532723      12.96420025      -0.00003438       0.00000594       0.00003407
Pb      31.38917760      13.58515188       0.27600227      -0.00001875      -0.00005245       0.00000138
Pb       3.58492434      13.60047568       0.28028301      -0.00002631      -0.00001404       0.00001065
Pb      30.04108447       6.42082961      12.96265193      -0.00002514       0.00000561       0.00002187
Pb      26.06895744       6.41335202      12.96303604      -0.00001901       0.00000456      -0.00002162
I       25.51011708       0.62457446      10.88090913       0.00000402       0.00000172      -0.00000665
I       20.03893603       5.11427243      10.76591840       0.00003673      -0.00000149      -0.00002695
I       25.52733696       0.60791987      14.97879783       0.00002773       0.00000822       0.00000285
I       20.04003519       5.09266790      15.14723709      -0.00000412      -0.00001899       0.00002714
I       23.98940538       3.87292589      12.95160795       0.00001178       0.00001167       0.00001551
I       21.54134651       1.90427824       0.21588404       0.00000212       0.00000504      -0.00000195
I       24.01366773       7.72343199      15.15958057       0.00000552       0.00001411      -0.00000676
I       21.56501741      12.20974933      15.03991868      -0.00001998      -0.00000813      -0.00001637
I       24.01158882       7.74363581      10.77828794      -0.00001331       0.00001026      -0.00001597
I       21.54879796      12.22798529      10.94196893      -0.00000725       0.00001062      -0.00002984
I       25.52264640      11.04591392       0.26258308       0.00000206      -0.00001861      -0.00001267
I       20.01941210       8.96396720      12.97834109      -0.00001639       0.00001786       0.00001253
I        1.67779799       0.63050031      10.88443006      -0.00000383      -0.00001362      -0.00000617
I       27.98310321       5.11236313      10.76473148      -0.00000884      -0.00000327      -0.00001397
I        1.69506557       0.61384740      14.98233938       0.00004044       0.00001259      -0.00002469
I       27.98411646       5.09066504      15.14605456       0.00001334      -0.00001240       0.00002423
I        0.15709197       3.87885038      12.95522608       0.00004226      -0.00001341      -0.00001702
I       29.48542553       1.90229267       0.21470153       0.00000748       0.00002512       0.00000491
I        0.18139340       7.72939019      15.16308042       0.00000809       0.00000954       0.00001380
I       29.50912697      12.20777730      15.03871712       0.00002150       0.00002800       0.00001374
I        0.17929990       7.74955977      10.78180778      -0.00000961       0.00000372      -0.00003943
I       29.49287940      12.22598513      10.94075491      -0.00000122       0.00000496      -0.00000182
I        1.69039036      11.05182595       0.26603977      -0.00001789       0.00000538       0.00001926
I       27.96347662       8.96201234      12.97728584      -0.00000988      -0.00000028      -0.00001512
Cs      20.85394557      15.83875264       4.52484373      -0.00000294       0.00000414      -0.00000670
Cs      24.69944045      18.40377816       8.78950203      -0.00000221       0.00000397       0.00002558
Cs      20.71293414      22.97311050       0.33233858      -0.00000256       0.00001336       0.00000842
Cs      24.83334839      25.54040349       4.57617951       0.00002885      -0.00000708      -0.00000696
Cs      28.79804339      15.83676458       4.52364507      -0.00000200       0.00001008      -0.00000595
Cs       0.86712575      18.40970937       8.79304072      -0.00001403      -0.00000164       0.00000274
Cs      28.65704260      22.97118304       0.33122308      -0.00000647       0.00000089      -0.00001434
Cs       1.00109235      25.54629129       4.57964093       0.00000703       0.00001287       0.00000878
Pb      23.47470287      27.78148145       8.82979893      -0.00000812      -0.00000257       0.00002888
Pb      27.44682982      27.78892620       8.82936108      -0.00001204      -0.00002800       0.00002870
Pb      22.08995942      20.69376916       4.55794019       0.00002734      -0.00003422      -0.00001406
Pb      18.11783661      20.68631947       4.55835139      -0.00003438       0.00000595       0.00003407
Pb      31.41880255      27.77952470       8.82862583      -0.00001876      -0.00005243       0.00000139
Pb       3.61454929      27.79484851       8.83290657      -0.00002630      -0.00001405       0.00001066
Pb      30.03406316      20.69182185       4.55680307      -0.00002514       0.00000562       0.00002187
Pb      26.06193613      20.68434426       4.55718718      -0.00001901       0.00000456      -0.00002162
I       25.50309577      14.89556670       2.47506027       0.00000402       0.00000172      -0.00000665
I       20.03191472      19.38526467       2.36006954       0.00003673      -0.00000149      -0.00002695
I       25.52031565      14.87891211       6.57294897       0.00002773       0.00000824       0.00000282
I       20.03301388      19.36366014       6.74138823      -0.00000412      -0.00001898       0.00002714
I       23.98238407      18.14391813       4.54575909       0.00001178       0.00001167       0.00001551
I       21.57097146      16.09865106       8.76850760       0.00000212       0.00000506      -0.00000195
I       24.00664642      21.99442423       6.75373171       0.00000552       0.00001410      -0.00000677
I       21.55799610      26.48074157       6.63406982      -0.00001998      -0.00000814      -0.00001639
I       24.00456751      22.01462805       2.37243908      -0.00001331       0.00001026      -0.00001597
I       21.54177665      26.49897753       2.53612007      -0.00000725       0.00001063      -0.00002987
I       25.55227135      25.24028674       8.81520664       0.00000206      -0.00001860      -0.00001267
I       20.01239079      23.23495944       4.57249223      -0.00001639       0.00001786       0.00001253
I        1.67077668      14.90149256       2.47858120      -0.00000383      -0.00001363      -0.00000619
I       27.97608190      19.38335537       2.35888262      -0.00000884      -0.00000327      -0.00001397
I        1.68804426      14.88483965       6.57649052       0.00004044       0.00001259      -0.00002470
I       27.97709515      19.36165728       6.74020570       0.00001334      -0.00001240       0.00002423
I        0.15007066      18.14984263       4.54937722       0.00004226      -0.00001343      -0.00001702
I       29.51505048      16.09666549       8.76732509       0.00000749       0.00002515       0.00000492
I        0.17437209      22.00038244       6.75723156       0.00000808       0.00000953       0.00001379
I       29.50210566      26.47876954       6.63286826       0.00002149       0.00002799       0.00001372
I        0.17227859      22.02055202       2.37595892      -0.00000961       0.00000371      -0.00003943
I       29.48585809      26.49697737       2.53490605      -0.00000122       0.00000498      -0.00000185
I        1.72001531      25.24619878       8.81866333      -0.00001788       0.00000536       0.00001926
I       27.95645531      23.23300458       4.57143698      -0.00000988      -0.00000027      -0.00001512