768
Lattice="39.10627365439266 -0.43150973886839483 0.2574669388867156 -0.4040973546765018 23.47182308951896 0.2712218342960515 0.00015992250487611057 0.1350491098840735 18.31594463339911" Properties=species:S:1:pos:R:3:forces:R:3 energy=-3663.55574957002 stress="0.002676251121948368 -0.0006061726136229039 -0.00043165156803296714 -0.0006061726136229039 0.0018493582371328433 0.0005407007878611048 -0.00043165156803296714 0.0005407007878611048 0.0019038809343871143" free_energy=-3663.55574957002 pbc="T T T"
H        4.62041624       3.04568462       2.84304384       0.00001737      -0.00001576      -0.00000211
H        8.88537902      14.66552784       1.08017100       0.00000616      -0.00000046      -0.00000361
H       -0.91262307       8.99122538       3.35672274      -0.00002294      -0.00000642      -0.00000366
H       14.41845978       8.71992274       0.56651542       0.00000499      -0.00000661      -0.00001503
H        2.89875074       2.37628698       8.83397628      -0.00000252      -0.00000995       0.00000903
H        8.94826825      12.57207953       2.08106076      -0.00000227      -0.00000613       0.00001803
H        0.79432939       8.22196631       6.54753131      -0.00000666      -0.00001497      -0.00000829
H       14.30060840       6.57937158      -0.33585318       0.00000990      -0.00001339      -0.00000365
H        2.98628437       5.53585456       2.52863889       0.00000754       0.00000165      -0.00000045
H       10.51946318      12.17532037       1.39452163      -0.00001938      -0.00000975       0.00000275
H        1.68636471       9.73785676       6.64209332       0.00002356       0.00001705      -0.00001154
H       12.73039717       6.25284979       0.39099904       0.00001140       0.00000549      -0.00000303
H        2.02550821       3.86691827       4.08255679      -0.00000111      -0.00001047       0.00000587
H       11.48023358      13.84423841      -0.15941735       0.00001797       0.00001225       0.00000016
H        0.77533949      11.45837207       3.53212495      -0.00000268      -0.00001000       0.00000349
H       11.81951360       8.00707503       1.86020937       0.00000202       0.00000101      -0.00000314
H        2.89868718       2.34252859       4.25501020      -0.00000411       0.00000409      -0.00000029
H       10.60708682      15.36865328      -0.33183404       0.00000844      -0.00001580      -0.00000183
H       -0.79486178      11.13182695       4.25898631      -0.00000232      -0.00000604       0.00000415
H       14.30066074       6.61301300       4.24317890      -0.00001199       0.00001335       0.00000859
C        3.76766125       3.70721459       3.02779064       0.00000120       0.00002273      -0.00000886
C        9.73811570      14.00397969       0.89539962      -0.00005429       0.00000965       0.00001933
C       -0.04840319       9.62609986       3.13618962      -0.00000608       0.00003198       0.00003712
C       13.55421983       8.08506711       0.78702757      -0.00002531       0.00000674       0.00003222
N        3.76078419       4.87837392       2.43095995      -0.00001646       0.00000042       0.00000422
N        9.74498234      12.83281916       1.49222824       0.00005287       0.00000574      -0.00002940
N        0.87806331       9.17210097       6.92471875      -0.00001235      -0.00001028      -0.00002782
N       13.51651492       6.88719291       0.24531143      -0.00001285      -0.00000773       0.00000732
N        2.82320429       3.27445073       3.82970701      -0.00001193       0.00000685       0.00000297
N       10.68255964      14.43672544       0.09345873       0.00000968       0.00000395      -0.00000630
N       -0.01075198      10.82400406       3.67784452       0.00000891       0.00000599       0.00000009
N       12.62781719       8.57282392       1.57757230      -0.00000304      -0.00001266      -0.00001660
Pb      37.25808231       4.45935653       0.83742095      -0.00000442      -0.00000175      -0.00000248
Pb      15.35395364      12.82028511       3.34326061      -0.00000256       0.00000369       0.00000665
Pb       5.65331598      10.66236368       0.96226650       0.00000675       0.00000061      -0.00000489
Pb       7.85247051       7.04882313       2.96096736       0.00000114       0.00000097      -0.00000561
I       36.19388889       6.51557739       3.12865517      -0.00000114       0.00000723       0.00000869
I       35.97129183      10.54831318       1.18075574      -0.00000809      -0.00000059       0.00000505
I        6.61575423      12.76286388       3.23477205      -0.00000151      -0.00000048       0.00000875
I        6.89002676       4.94833192       0.68846234      -0.00000162      -0.00000146      -0.00001665
I       14.64967067       3.22826546       0.87524518      -0.00000109      -0.00000398       0.00000855
I       37.96236964      14.05137881       3.30543351       0.00000325       0.00000339      -0.00000204
I        8.71328739       9.22438334       0.69362231       0.00000114      -0.00000254       0.00000191
I        4.79249398       8.48681817       3.22961466       0.00000023      -0.00001073       0.00000481
I        0.99313665       6.17858357       0.32761234      -0.00000335       0.00000438       0.00000766
I       12.51262117      11.53258019       3.59561854       0.00000220       0.00001197      -0.00000859
I        2.80467675      11.96764042       1.28257065      -0.00000432      -0.00000496       0.00000607
I       10.70110037       5.74354263       2.64063827      -0.00000023       0.00000394      -0.00000091
H        4.62043004       3.07943433       7.42194535      -0.00001079       0.00001665       0.00000728
H        8.88539696      14.69922769       5.65927919       0.00001581      -0.00000860      -0.00000254
H       -0.91261904       9.02500147       7.93570553      -0.00001383       0.00000326      -0.00000046
H       14.41855332       8.75360051       5.14545007       0.00000005      -0.00000080       0.00000471
H        4.55749955       5.13912347       1.84213220      -0.00000203      -0.00000775       0.00001056
H        8.94832013      12.60571569       6.66004223       0.00000857       0.00001917      -0.00001675
H        0.79431219       8.18818501       1.96853731       0.00000753       0.00000903      -0.00001365
H       12.71165467       9.55674553       6.53363021      -0.00000766      -0.00001901       0.00000752
H        2.02559732       3.90069932       8.66159605      -0.00001830      -0.00000043       0.00000013
H       10.51946959      12.20898074       5.97338728       0.00001685       0.00000614       0.00000491
H        1.68632447       9.70409654       2.06304699       0.00000770      -0.00000112      -0.00002097
H       11.81956255       8.04088520       6.43912542      -0.00001077      -0.00000877       0.00001704
H        2.98634911       5.56965797       7.10769521      -0.00000019      -0.00000558      -0.00000342
H       11.48021632      13.87800863       4.41956909       0.00002364      -0.00000705       0.00000085
H        0.77539875      11.49210473       8.11123408      -0.00002143      -0.00002610      -0.00000237
H       12.73043753       6.28655790       4.97003940       0.00002825       0.00001371      -0.00000476
H        4.55752046       5.17290764       6.42110005       0.00000534      -0.00000806       0.00001207
H       10.60705855      15.40242364       4.24724460       0.00000905       0.00001418      -0.00001326
H       -0.79483299      11.16556846       8.83803746       0.00002985      -0.00000004      -0.00001298
H       12.71156179       9.52296043       1.95475444      -0.00000038      -0.00000436       0.00000537
C        3.76769912       3.74098138       7.60674882       0.00003500      -0.00002312      -0.00001523
C        9.73812477      14.03768738       5.47443849       0.00000158       0.00000322      -0.00001161
C       -0.04837976       9.65986392       7.71521096       0.00001561       0.00001287       0.00001260
C       13.55429418       8.11877743       5.36598137       0.00001006       0.00003060       0.00000368
N        2.82326907       3.30821943       8.40869737       0.00000462       0.00000107      -0.00000943
N        9.74500915      12.86648810       6.07118972      -0.00002297      -0.00001059       0.00002761
N        0.87803225       9.13833515       2.34568987      -0.00000213      -0.00001279       0.00000044
N       12.62788715       8.60659827       6.15648117       0.00000428       0.00002016       0.00000094
N        3.76082134       4.91215564       7.00994795      -0.00001441       0.00002351      -0.00000272
N       10.68254701      14.47047943       4.67249559      -0.00003502       0.00001023       0.00001751
N       -0.01071406      10.85775055       8.25690263      -0.00001395       0.00003350       0.00001744
N       13.51657099       6.92087705       4.82432659      -0.00002422      -0.00005990      -0.00002550
Pb      37.25811003       4.49312497       5.41640568       0.00000179       0.00000251       0.00000153
Pb      15.35400649      12.85404684       7.92224734      -0.00000195      -0.00000427       0.00000074
Pb       5.65334976      10.69612730       5.54125145      -0.00000772       0.00001060       0.00000283
Pb       7.85250862       7.08259905       7.53995446      -0.00000544      -0.00000982       0.00001103
I       36.19393325       6.54933775       7.70765564       0.00000366       0.00001120      -0.00000680
I       35.97132788      10.58207351       5.75973115       0.00000752      -0.00000123      -0.00000429
I        6.61579983      12.79662314       7.81376616       0.00000001       0.00000342      -0.00001167
I        6.89006542       4.98209832       5.26745014       0.00000128      -0.00001363      -0.00000930
I       14.64969169       3.26201545       5.45423908       0.00000249      -0.00000263       0.00000055
I       37.96243009      14.08515605       7.88441186      -0.00000601      -0.00000114      -0.00000303
I        8.71333430       9.25813675       5.27260788      -0.00000555       0.00000547      -0.00000408
I        4.79252919       8.52057468       7.80860254       0.00000574       0.00000096      -0.00000442
I        0.99314406       6.21236693       4.90658771       0.00000990      -0.00000406       0.00001192
I       12.51269422      11.56633120       8.17459951       0.00000288      -0.00000722      -0.00000829
I        2.80470900      12.00139294       5.86156006       0.00001729      -0.00000609       0.00000170
I       10.70114974       5.77733500       7.21961704      -0.00000166       0.00000049      -0.00000005
H        4.62049620       3.11320917      12.00101616       0.00001737      -0.00001576      -0.00000211
H        8.88545898      14.73305239      10.23814332       0.00000616      -0.00000046      -0.00000362
H       -0.91254310       9.05874994      12.51469506      -0.00002328      -0.00000668      -0.00000358
H       14.41853974       8.78744729       9.72448774       0.00000499      -0.00000661      -0.00001503
H        2.89883070       2.44381153      17.99194860      -0.00000252      -0.00000995       0.00000903
H        8.94834821      12.63960408      11.23903308      -0.00000227      -0.00000613       0.00001802
H        0.79440935       8.28949086      15.70550363      -0.00000666      -0.00001496      -0.00000828
H       14.30068836       6.64689613       8.82211914       0.00000990      -0.00001340      -0.00000366
H        2.98636433       5.60337911      11.68661121       0.00000754       0.00000165      -0.00000045
H       10.51954314      12.24284492      10.55249395      -0.00001938      -0.00000974       0.00000275
H        1.68644467       9.80538131      15.80006564       0.00002356       0.00001705      -0.00001154
H       12.73047713       6.32037434       9.54897136       0.00001141       0.00000549      -0.00000303
H        2.02558817       3.93444282      13.24052911      -0.00000111      -0.00001048       0.00000587
H       11.48031354      13.91176296       8.99855497       0.00001797       0.00001225       0.00000016
H        0.77541945      11.52589662      12.69009727      -0.00000266      -0.00001002       0.00000347
H       11.81959356       8.07459958      11.01818169       0.00000202       0.00000101      -0.00000314
H        2.89876714       2.41005314      13.41298252      -0.00000411       0.00000409      -0.00000029
H       10.60716678      15.43617783       8.82613828       0.00000844      -0.00001580      -0.00000184
H       -0.79478181      11.19935151      13.41695863      -0.00000249      -0.00000606       0.00000424
H       14.30074070       6.68053755      13.40115122      -0.00001199       0.00001335       0.00000859
C        3.76774121       3.77473914      12.18576296       0.00000120       0.00002273      -0.00000886
C        9.73819566      14.07150424      10.05337194      -0.00005428       0.00000964       0.00001935
C       -0.04832323       9.69362441      12.29416194      -0.00000579       0.00003224       0.00003707
C       13.55429979       8.15259166       9.94499989      -0.00002531       0.00000674       0.00003222
N        3.76086415       4.94589847      11.58893227      -0.00001646       0.00000042       0.00000422
N        9.74506230      12.90034371      10.65020056       0.00005286       0.00000573      -0.00002940
N        0.87814327       9.23962552      16.08269107      -0.00001235      -0.00001027      -0.00002782
N       13.51659488       6.95471746       9.40328375      -0.00001284      -0.00000773       0.00000732
N        2.82328425       3.34197528      12.98767933      -0.00001193       0.00000685       0.00000297
N       10.68263960      14.50424999       9.25143105       0.00000967       0.00000398      -0.00000631
N       -0.01067202      10.89152861      12.83581684       0.00000912       0.00000602      -0.00000001
N       12.62789715       8.64034847      10.73554462      -0.00000304      -0.00001266      -0.00001661
Pb      37.25816228       4.52688109       9.99539327      -0.00000446      -0.00000177      -0.00000249
Pb      15.35403360      12.88780966      12.50123293      -0.00000257       0.00000371       0.00000663
Pb       5.65339594      10.72988823      10.12023882       0.00000675       0.00000062      -0.00000490
Pb       7.85255047       7.11634768      12.11893968       0.00000114       0.00000097      -0.00000561
I       36.19396886       6.58310195      12.28662749      -0.00000115       0.00000723       0.00000869
I       35.97137180      10.61583774      10.33872806      -0.00000810      -0.00000060       0.00000504
I        6.61583419      12.83038843      12.39274437      -0.00000151      -0.00000048       0.00000875
I        6.89010672       5.01585647       9.84643466      -0.00000161      -0.00000144      -0.00001666
I       14.64975063       3.29579001      10.03321750      -0.00000109      -0.00000396       0.00000855
I       37.96244961      14.11890337      12.46340583       0.00000325       0.00000337      -0.00000206
I        8.71336735       9.29190789       9.85159463       0.00000114      -0.00000254       0.00000191
I        4.79257394       8.55434272      12.38758698       0.00000023      -0.00001073       0.00000480
I        0.99321661       6.24610812       9.48558466      -0.00000332       0.00000440       0.00000766
I       12.51270113      11.60010474      12.75359086       0.00000220       0.00001197      -0.00000859
I        2.80475671      12.03516497      10.44054297      -0.00000431      -0.00000496       0.00000607
I       10.70118033       5.81106718      11.79861059      -0.00000023       0.00000394      -0.00000091
H        4.62051000       3.14695888      16.57991767      -0.00001079       0.00001665       0.00000728
H        8.88547692      14.76675224      14.81725151       0.00001581      -0.00000860      -0.00000254
H       -0.91253907       9.09252603      17.09367785      -0.00001417       0.00000300      -0.00000038
H       14.41863328       8.82112506      14.30342239       0.00000005      -0.00000080       0.00000471
H        4.55757951       5.20664802      11.00010452      -0.00000202      -0.00000775       0.00001055
H        8.94840009      12.67324024      15.81801455       0.00000857       0.00001917      -0.00001675
H        0.79439215       8.25570956      11.12650963       0.00000753       0.00000903      -0.00001364
H       12.71173463       9.62427008      15.69160253      -0.00000766      -0.00001901       0.00000752
H        2.02567728       3.96822387      17.81956837      -0.00001830      -0.00000043       0.00000013
H       10.51954955      12.27650529      15.13135960       0.00001685       0.00000614       0.00000491
H        1.68640443       9.77162109      11.22101931       0.00000770      -0.00000112      -0.00002097
H       11.81964251       8.10840975      15.59709774      -0.00001077      -0.00000877       0.00001704
H        2.98642907       5.63718252      16.26566753      -0.00000019      -0.00000558      -0.00000342
H       11.48029628      13.94553318      13.57754141       0.00002365      -0.00000705       0.00000085
H        0.77547871      11.55962928      17.26920640      -0.00002141      -0.00002611      -0.00000239
H       12.73051749       6.35408245      14.12801172       0.00002825       0.00001371      -0.00000476
H        4.55760042       5.24043219      15.57907237       0.00000534      -0.00000806       0.00001207
H       10.60713851      15.46994819      13.40521692       0.00000905       0.00001417      -0.00001326
H       -0.79475302      11.23309302      17.99600978       0.00002969      -0.00000005      -0.00001290
H       12.71164175       9.59048498      11.11272676      -0.00000038      -0.00000436       0.00000537
C        3.76777908       3.80850593      16.76472114       0.00003500      -0.00002312      -0.00001523
C        9.73820473      14.10521193      14.63241081       0.00000157       0.00000322      -0.00001161
C       -0.04829980       9.72738847      16.87318328       0.00001590       0.00001312       0.00001254
C       13.55437414       8.18630198      14.52395369       0.00001006       0.00003061       0.00000369
N        2.82334903       3.37574398      17.56666969       0.00000462       0.00000109      -0.00000944
N        9.74508911      12.93401265      15.22916204      -0.00002297      -0.00001059       0.00002761
N        0.87811221       9.20585970      11.50366219      -0.00000212      -0.00001279       0.00000044
N       12.62796711       8.67412282      15.31445349       0.00000428       0.00002016       0.00000094
N        3.76090130       4.97968019      16.16792027      -0.00001441       0.00002351      -0.00000273
N       10.68262697      14.53800398      13.83046791      -0.00003502       0.00001024       0.00001750
N       -0.01063410      10.92527510      17.41487495      -0.00001375       0.00003354       0.00001735
N       13.51665095       6.98840160      13.98229891      -0.00002422      -0.00005990      -0.00002550
Pb      37.25819000       4.56064953      14.57437800       0.00000175       0.00000249       0.00000152
Pb      15.35408645      12.92157139      17.08021966      -0.00000195      -0.00000425       0.00000073
Pb       5.65342972      10.76365185      14.69922377      -0.00000772       0.00001060       0.00000284
Pb       7.85258858       7.15012360      16.69792678      -0.00000544      -0.00000980       0.00001102
I       36.19401322       6.61686231      16.86562796       0.00000364       0.00001119      -0.00000681
I       35.97140785      10.64959807      14.91770347       0.00000750      -0.00000122      -0.00000429
I        6.61587979      12.86414769      16.97173848       0.00000002       0.00000344      -0.00001169
I        6.89014538       5.04962287      14.42542246       0.00000128      -0.00001363      -0.00000930
I       14.64977165       3.32954000      14.61221140       0.00000249      -0.00000263       0.00000055
I       37.96251006      14.15268061      17.04238418      -0.00000603      -0.00000114      -0.00000303
I        8.71341426       9.32566130      14.43058020      -0.00000554       0.00000548      -0.00000408
I        4.79260915       8.58809923      16.96657486       0.00000574       0.00000097      -0.00000442
I        0.99322402       6.27989148      14.06456003       0.00000993      -0.00000405       0.00001192
I       12.51277418      11.63385575      17.33257183       0.00000288      -0.00000722      -0.00000830
I        2.80478896      12.06891749      15.01953238       0.00001729      -0.00000608       0.00000169
I       10.70122970       5.84485955      16.37758936      -0.00000165       0.00000049      -0.00000005
H        4.41836756      14.78159616       2.97865476       0.00001737      -0.00001576      -0.00000211
H        9.08742770       2.92961630       0.94456008       0.00000615      -0.00000046      -0.00000361
H       -1.11467174      20.72713693       3.49233366      -0.00002328      -0.00000668      -0.00000358
H       14.21641110      20.45583428       0.70212634       0.00000499      -0.00000661      -0.00001503
H        2.69670206      14.11219852       8.96958720      -0.00000252      -0.00000995       0.00000903
H        9.15031693       0.83616799       1.94544984      -0.00000227      -0.00000614       0.00001802
H        0.59228071      19.95787785       6.68314223      -0.00000666      -0.00001496      -0.00000828
H       14.09855973      18.31528312      -0.20024226       0.00000967      -0.00001332      -0.00000350
H        2.78423569      17.27176610       2.66424981       0.00000754       0.00000165      -0.00000045
H       10.72151186       0.43940883       1.25891071      -0.00001938      -0.00000974       0.00000275
H        1.48431603      21.47376830       6.77770424       0.00002356       0.00001705      -0.00001154
H       12.52834849      17.98876133       0.52660996       0.00001141       0.00000549      -0.00000303
H        1.82345953      15.60282981       4.21816771      -0.00000111      -0.00001048       0.00000587
H       11.68228226       2.10832687      -0.29502826       0.00001798       0.00001226       0.00000015
H        0.57329081      23.19428361       3.66773587      -0.00000266      -0.00001002       0.00000347
H       11.61746492      19.74298657       1.99582029       0.00000202       0.00000101      -0.00000314
H        2.69663850      14.07844013       4.39062112      -0.00000411       0.00000409      -0.00000029
H       10.80913550       3.63274174      -0.46744495       0.00000845      -0.00001579      -0.00000185
H       -0.99691045      22.86773850       4.39459723      -0.00000249      -0.00000606       0.00000424
H       14.09861206      18.34892454       4.37878982      -0.00001199       0.00001335       0.00000859
C        3.56561257      15.44312613       3.16340156       0.00000120       0.00002273      -0.00000886
C        9.94016438       2.26806815       0.75978870      -0.00005449       0.00000956       0.00001955
C       -0.25045187      21.36201140       3.27180054      -0.00000579       0.00003225       0.00003708
C       13.35217115      19.82097865       0.92263849      -0.00002531       0.00000674       0.00003222
N        3.55873551      16.61428546       2.56657087      -0.00001646       0.00000042       0.00000422
N        9.94703102       1.09690762       1.35661732       0.00005284       0.00000571      -0.00002939
N        0.67601463      20.90801251       7.06032967      -0.00001234      -0.00001026      -0.00002782
N       13.31446624      18.62310445       0.38092235      -0.00001261      -0.00000780       0.00000716
N        2.62115561      15.01036227       3.96531793      -0.00001193       0.00000686       0.00000297
N       10.88460832       2.70081390      -0.04215218       0.00000989       0.00000406      -0.00000651
N       -0.21280066      22.55991560       3.81345544       0.00000912       0.00000602      -0.00000002
N       12.42576851      20.30873546       1.71318322      -0.00000304      -0.00001265      -0.00001660
Pb      37.05603364      16.19526808       0.97303187      -0.00000446      -0.00000177      -0.00000249
Pb      15.55600232       1.08437357       3.20764969      -0.00000259       0.00000367       0.00000665
Pb       5.45126730      22.39827522       1.09787742       0.00000676       0.00000063      -0.00000490
Pb       7.65042183      18.78473467       3.09657828       0.00000114       0.00000097      -0.00000562
I       35.99184022      18.25148894       3.26426609      -0.00000115       0.00000723       0.00000869
I       35.76924316      22.28422473       1.31636666      -0.00000810      -0.00000060       0.00000504
I        6.81780291       1.02695234       3.09916113      -0.00000152      -0.00000051       0.00000876
I        6.68797808      16.68424346       0.82407326      -0.00000161      -0.00000145      -0.00001666
I       14.44762199      14.96417700       1.01085610      -0.00000109      -0.00000397       0.00000855
I       38.16441832       2.31546727       3.16982259       0.00000325       0.00000338      -0.00000204
I        8.51123871      20.96029488       0.82923323       0.00000114      -0.00000254       0.00000191
I        4.59044530      20.22272971       3.36522558       0.00000022      -0.00001073       0.00000480
I        0.79108797      17.91449511       0.46322326      -0.00000332       0.00000440       0.00000766
I       12.31057249      23.26849173       3.73122946       0.00000222       0.00001198      -0.00000859
I        3.00672543       0.23172888       1.14695973      -0.00000433      -0.00000499       0.00000609
I       10.49905169      17.47945417       2.77624919      -0.00000023       0.00000394      -0.00000091
H        4.41838136      14.81534587       7.55755627      -0.00001079       0.00001665       0.00000728
H        9.08744564       2.96331615       5.52366827       0.00001581      -0.00000860      -0.00000254
H       -1.11466771      20.76091302       8.07131645      -0.00001417       0.00000300      -0.00000038
H       14.21650464      20.48951205       5.28106099       0.00000005      -0.00000080       0.00000471
H        4.35545087      16.87503501       1.97774312      -0.00000202      -0.00000775       0.00001055
H        9.15036881       0.86980415       6.52443131       0.00000857       0.00001917      -0.00001675
H        0.59226351      19.92409655       2.10414823       0.00000753       0.00000903      -0.00001365
H       12.50960599      21.29265707       6.66924113      -0.00000766      -0.00001900       0.00000752
H        1.82354864      15.63661086       8.79720697      -0.00001830      -0.00000043       0.00000013
H       10.72151827       0.47306920       5.83777636       0.00001686       0.00000614       0.00000491
H        1.48427579      21.44000808       2.19865791       0.00000769      -0.00000112      -0.00002097
H       11.61751387      19.77679674       6.57473634      -0.00001077      -0.00000877       0.00001704
H        2.78430043      17.30556951       7.24330613      -0.00000019      -0.00000558      -0.00000342
H       11.68226500       2.14209709       4.28395817       0.00002364      -0.00000705       0.00000085
H        0.57335007      23.22801627       8.24684500      -0.00002141      -0.00002611      -0.00000239
H       12.52838885      18.02246944       5.10565032       0.00002825       0.00001371      -0.00000476
H        4.35547178      16.90881918       6.55671097       0.00000534      -0.00000806       0.00001207
H       10.80910723       3.66651210       4.11163368       0.00000905       0.00001418      -0.00001326
H       -0.99688166      22.90148001       8.97364838       0.00002968      -0.00000005      -0.00001289
H       12.50951311      21.25887197       2.09036536      -0.00000038      -0.00000435       0.00000537
C        3.56565044      15.47689292       7.74235974       0.00003500      -0.00002312      -0.00001523
C        9.94017345       2.30177584       5.33882757       0.00000157       0.00000322      -0.00001161
C       -0.25042844      21.39577546       7.85082188       0.00001590       0.00001313       0.00001255
C       13.35224550      19.85468897       5.50159229       0.00001006       0.00003061       0.00000369
N        2.62122039      15.04413097       8.54430829       0.00000462       0.00000108      -0.00000943
N        9.94705783       1.13057656       5.93557880      -0.00002297      -0.00001059       0.00002761
N        0.67598357      20.87424669       2.48130079      -0.00000212      -0.00001277       0.00000044
N       12.42583847      20.34250981       6.29209209       0.00000428       0.00002016       0.00000093
N        3.55877266      16.64806718       7.14555887      -0.00001441       0.00002351      -0.00000273
N       10.88459569       2.73456789       4.53688467      -0.00003501       0.00001023       0.00001751
N       -0.21276274      22.59366209       8.39251355      -0.00001374       0.00003354       0.00001734
N       13.31452231      18.65678859       4.95993751      -0.00002422      -0.00005990      -0.00002551
Pb      37.05606136      16.22903652       5.55201660       0.00000175       0.00000249       0.00000152
Pb      15.55605517       1.11813530       7.78663642      -0.00000198      -0.00000429       0.00000074
Pb       5.45130108      22.43203884       5.67686237      -0.00000770       0.00001062       0.00000282
Pb       7.65045994      18.81851059       7.67556538      -0.00000543      -0.00000980       0.00001101
I       35.99188458      18.28524930       7.84326656       0.00000365       0.00001119      -0.00000681
I       35.76927921      22.31798506       5.89534207       0.00000750      -0.00000122      -0.00000430
I        6.81784851       1.06071160       7.67815524       0.00000001       0.00000341      -0.00001168
I        6.68801674      16.71800986       5.40306106       0.00000128      -0.00001364      -0.00000930