320
Lattice="31.801152176814412 -0.5468112784037048 1.1517111604624475 0.36059192049544603 29.98117307155178 -3.0933744153212364 -0.5122748587133839 1.8648137531568851 17.083217280452775" Properties=species:S:1:pos:R:3:forces:R:3 energy=-984.1143208644847 stress="0.0027715690176545473 -9.210097707084901e-05 6.583234501411201e-05 -9.210097707084901e-05 0.003816823601115599 5.120446910622605e-05 6.583234501411201e-05 5.120446910622605e-05 0.0033969618285370822" free_energy=-984.1143208644847 pbc="T T T"
Cs       6.35759566       2.05168864       7.32144060       0.00001189       0.00000164      -0.00001314
Cs      10.21872915       5.15867072      11.73851405      -0.00001165      -0.00001092      -0.00001796
Cs       6.58286279       9.63608234       1.79607752       0.00000460       0.00001610      -0.00001513
Cs      10.46605266      12.73140170       6.27498355       0.00002332      -0.00002356       0.00001707
Cs      14.30819423       1.91508579       7.60916218      -0.00000633       0.00000140      -0.00000488
Cs      18.16838044       5.02165920      12.02623403      -0.00000067      -0.00000846       0.00001787
Cs      14.53333254       9.49938464       2.08403676      -0.00000011       0.00001548      -0.00002256
Cs      18.41680493      12.59473710       6.56338368      -0.00001064      -0.00000253      -0.00000234
Pb       8.87106372      15.36711131      10.25733352      -0.00001616      -0.00000145      -0.00001376
Pb      12.84608845      15.26240805      10.40709389       0.00000956      -0.00000048       0.00000066
Pb      10.47155886       7.36669204       6.83350949      -0.00001283      -0.00002135       0.00001759
Pb       6.49538361       7.41615430       6.70736110       0.00005044       0.00004767       0.00001359
Pb      16.82136880      15.23047760      10.54538782       0.00001878       0.00001986       0.00003596
Pb      20.79638804      15.12585691      10.69508740      -0.00001251      -0.00000790       0.00002145
Pb      18.42184578       7.23008024       7.12154502      -0.00004532       0.00002050      -0.00004633
Pb      14.44572133       7.27969383       6.99510476       0.00001653      -0.00001579      -0.00003066
I       10.99567185       0.98902443       5.43391198      -0.00003567       0.00001162       0.00000853
I        8.48910769       5.00768632       5.79699868       0.00000568      -0.00002808      -0.00000775
I        9.61256249       1.46126839       9.66101419       0.00006211       0.00005589       0.00000042
I        8.41701260       7.71924328       9.32699759      -0.00003632      -0.00000647       0.00000481
I       12.33674988       5.23784987       8.42816147      -0.00001749      -0.00001500       0.00001528
I        5.65155035       2.97959407      11.63154407       0.00001437       0.00003057       0.00000314
I       12.47329484       9.70864278       7.88458947      -0.00002106       0.00000794       0.00001060
I        7.01706259      13.80710986       8.12288141       0.00001010       0.00000981       0.00001471
I       12.56113707       6.98523860       4.36087973      -0.00001823       0.00000232       0.00003158
I        5.87284784      13.31624511       3.81888061       0.00000853       0.00001208      -0.00000612
I       10.77477498      12.75667829      10.59296094      -0.00002756      -0.00001618       0.00000377
I        8.53775675       9.46304122       5.23385710      -0.00001229      -0.00000685       0.00001446
I       18.94578504       0.85236066       5.72184318      -0.00000539       0.00001961       0.00000051
I       16.43943975       4.87121967       6.08468148       0.00001753       0.00001180       0.00003641
I       17.56299514       1.32462435       9.94910665      -0.00000261       0.00002926       0.00001995
I       16.36710967       7.58266292       9.61490354       0.00001652      -0.00001688       0.00000510
I       20.28686190       5.10115744       8.71622097       0.00002709      -0.00004163       0.00001880
I       13.60204183       2.84285110      11.91939391      -0.00000971       0.00001648       0.00000114
I       20.42371942       9.57187308       8.17281772      -0.00002498      -0.00002012      -0.00000773
I       14.96756897      13.67042628       8.41091010      -0.00002451      -0.00000544      -0.00003570
I       20.51141772       6.84854782       4.64895271      -0.00000281       0.00002126       0.00002456
I       13.82303979      13.17959132       4.10688677      -0.00001970       0.00000556      -0.00001924
I       18.72515909      12.62008270      10.88082514      -0.00001025       0.00001621       0.00001375
I       16.48824164       9.32662465       5.52183761       0.00000049      -0.00001015       0.00001153
Cs       6.11206135       3.45444737      15.82033741       0.00000085      -0.00000704       0.00000218
Cs      10.56286474       4.11833102       2.58830600       0.00000563       0.00000678      -0.00001262
Cs       6.40598174      10.67423882      10.93717661       0.00000652      -0.00002009      -0.00000389
Cs      10.21265809      13.21851393      14.78705950       0.00000280      -0.00002547       0.00000867
Cs      14.06219933       3.31770760      16.10826104      -0.00000061       0.00000621       0.00000816
Cs      18.51319019       3.98185599       2.87593779       0.00000175      -0.00001630      -0.00000418
Cs      14.35583523      10.53749492      11.22504816       0.00002621       0.00000362       0.00001030
Cs      18.16311419      13.08160372      15.07487620       0.00001938      -0.00000240       0.00000113
Pb       8.05590534      14.40419821       1.56248590      -0.00004263      -0.00000791       0.00002329
Pb      12.02890537      14.35453424       1.70311736       0.00002214       0.00001347      -0.00001530
Pb       8.72042882       8.31278411      15.32180891       0.00003001       0.00007262      -0.00002051
Pb       4.74464664       8.39265709      15.19377470       0.00004402      -0.00003287      -0.00004238
Pb      16.00619749      14.26728414       1.85045831       0.00003367      -0.00002014       0.00002242
Pb      19.97918796      14.21787489       1.99089810       0.00000521       0.00001994      -0.00000739
Pb      16.67068779       8.17598030      15.60952907       0.00004580       0.00003959       0.00003065
Pb      12.69489056       8.25613336      15.48183685      -0.00002970       0.00004912      -0.00002841
I        9.44213713       1.85357745      14.10496835       0.00000930      -0.00001235       0.00003306
I        6.79217264       6.73013463      13.28071512      -0.00004398      -0.00000014       0.00000215
I       11.15291292       0.34172147       1.01820621       0.00002283       0.00000451       0.00001013
I        7.23058281       5.55402928       0.57839062      -0.00004920      -0.00001243      -0.00001381
I       10.73357174       5.71481224      15.72638254      -0.00000630      -0.00001061      -0.00001795
I        7.00500342       2.00393289       2.95169372       0.00000840       0.00001629      -0.00000364
I       11.19119875       8.04154602       0.29726218       0.00001111      -0.00001532      -0.00001420
I        6.01480088      12.98232278      -0.62386171       0.00003455       0.00001905       0.00002758
I       10.89783114       9.20888966      13.00079891       0.00002312       0.00001668       0.00002075
I        6.87821212      14.40119236      12.55360906      -0.00001049      -0.00000133       0.00001628
I        9.97062201      11.82670871       1.81267475      -0.00000338       0.00000782      -0.00000309
I        6.86638668      10.91766358      14.93994861       0.00001225      -0.00002931       0.00001674
I       17.39220464       1.71662206      14.39314124      -0.00003034      -0.00001576      -0.00001164
I       14.74206183       6.59358030      13.56848095      -0.00000125      -0.00001873      -0.00003238
I       19.10343530       0.20518881       1.30614815       0.00001028      -0.00001406       0.00003371
I       15.18085566       5.41721034       0.86616580       0.00001468      -0.00001067       0.00000216
I       18.68395324       5.57797994      16.01387790      -0.00000869       0.00000838       0.00000803
I       14.95533428       1.86728543       3.23964907       0.00000470      -0.00003048      -0.00000377
I       19.14127100       7.90428901       0.58538810       0.00002514      -0.00001257      -0.00003220
I       13.96489944      12.84570949      -0.33584146      -0.00000680      -0.00000501      -0.00000796
I       18.84820692       9.07240425      13.28877436       0.00000744      -0.00000221       0.00003641
I       14.82849851      14.26445088      12.84162100       0.00000145       0.00001468      -0.00003327
I       17.92112655      11.68982294       2.10011848      -0.00004319       0.00000446       0.00001283
I       14.81682651      10.78096765      15.22789355      -0.00000380      -0.00000456       0.00000233
Cs       6.52858619      17.03333562       5.60803440       0.00001013      -0.00000083      -0.00000291
Cs      10.45293270      20.08823922      10.11759225       0.00001677      -0.00000556       0.00001385
Cs       6.85001574      24.67511117       0.32919506       0.00000443      -0.00000754       0.00001834
Cs      10.65322533      27.74030146       4.78604712      -0.00000699       0.00000938      -0.00001270
Cs      14.47903073      16.89665397       5.89605547       0.00000534       0.00001376      -0.00000091
Cs      18.40331231      19.95159017      10.40561970      -0.00000742       0.00000247       0.00001959
Cs      14.80024555      24.53852069       0.61715483       0.00001348       0.00001393      -0.00002409
Cs      18.60366810      27.60370742       5.07390350      -0.00000808      -0.00000924      -0.00000130
Pb       7.97391862      30.36428472       8.85115535      -0.00004885      -0.00003470      -0.00001235
Pb      11.94846242      30.31539098       8.99470134      -0.00000636      -0.00002199       0.00001989
Pb      10.64304919      22.36443209       5.30373756      -0.00003315      -0.00000985       0.00002158
Pb       6.66855235      22.41063950       5.14364136      -0.00000879       0.00003463      -0.00000354
Pb      15.92418135      30.22742375       9.13908083       0.00005868      -0.00004799      -0.00000248
Pb      19.89875055      30.17876271       9.28292500      -0.00002769      -0.00005565      -0.00001380
Pb      18.59327539      22.22784190       5.59170874       0.00000103       0.00001100      -0.00000971
Pb      14.61881132      22.27413232       5.43165520       0.00003938      -0.00000787      -0.00002893
I        9.90751441      15.93535379       3.71279618      -0.00000282      -0.00005017      -0.00005083
I        8.76684549      22.17188218       2.65580661      -0.00000555       0.00000567       0.00000727
I       11.04998106      16.45440778       8.00579841       0.00000269       0.00001968      -0.00001361
I        8.57541271      20.25904996       6.66941151      -0.00000120      -0.00001153      -0.00000777
I       12.59379552      19.96737383       4.30806014       0.00000433      -0.00000276       0.00001498
I        6.90426557      17.93956746       9.97195772      -0.00000983      -0.00001015       0.00001192
I       12.56490085      22.54141548       7.93594381      -0.00000157       0.00000577      -0.00001556
I        5.94116828      28.82458884       6.71624747       0.00000107       0.00002060      -0.00000051
I       12.72429939      24.45368674       3.93377669      -0.00000493       0.00002311       0.00002288
I        7.32593603      28.32031114       2.49660937       0.00003866      -0.00001086       0.00002250
I        9.88364120      27.80047429       9.23076133      -0.00000536      -0.00000721      -0.00001983
I        8.62088538      24.73809425       6.28700202       0.00004289       0.00002635      -0.00002233
I       17.85782748      15.79819757       4.00091436       0.00000188       0.00004098       0.00000787
I       16.71703735      22.03529261       2.94376789      -0.00000026      -0.00000846       0.00003047
I       19.00025030      16.31801703       8.29389476      -0.00002701      -0.00000653      -0.00002029
I       16.52565014      20.12255852       6.95750288      -0.00002288      -0.00000031      -0.00000845
I       20.54388826      19.83071488       4.59602632       0.00000500      -0.00002444      -0.00002394
I       14.85443757      17.80286183      10.25999752       0.00002549       0.00001279       0.00000362
I       20.51518804      22.40477249       8.22384741      -0.00000221       0.00001341       0.00000874
I       13.89148703      28.68800426       7.00391137      -0.00003020       0.00000961       0.00003790
I       20.67463584      24.31699370       4.22168926      -0.00002001       0.00002844      -0.00000216
I       15.27637181      28.18356379       2.78436937      -0.00000692      -0.00000635       0.00001205
I       17.83404708      27.66368963       9.51868230      -0.00001049       0.00003515      -0.00000229
I       16.57121430      24.60165150       6.57482648       0.00000488      -0.00002722      -0.00000669
Cs       6.28267605      18.42091224      14.13002450       0.00001123       0.00002623       0.00000840
Cs      10.68094339      19.15307390       0.96357214      -0.00001086      -0.00000207      -0.00001831
Cs       6.48978186      25.63058068       9.47877566      -0.00000307       0.00000809       0.00000402
Cs      10.38559446      28.22633293      13.42538804       0.00000931       0.00000031       0.00000921
Cs      14.23289563      18.28424081      14.41795722       0.00000308       0.00001132       0.00000330
Cs      18.63080942      19.01630716       1.25160633      -0.00000069       0.00000208       0.00001733
Cs      14.44026111      25.49386451       9.76670814       0.00000406       0.00000537      -0.00000335
Cs      18.33606536      28.08965828      13.71339285      -0.00000964       0.00001345      -0.00000114
Pb       9.32626923      29.42011916       0.21955911      -0.00000196      -0.00008070       0.00002372
Pb      13.30115078      29.31508424       0.36697331       0.00003419      -0.00001751       0.00000146
Pb       8.90590512      23.30781615      13.79495896      -0.00004118       0.00000271       0.00003480
Pb       4.93206733      23.38606883      13.63266470       0.00001466       0.00001272      -0.00000745
Pb      17.27659718      29.28343991       0.50733965      -0.00002542      -0.00001666      -0.00004989
Pb      21.25144596      29.17845471       0.65499016      -0.00002905      -0.00000574      -0.00002685
Pb      16.85620308      23.17117544      14.08301310      -0.00004390       0.00000158      -0.00003240
Pb      12.88239497      23.24961658      13.92031364       0.00005488       0.00000965      -0.00001064
I       10.90212771      16.73477057      12.46641318      -0.00000198       0.00000994      -0.00000258
I        7.06151033      21.93276992      11.56023353      -0.00002145      -0.00000207       0.00000728
I       10.03322968      15.43597861      -0.71434455       0.00001219      -0.00000166       0.00000680
I        7.34770744      20.30553834      -1.09719766      -0.00001834       0.00000884      -0.00000094
I       10.92868266      20.69747780      14.06162928      -0.00002788      -0.00003087       0.00001251
I        6.09309853      16.99645334       1.22620271       0.00002240      -0.00001421       0.00000275
I       11.44314153      22.81969950      -1.06046706      -0.00001106       0.00001061       0.00002383
I        7.48661910      27.99962284      -1.96942102       0.00000582       0.00001462      -0.00001884
I       11.01064702      24.46618395      11.59815412       0.00001144       0.00001916      -0.00003516
I        5.78002134      29.39068603      11.12963214      -0.00003491      -0.00000567      -0.00003137
I       11.23200729      26.81006389       0.54869788      -0.00001634       0.00003371      -0.00002744
I        7.05228099      25.92282646      13.50024800      -0.00001105       0.00000351       0.00000128
I       18.85246405      16.59807688      12.75453610       0.00000449       0.00000450      -0.00001230
I       15.01191235      21.79627824      11.84807242       0.00001858      -0.00002587      -0.00000646
I       17.98339244      15.29944602      -0.42631636      -0.00002185      -0.00002370      -0.00002039
I       15.29770053      20.16889840      -0.80936084       0.00000557      -0.00000012       0.00005631
I       18.87890869      20.56078033      14.34971523       0.00000086      -0.00003342      -0.00001604
I       14.04377303      16.85978440       1.51438949      -0.00000315      -0.00001997       0.00001423
I       19.39345047      22.68292226      -0.77239532       0.00005683       0.00000362       0.00001546
I       15.43687733      27.86310112      -1.68172041       0.00001789       0.00002001       0.00003881
I       18.96098745      24.32945843      11.88621693      -0.00000273      -0.00000719       0.00000435
I       13.73012304      29.25377076      11.41733552      -0.00000965       0.00002623      -0.00003475
I       19.18235147      26.67339052       0.83646427      -0.00000736       0.00002460      -0.00000107
I       15.00271639      25.78627196      13.78826385       0.00001058      -0.00001287      -0.00002535
Cs      22.25819202       1.77838457       7.89719539       0.00001330       0.00000859       0.00001030
Cs      26.11915817       4.88516957      12.31435531       0.00000259      -0.00000359       0.00000287
Cs      22.48307368       9.36309534       2.37203402       0.00000459      -0.00002664      -0.00000354
Cs      26.36674790      12.45791130       6.85119588       0.00000195       0.00000063       0.00000251
Cs      30.20879256       1.64163777       8.18507257      -0.00002619      -0.00000409       0.00000025
Cs       2.26785388       5.29494866      11.45044277      -0.00000815       0.00000697       0.00000073
Cs      30.43397808       9.22577209       2.65991850      -0.00000481       0.00002398      -0.00001472
Cs       2.51619350      12.86805223       5.98762787       0.00000983      -0.00002618      -0.00001496
Pb      24.77163267      15.09373384      10.83318882       0.00001234      -0.00000620       0.00001703
Pb      28.74666758      14.98906112      10.98298817      -0.00006394      -0.00001492       0.00001219
Pb      26.37212174       7.09324984       7.40945881      -0.00000964       0.00001626      -0.00003806
Pb      22.39600371       7.14288971       7.28316140       0.00003212       0.00000710      -0.00001047
Pb       0.92077286      15.50391035       9.96955057       0.00002801      -0.00000517       0.00001872
Pb       4.89576783      15.39923409      10.11916554       0.00001984      -0.00001672       0.00001529
Pb       2.52122025       7.50334834       6.54569303      -0.00003344       0.00003436       0.00004134
Pb      30.34627196       7.00614879       7.57101113      -0.00001275       0.00001169      -0.00000747
I       26.89626915       0.71561934       6.00985384      -0.00001681      -0.00001809      -0.00005061
I       24.38965551       4.73433489       6.37285042       0.00002615      -0.00000465      -0.00000281
I       25.51316707       1.18813240      10.23694591       0.00001810       0.00001953       0.00005459
I       24.31752788       7.44587564       9.90288650       0.00000341      -0.00000663      -0.00000391
I       28.23723781       4.96433522       9.00405088       0.00000206      -0.00001230       0.00001405
I       21.55213805       2.70634281      12.20773190      -0.00001776       0.00006001      -0.00001127
I       28.37391913       9.43511406       8.46063300       0.00000909      -0.00002245      -0.00001325
I       22.91760198      13.53388763       8.69865285       0.00004007      -0.00001136      -0.00001005
I       28.46165429       6.71181757       4.93679495       0.00000256      -0.00001373       0.00004604
I       21.77337678      13.04275175       4.39457730       0.00001921       0.00002352       0.00001105
I       26.67536533      12.48329374      11.16863916       0.00000089      -0.00001371       0.00001034
I       24.43846808       9.18967060       5.80964200      -0.00002799      -0.00000495       0.00002624
I        3.04525675       1.12574517       5.14587069      -0.00003306       0.00002018       0.00002540
I       32.33998291       4.59769526       6.66048768       0.00002333       0.00002773       0.00002207
I        1.66242286       1.59777785       9.37314506       0.00002211       0.00001623       0.00003384
I       32.26766357       7.30903463      10.19081043       0.00001538      -0.00001857      -0.00002585
I        4.38625301       5.37437504       8.14034037       0.00000195       0.00002116      -0.00000391
I       29.50276451       2.56938085      12.49521142      -0.00002914       0.00000851       0.00000776
I        4.52308062       9.84512914       7.59706032      -0.00003752      -0.00004504      -0.00003156
I       30.86807838      13.39709464       8.98675134      -0.00000030      -0.00001960      -0.00003326
I        4.61079943       7.12196540       4.07312292       0.00002168      -0.00000730      -0.00002828
I       29.72350253      12.90583244       4.68277522       0.00000876      -0.00000050       0.00000546
I        2.82450637      12.89345664      10.30504895      -0.00000718       0.00004454       0.00000461
I       32.38876966       9.05313353       6.09782017      -0.00000740      -0.00002870       0.00000616
Cs      22.01282312       3.18134938      16.39636639       0.00000120      -0.00001751      -0.00000872
Cs      26.46338360       3.84497416       3.16411950       0.00002325       0.00001067      -0.00000122
Cs      22.30644953      10.40075183      11.51317555       0.00000746      -0.00000703      -0.00002320
Cs      26.11344476      12.94487022      15.36278902      -0.00001551       0.00000343      -0.00000784
Cs      29.96284723       3.04434127      16.68414743      -0.00001140       0.00000713      -0.00000848
Cs       2.61287413       4.25507002       2.30018305      -0.00003580      -0.00002176      -0.00001161
Cs      30.25670999      10.26409754      11.80086961       0.00000493       0.00000794       0.00002586
Cs       2.26253990      13.35507879      14.49912827       0.00000402      -0.00000978      -0.00001415
Pb      23.95649449      14.13084938       2.13830378      -0.00000086       0.00002786      -0.00000281
Pb      27.92946204      14.08096211       2.27902932       0.00002166       0.00003329      -0.00001357
Pb      24.62102046       8.03955797      15.89768277       0.00006625      -0.00000032      -0.00002345
Pb      20.64521196       8.11937464      15.76971810      -0.00006680       0.00002766      -0.00000550
Pb       0.10560160      14.54033995       1.27475128       0.00002648      -0.00001140      -0.00004133
Pb       4.07862343      14.49097100       1.41504715      -0.00000572      -0.00001196      -0.00000155
Pb       0.77016527       8.44939606      15.03363503       0.00000445      -0.00002533       0.00000524
Pb      28.59550988       7.98271350      16.05768829      -0.00002553      -0.00000966      -0.00000185
I       25.34278093       1.58001872      14.68098650      -0.00001974      -0.00001696      -0.00001818
I       22.69265405       6.45718399      13.85642374      -0.00000063      -0.00002946      -0.00002266
I       27.05355248       0.06842676       1.59412494       0.00000320       0.00000059       0.00001997
I       23.13116340       5.28050659       1.15414890      -0.00002424      -0.00000491       0.00001549
I       26.63406409       5.44144144      16.30215140      -0.00000390       0.00003109      -0.00002746
I       22.90565591       1.73062583       3.52779121       0.00000910      -0.00001335      -0.00000768
I       27.09186552       7.76807340       0.87318628      -0.00000313      -0.00003086       0.00000998
I       21.91529561      12.70949035      -0.04826310       0.00002545      -0.00002210       0.00002573
I       26.79850148       8.93571047      13.57672716       0.00000346      -0.00001440       0.00003732
I       22.77884209      14.12757450      13.12940366      -0.00001239       0.00003783       0.00001020
I       25.87105586      11.55322311       2.38795169       0.00000775       0.00000619       0.00005589
I       22.76696587      10.64443273      15.51610849      -0.00000892       0.00000622      -0.00000802
I        1.49164932       1.99005341      13.81716548      -0.00001214      -0.00003945      -0.00000477
I       30.64265218       6.32011054      14.14437127       0.00002963      -0.00000224      -0.00002293
I        3.20276479       0.47831175       0.73019998       0.00001469       0.00001507       0.00001421
I       31.08157338       5.14385313       1.44204117      -0.00001599      -0.00000791      -0.00001392
I        2.78327405       5.85133624      15.43815688       0.00001617       0.00000385      -0.00001974
I       30.85600828       1.59380604       3.81537341      -0.00001684       0.00000900       0.00001979
I        3.24088455       8.17778489       0.00930206      -0.00000782       0.00004223       0.00004969
I       29.86549840      12.57219926       0.24003331      -0.00002452       0.00000645       0.00000207
I        2.94771224       9.34555970      12.71277503       0.00001002       0.00000021       0.00002445
I       30.72908439      13.99105910      13.41749495      -0.00002171      -0.00000647       0.00000207
I        2.02053110      11.96293379       1.52452318      -0.00000108       0.00000977       0.00002316
I       30.71740234      10.50755074      15.80371180       0.00001639       0.00000728       0.00000309
Cs      22.42919566      16.76000489       6.18379389       0.00000049      -0.00000109       0.00000070
Cs      26.35358339      19.81478371      10.69345853      -0.00000926      -0.00002395      -0.00000753
Cs      22.75075929      24.40189714       0.90517121      -0.00001401      -0.00001531      -0.00000421
Cs      26.55381558      27.46700642       5.36198413      -0.00000147       0.00000675      -0.00001505
Cs      30.37961232      16.62320325       6.47181810      -0.00000959      -0.00001094      -0.00000535
Cs       2.50262109      20.22515646       9.82995307       0.00000057      -0.00001212       0.00000109
Cs      30.70085882      24.26512742       1.19312919      -0.00001427      -0.00000512      -0.00000120
Cs       2.70316634      27.87699675       4.49792266      -0.00001159      -0.00001785       0.00000569
Pb      23.87447131      30.09099651       9.42701092       0.00006918      -0.00005793      -0.00001290
Pb      27.84906918      30.04200144       9.57056219      -0.00003862      -0.00000141      -0.00003360
Pb      26.54356704      22.09106449       5.87967862       0.00000293      -0.00003061      -0.00002635
Pb      22.56907278      22.13737547       5.71953870       0.00000086      -0.00004015       0.00000193
Pb       0.02363718      30.50068942       8.56319565       0.00004841       0.00001154       0.00003192
Pb       3.99818101      30.45205332       8.70701179      -0.00001357      -0.00005498       0.00002412
Pb       2.69273422      22.50108196       5.01586337       0.00000747       0.00002039      -0.00000950
Pb      30.51937283      22.00070540       6.00759948       0.00001630      -0.00000879      -0.00000815
I       25.80813468      15.66157386       4.28887796       0.00002204      -0.00002014      -0.00003788
I       24.66737397      21.89842066       3.23172652       0.00000234       0.00002093      -0.00000553
I       26.95057883      16.18116899       8.58173555       0.00002809       0.00000715      -0.00000091
I       24.47587490      19.98576313       7.24539677      -0.00000024       0.00000821      -0.00000891
I       28.49431643      19.69396832       4.88403551       0.00000020       0.00000521       0.00001364
I       22.80487112      17.66623976      10.54810945      -0.00002579       0.00001427       0.00000104
I       28.46541575      22.26807703       8.51187851       0.00002809       0.00000754       0.00000055
I       21.84175877      28.55149219       7.29200293      -0.00001652      -0.00000897      -0.00000393
I       28.62487390      24.18030491       4.50975275      -0.00000265       0.00001740      -0.00000228
I       23.22659249      28.04685862       3.07246842      -0.00000524       0.00000012       0.00001067
I       25.78421659      27.52712221       9.80626919      -0.00001378       0.00003044       0.00002299
I       24.52147832      24.46480866       6.86277930       0.00001825       0.00003412       0.00000981
I        1.95731161      16.07142456       3.42503342       0.00001515       0.00005223       0.00002614
I       32.61754560      21.76175793       3.51970092       0.00000367       0.00000879       0.00001053
I        3.09960271      16.59134486       7.71798035      -0.00000880      -0.00000302      -0.00000829
I       32.42618493      19.84908058       7.53341594      -0.00000042      -0.00000102       0.00001021
I        4.64338007      20.10397795       4.02005950      -0.00003168      -0.00000968      -0.00000744
I       30.75502144      17.52948851      10.83598985       0.00002111       0.00005223      -0.00000966
I        4.61468528      22.67797862       7.64797512      -0.00000011       0.00000540       0.00000443
I       29.79205072      28.41454486       7.57977946      -0.00001509      -0.00001056       0.00002675
I        4.77405649      24.59026926       3.64583854      -0.00000146      -0.00001679       0.00000825
I       31.17690835      27.91016076       3.36029096       0.00001557      -0.00001558       0.00001610
I        1.93354059      27.93697163       8.94304797      -0.00004531       0.00001537      -0.00001295
I       32.47191693      24.32812371       7.15074834      -0.00000215      -0.00000641      -0.00001113