320
Lattice="35.58980721765938 -0.4139999258817448 0.06794718978873533 0.24175287894487119 20.768570404563846 -0.0752358207143762 -0.035801292044594694 0.06987139671015888 19.170779705499477" Properties=species:S:1:pos:R:3:forces:R:3 energy=-995.7548348133363 stress="2.1403056380089628e-08 9.08700470086698e-09 -3.221981337833203e-08 9.08700470086698e-09 -1.6982700728759316e-08 2.5596845635079004e-08 -3.221981337833203e-08 2.5596845635079004e-08 -4.667689362586849e-08" free_energy=-995.7548348133363 pbc="T T T"
Cs       3.26467345       5.40234369       4.01053327      -0.00000589      -0.00000641      -0.00000289
Cs       9.48506618      13.97476554       1.59452028       0.00000905       0.00001702       0.00000071
Cs       0.54286265      10.62684312       3.98642234       0.00000278      -0.00000501      -0.00000082
Cs      12.20686709       8.75032263       1.61862707       0.00000156      -0.00001221       0.00000995
Cs       3.25570900       5.41978306       8.80323897       0.00000009       0.00000820       0.00000304
Cs       9.47610249      13.99229818       6.38718290       0.00001775      -0.00002426       0.00001850
Cs       0.53394617      10.64429357       8.77912039      -0.00001231       0.00001469      -0.00000983
Cs      12.19790301       8.76778471       6.41134694       0.00001804      -0.00002851      -0.00001662
Pb      34.11419785       5.84030121       1.67013904       0.00001277       0.00000440       0.00000756
Pb      14.22536824      13.12280604       4.00286617      -0.00000717       0.00000861      -0.00000000
Pb       5.31082791      11.36817753       1.59621144       0.00000234       0.00001755       0.00001178
Pb       7.43892082       8.00892105       4.00882677      -0.00001231       0.00000198       0.00000068
Pb      34.10525588       5.85778592       6.46282443       0.00000616      -0.00002710       0.00000682
Pb      14.21638018      13.14034645       8.79556156       0.00000484      -0.00001141      -0.00001319
Pb       5.30188447      11.38565885       6.38891147      -0.00000169      -0.00001049       0.00000298
Pb       7.42999109       8.02638286       8.80152786      -0.00002237       0.00001158      -0.00000286
I       33.00371125       7.71629652       4.05762123      -0.00002312      -0.00000597      -0.00000906
I       33.13074472      11.03985716       1.64931818       0.00001630       0.00001939       0.00001240
I        6.45554771      13.21792451       3.98800663       0.00000437      -0.00000260      -0.00000491
I        6.29420246       6.15917795       1.61703728      -0.00000794       0.00001437       0.00000567
I       13.20149777       4.76575355       1.63506111      -0.00000798       0.00000018      -0.00000552
I       35.13806138      14.19739166       4.03797815      -0.00000577      -0.00000174       0.00000831
I        8.39796929      10.01447205       1.60693096       0.00001259      -0.00000257      -0.00001172
I        4.35178471       9.36264116       3.99812344      -0.00001354       0.00000844      -0.00000270
I        1.27960657       7.67394645       1.60217222       0.00001200       0.00000268      -0.00000391
I       11.47013714      11.70319275       4.00290670      -0.00000483      -0.00001279      -0.00001075
I        2.58940942      12.85153719       1.58575194       0.00000437       0.00001995      -0.00000658
I       10.16034233       6.52557784       4.01928868       0.00000517      -0.00000241       0.00001107
I       32.99472854       7.73372781       8.85031049       0.00000379      -0.00000198      -0.00000672
I       33.12181946      11.05734325       6.44209931      -0.00000544       0.00000125      -0.00002244
I        6.44660597      13.23539355       8.78069168      -0.00000015      -0.00001167       0.00000784
I        6.28522035       6.17667460       6.40974687       0.00001260      -0.00000764      -0.00000368
I       13.19255163       4.78321718       6.42766290       0.00000095       0.00001740       0.00002255
I       35.12910204      14.21486379       8.83067718      -0.00000229      -0.00000448       0.00000428
I        8.38903099      10.03193086       6.39961267      -0.00001895       0.00000914       0.00000169
I        4.34284494       9.38010153       8.79082539      -0.00000471       0.00000352      -0.00000432
I        1.27067584       7.69140629       6.39487211      -0.00000347       0.00001794      -0.00001302
I       11.46116588      11.72069793       8.79556680       0.00000158      -0.00002268       0.00000409
I        2.58046174      12.86901684       6.37841838       0.00001343       0.00000382       0.00001768
I       10.15140720       6.54301986       8.81201923      -0.00000262      -0.00000006      -0.00000616
Cs       3.24677280       5.43727939      13.59592312      -0.00000589      -0.00000641      -0.00000289
Cs       9.46716553      14.00970124      11.17991013       0.00000905       0.00001702       0.00000071
Cs       0.52496200      10.66177882      13.57181219       0.00000278      -0.00000501      -0.00000082
Cs      12.18896644       8.78525833      11.20401692       0.00000157      -0.00001222       0.00000995
Cs       3.23780835       5.45471876      18.38862882       0.00000009       0.00000819       0.00000304
Cs       9.45820184      14.02723388      15.97257275       0.00001775      -0.00002426       0.00001851
Cs       0.51604552      10.67922927      18.36451024      -0.00001231       0.00001469      -0.00000982
Cs      12.18000236       8.80272041      15.99673679       0.00001804      -0.00002851      -0.00001661
Pb      34.09629720       5.87523691      11.25552889       0.00001278       0.00000440       0.00000757
Pb      14.20746759      13.15774174      13.58825602      -0.00000717       0.00000861       0.00000001
Pb       5.29292726      11.40311323      11.18160129       0.00000235       0.00001755       0.00001179
Pb       7.42102017       8.04385675      13.59421662      -0.00001231       0.00000198       0.00000069
Pb      34.08735523       5.89272162      16.04821428       0.00000616      -0.00002710       0.00000682
Pb      14.19847953      13.17528215      18.38095141       0.00000484      -0.00001141      -0.00001318
Pb       5.28398382      11.42059455      15.97430132      -0.00000169      -0.00001049       0.00000298
Pb       7.41209044       8.06131856      18.38691771      -0.00002237       0.00001158      -0.00000285
I       32.98581060       7.75123222      13.64301108      -0.00002312      -0.00000597      -0.00000906
I       33.11284407      11.07479286      11.23470803       0.00001629       0.00001939       0.00001241
I        6.43764706      13.25286021      13.57339648       0.00000437      -0.00000260      -0.00000491
I        6.27630181       6.19411365      11.20242713      -0.00000794       0.00001436       0.00000567
I       13.18359712       4.80068925      11.22045096      -0.00000798       0.00000018      -0.00000552
I       35.12016073      14.23232736      13.62336800      -0.00000576      -0.00000176       0.00000831
I        8.38006864      10.04940775      11.19232081       0.00001259      -0.00000257      -0.00001171
I        4.33388406       9.39757686      13.58351329      -0.00001354       0.00000844      -0.00000270
I        1.26170592       7.70888215      11.18756207       0.00001200       0.00000267      -0.00000390
I       11.45223649      11.73812845      13.58829655      -0.00000483      -0.00001279      -0.00001075
I        2.57150877      12.88647289      11.17114179       0.00000437       0.00001995      -0.00000657
I       10.14244168       6.56051354      13.60467853       0.00000517      -0.00000241       0.00001107
I       32.97682789       7.76866351      18.43570034       0.00000380      -0.00000199      -0.00000671
I       33.10391881      11.09227895      16.02748916      -0.00000544       0.00000125      -0.00002243
I        6.42870532      13.27032925      18.36608153      -0.00000015      -0.00001168       0.00000784
I        6.26731970       6.21161030      15.99513672       0.00001260      -0.00000764      -0.00000368
I       13.17465098       4.81815288      16.01305275       0.00000095       0.00001740       0.00002256
I       35.11120139      14.24979949      18.41606703      -0.00000228      -0.00000448       0.00000430
I        8.37113034      10.06686656      15.98500252      -0.00001895       0.00000914       0.00000169
I        4.32494429       9.41503723      18.37621524      -0.00000471       0.00000352      -0.00000431
I        1.25277519       7.72634199      15.98026196      -0.00000347       0.00001794      -0.00001302
I       11.44326523      11.75563363      18.38095665       0.00000158      -0.00002269       0.00000409
I        2.56256109      12.90395254      15.96380823       0.00001343       0.00000382       0.00001768
I       10.13350655       6.57795556      18.39740908      -0.00000262      -0.00000006      -0.00000615
Cs       3.38554989      15.78662889       3.97291536      -0.00000589      -0.00000641      -0.00000289
Cs       9.36418974       3.59048034       1.63213819       0.00000905       0.00001702       0.00000071
Cs       0.42198621       0.24255792       4.02404025       0.00000279      -0.00000501      -0.00000082
Cs      12.32774353      19.13460783       1.58100916       0.00000156      -0.00001221       0.00000995
Cs       3.37658544      15.80406826       8.76562106       0.00000009       0.00000819       0.00000304
Cs       9.35522605       3.60801298       6.42480081       0.00001775      -0.00002426       0.00001850
Cs       0.41306973       0.26000837       8.81673830      -0.00001231       0.00001469      -0.00000983
Cs      12.31877945      19.15206991       6.37372903       0.00001804      -0.00002851      -0.00001662
Pb      34.23507429      16.22458642       1.63252113       0.00001278       0.00000438       0.00000757
Pb      14.10449180       2.73852084       4.04048408      -0.00000716       0.00000858       0.00000001
Pb       5.18995147       0.98389233       1.63382935       0.00000235       0.00001754       0.00001178
Pb       7.55979726      18.39320625       3.97120886      -0.00001231       0.00000198       0.00000068
Pb      34.22613232      16.24207113       6.42520652       0.00000616      -0.00002712       0.00000682
Pb      14.09550374       2.75606125       8.83317947       0.00000485      -0.00001142      -0.00001318
Pb       5.18100803       1.00137365       6.42652938      -0.00000169      -0.00001050       0.00000298
Pb       7.55086753      18.41066806       8.76390995      -0.00002237       0.00001159      -0.00000286
I       33.12458769      18.10058173       4.02000332      -0.00002312      -0.00000598      -0.00000906
I       33.00986828       0.65557196       1.68693609       0.00001630       0.00001937       0.00001240
I        6.33467127       2.83363931       4.02562454       0.00000436      -0.00000261      -0.00000491
I        6.41507890      16.54346315       1.57941937      -0.00000794       0.00001437       0.00000567
I       13.32237421      15.15003875       1.59744320      -0.00000798       0.00000019      -0.00000553
I       35.01718494       3.81310646       4.07559606      -0.00000577      -0.00000176       0.00000831
I        8.51884573      20.39875725       1.56931305       0.00001258      -0.00000257      -0.00001172
I        4.47266115      19.74692636       3.96050553      -0.00001354       0.00000845      -0.00000270
I        1.40048301      18.05823165       1.56455431       0.00001200       0.00000269      -0.00000391
I       11.34926070       1.31890755       4.04052461      -0.00000483      -0.00001279      -0.00001075
I        2.46853298       2.46725199       1.62336985       0.00000437       0.00001994      -0.00000658
I       10.28121877      16.90986304       3.98167077       0.00000517      -0.00000241       0.00001107
I       33.11560498      18.11801302       8.81269258       0.00000380      -0.00000199      -0.00000672
I       33.00094302       0.67305805       6.47971722      -0.00000543       0.00000124      -0.00002243
I        6.32572953       2.85110835       8.81830959      -0.00000015      -0.00001167       0.00000784
I        6.40609679      16.56095980       6.37212896       0.00001260      -0.00000764      -0.00000368
I       13.31342807      15.16750238       6.39004499       0.00000094       0.00001740       0.00002255
I       35.00822560       3.83057859       8.86829509      -0.00000229      -0.00000450       0.00000429
I        8.50990743      20.41621606       6.36199476      -0.00001896       0.00000914       0.00000169
I        4.46372138      19.76438673       8.75320748      -0.00000471       0.00000353      -0.00000432
I        1.39155228      18.07569149       6.35725420      -0.00000347       0.00001795      -0.00001302
I       11.34028944       1.33641273       8.83318471       0.00000158      -0.00002268       0.00000409
I        2.45958530       2.48473164       6.41603629       0.00001343       0.00000381       0.00001768
I       10.27228364      16.92730506       8.77440132      -0.00000262      -0.00000006      -0.00000616
Cs       3.36764924      15.82156459      13.55830521      -0.00000589      -0.00000641      -0.00000289
Cs       9.34628909       3.62541604      11.21752804       0.00000905       0.00001702       0.00000071
Cs       0.40408556       0.27749362      13.60943010       0.00000279      -0.00000502      -0.00000082
Cs      12.30984288      19.16954353      11.16639901       0.00000157      -0.00001221       0.00000995
Cs       3.35868479      15.83900396      18.35101091       0.00000009       0.00000819       0.00000304
Cs       9.33732540       3.64294868      16.01019066       0.00001775      -0.00002426       0.00001851
Cs       0.39516908       0.29494407      18.40212815      -0.00001231       0.00001469      -0.00000982
Cs      12.30087880      19.18700561      15.95911888       0.00001804      -0.00002851      -0.00001661
Pb      34.21717364      16.25952211      11.21791098       0.00001278       0.00000440       0.00000756
Pb      14.08659115       2.77345654      13.62587393      -0.00000716       0.00000859       0.00000001
Pb       5.17205082       1.01882803      11.21921920       0.00000235       0.00001754       0.00001179
Pb       7.54189661      18.42814195      13.55659871      -0.00001231       0.00000198       0.00000069
Pb      34.20823167      16.27700682      16.01059637       0.00000617      -0.00002710       0.00000682
Pb      14.07760309       2.79099695      18.41856932       0.00000485      -0.00001143      -0.00001317
Pb       5.16310738       1.03630935      16.01191923      -0.00000169      -0.00001050       0.00000298
Pb       7.53296688      18.44560376      18.34929980      -0.00002237       0.00001158      -0.00000285
I       33.10668704      18.13551742      13.60539317      -0.00002313      -0.00000596      -0.00000906
I       32.99196763       0.69050766      11.27232594       0.00001630       0.00001937       0.00001242
I        6.31677062       2.86857501      13.61101439       0.00000437      -0.00000261      -0.00000491
I        6.39717825      16.57839885      11.16480922      -0.00000794       0.00001436       0.00000567
I       13.30447356      15.18497445      11.18283305      -0.00000798       0.00000018      -0.00000552
I       34.99928429       3.84804216      13.66098591      -0.00000577      -0.00000177       0.00000831
I        8.50094508      20.43369295      11.15470290       0.00001259      -0.00000256      -0.00001171
I        4.45476050      19.78186206      13.54589538      -0.00001354       0.00000845      -0.00000270
I        1.38258236      18.09316735      11.14994416       0.00001200       0.00000268      -0.00000391
I       11.33136005       1.35384325      13.62591446      -0.00000483      -0.00001279      -0.00001075
I        2.45063233       2.50218769      11.20875970       0.00000437       0.00001994      -0.00000657
I       10.26331812      16.94479874      13.56706062       0.00000517      -0.00000241       0.00001107
I       33.09770433      18.15294871      18.39808243       0.00000380      -0.00000198      -0.00000671
I       32.98304237       0.70799375      16.06510707      -0.00000543       0.00000123      -0.00002243
I        6.30782888       2.88604405      18.40369944      -0.00000015      -0.00001168       0.00000784
I        6.38819614      16.59589550      15.95751881       0.00001260      -0.00000764      -0.00000368
I       13.29552742      15.20243808      15.97543484       0.00000094       0.00001740       0.00002255
I       34.99032495       3.86551429      18.45368494      -0.00000228      -0.00000450       0.00000429
I        8.49200678      20.45115176      15.94738461      -0.00001896       0.00000914       0.00000169
I        4.44582073      19.79932243      18.33859733      -0.00000471       0.00000353      -0.00000432
I        1.37365163      18.11062719      15.94264405      -0.00000347       0.00001794      -0.00001302
I       11.32238879       1.37134843      18.41857456       0.00000158      -0.00002269       0.00000409
I        2.44168465       2.51966734      16.00142614       0.00001343       0.00000381       0.00001768
I       10.25438299      16.96224076      18.35979117      -0.00000262      -0.00000006      -0.00000616
Cs      21.05957706       5.19534373       4.04450686      -0.00000589      -0.00000642      -0.00000289
Cs      27.27996979      13.76776558       1.62849387       0.00000905       0.00001702       0.00000072
Cs      18.33776626      10.41984316       4.02039593       0.00000278      -0.00000501      -0.00000082
Cs      30.00177070       8.54332267       1.65260066       0.00000157      -0.00001222       0.00000995
Cs      21.05061261       5.21278310       8.83721256       0.00000009       0.00000819       0.00000305
Cs      27.27100610      13.78529822       6.42115649       0.00001775      -0.00002426       0.00001851
Cs      18.32884978      10.43729361       8.81309398      -0.00001231       0.00001469      -0.00000982
Cs      29.99280662       8.56078475       6.44532053       0.00001804      -0.00002851      -0.00001661
Pb      16.31929424       6.04730118       1.63616544       0.00001278       0.00000438       0.00000758
Pb      32.02027185      12.91580608       4.03683976      -0.00000716       0.00000859       0.00000001
Pb      23.10573152      11.16117757       1.63018503       0.00000235       0.00001755       0.00001180
Pb      25.23382443       7.80192109       4.04280036      -0.00001230       0.00000197       0.00000068
Pb      16.31035227       6.06478589       6.42885083       0.00000617      -0.00002712       0.00000683
Pb      32.01128379      12.93334649       8.82953515       0.00000484      -0.00001142      -0.00001317
Pb      23.09678808      11.17865889       6.42288506      -0.00000169      -0.00001049       0.00000298
Pb      25.22489470       7.81938290       8.83550145      -0.00002237       0.00001158      -0.00000284
I       15.20880764       7.92329649       4.02364763      -0.00002312      -0.00000597      -0.00000905
I       15.33584111      11.24685713       1.61534458       0.00001630       0.00001937       0.00001241
I       24.25045132      13.01092455       4.02198022       0.00000437      -0.00000260      -0.00000491
I       24.08910607       5.95217799       1.65101087      -0.00000794       0.00001435       0.00000568
I       30.99640138       4.55875359       1.66903470      -0.00000798       0.00000016      -0.00000551
I       17.34315777      14.40439163       4.00400455      -0.00000577      -0.00000176       0.00000831
I       26.19287290       9.80747209       1.64090455       0.00001259      -0.00000256      -0.00001170
I       22.14668832       9.15564120       4.03209703      -0.00001355       0.00000844      -0.00000269
I       19.07451018       7.46694649       1.63614581       0.00001199       0.00000267      -0.00000390
I       29.26504075      11.49619279       4.03688029      -0.00000483      -0.00001279      -0.00001075
I       20.38431303      12.64453723       1.61972553       0.00000436       0.00001995      -0.00000657
I       27.95524594       6.31857788       4.05326227       0.00000517      -0.00000242       0.00001108
I       15.19982493       7.94072778       8.81633689       0.00000380      -0.00000199      -0.00000670
I       15.32691585      11.26434322       6.40812571      -0.00000543       0.00000123      -0.00002242
I       24.24150958      13.02839359       8.81466527      -0.00000016      -0.00001168       0.00000785
I       24.08012396       5.96967464       6.44372046       0.00001260      -0.00000764      -0.00000367
I       30.98745524       4.57621722       6.46163649       0.00000095       0.00001738       0.00002256
I       17.33419843      14.42186376       8.79670358      -0.00000229      -0.00000449       0.00000430
I       26.18393460       9.82493090       6.43358626      -0.00001895       0.00000914       0.00000169
I       22.13774855       9.17310157       8.82479898      -0.00000471       0.00000353      -0.00000431
I       19.06557945       7.48440633       6.42884570      -0.00000347       0.00001794      -0.00001302
I       29.25606949      11.51369797       8.82954039       0.00000158      -0.00002268       0.00000409
I       20.37536535      12.66201688       6.41239197       0.00001343       0.00000382       0.00001768
I       27.94631081       6.33601990       8.84599282      -0.00000262      -0.00000007      -0.00000615
Cs      21.04167641       5.23027943      13.62989672      -0.00000589      -0.00000642      -0.00000289
Cs      27.26206914      13.80270128      11.21388373       0.00000905       0.00001702       0.00000071
Cs      18.31986561      10.45477886      13.60578579       0.00000279      -0.00000501      -0.00000082
Cs      29.98387005       8.57825837      11.23799052       0.00000156      -0.00001222       0.00000994
Cs      21.03271196       5.24771880      18.42260242       0.00000009       0.00000818       0.00000303
Cs      27.25310545      13.82023392      16.00654635       0.00001775      -0.00002426       0.00001850
Cs      18.31094913      10.47222931      18.39848384      -0.00001231       0.00001469      -0.00000983
Cs      29.97490597       8.59572045      16.03071039       0.00001804      -0.00002851      -0.00001662
Pb      16.30139359       6.08223688      11.22155530       0.00001279       0.00000438       0.00000756
Pb      32.00237120      12.95074178      13.62222962      -0.00000717       0.00000858      -0.00000001
Pb      23.08783087      11.19611327      11.21557489       0.00000235       0.00001755       0.00001178
Pb      25.21592378       7.83685679      13.62819022      -0.00001230       0.00000197       0.00000068
Pb      16.29245162       6.09972159      16.01424069       0.00000617      -0.00002712       0.00000681
Pb      31.99338314      12.96828219      18.41492501       0.00000485      -0.00001143      -0.00001319
Pb      23.07888743      11.21359459      16.00827492      -0.00000169      -0.00001049       0.00000298
Pb      25.20699405       7.85431860      18.42089131      -0.00002236       0.00001158      -0.00000287
I       15.19090699       7.95823219      13.60903749      -0.00002312      -0.00000597      -0.00000906
I       15.31794046      11.28179283      11.20073444       0.00001631       0.00001936       0.00001240
I       24.23255067      13.04586025      13.60737008       0.00000436      -0.00000261      -0.00000491
I       24.07120542       5.98711369      11.23640073      -0.00000793       0.00001436       0.00000566
I       30.97850073       4.59368929      11.25442456      -0.00000798       0.00000016      -0.00000553
I       17.32525712      14.43932733      13.58939441      -0.00000577      -0.00000176       0.00000831
I       26.17497225       9.84240779      11.22629441       0.00001259      -0.00000257      -0.00001172
I       22.12878767       9.19057690      13.61748689      -0.00001355       0.00000844      -0.00000270
I       19.05660953       7.50188219      11.22153567       0.00001200       0.00000267      -0.00000391
I       29.24714010      11.53112849      13.62227015      -0.00000483      -0.00001279      -0.00001075
I       20.36641238      12.67947293      11.20511539       0.00000437       0.00001995      -0.00000658
I       27.93734529       6.35351358      13.63865213       0.00000517      -0.00000242       0.00001107
I       15.18192428       7.97566348      18.40172675       0.00000380      -0.00000199      -0.00000672
I       15.30901520      11.29927892      15.99351557      -0.00000543       0.00000123      -0.00002244
I       24.22360893      13.06332929      18.40005513      -0.00000015      -0.00001167       0.00000783
I       24.06222331       6.00461034      16.02911032       0.00001260      -0.00000764      -0.00000368
I       30.96955459       4.61115292      16.04702635       0.00000095       0.00001737       0.00002255
I       17.31629778      14.45679946      18.38209344      -0.00000228      -0.00000450       0.00000428
I       26.16603395       9.85986660      16.01897612      -0.00001895       0.00000914       0.00000169
I       22.11984790       9.20803727      18.41018884      -0.00000471       0.00000352      -0.00000432
I       19.04767880       7.51934203      16.01423556      -0.00000348       0.00001794      -0.00001302
I       29.23816884      11.54863367      18.41493025       0.00000158      -0.00002268       0.00000408
I       20.35746470      12.69695258      15.99778183       0.00001343       0.00000382       0.00001768
I       27.92841016       6.37095560      18.43138268      -0.00000262      -0.00000007      -0.00000616
Cs      21.18045350      15.57962893       4.00688895      -0.00000589      -0.00000641      -0.00000289
Cs      27.15909335       3.38348037       1.66611179       0.00000905       0.00001703       0.00000071
Cs      18.21688982       0.03555795       4.05801385       0.00000278      -0.00000500      -0.00000083
Cs      30.12264714      18.92760787       1.61498275       0.00000156      -0.00001222       0.00000995
Cs      21.17148905      15.59706830       8.79959465       0.00000009       0.00000819       0.00000304
Cs      27.15012966       3.40101301       6.45877441       0.00001775      -0.00002425       0.00001850
Cs      18.20797334       0.05300840       8.85071190      -0.00001231       0.00001470      -0.00000983
Cs      30.11368306      18.94506995       6.40770262       0.00001804      -0.00002851      -0.00001661
Pb      16.44017068      16.43158638       1.59854753       0.00001277       0.00000440       0.00000758
Pb      31.89939541       2.53152087       4.07445768      -0.00000717       0.00000862      -0.00000001
Pb      22.98485508       0.77689236       1.66780295       0.00000234       0.00001757       0.00001178
Pb      25.35470087      18.18620629       4.00518245      -0.00001231       0.00000197       0.00000068
Pb      16.43122871      16.44907109       6.39123292       0.00000616      -0.00002710       0.00000682
Pb      31.89040735       2.54906128       8.86715307       0.00000483      -0.00001138      -0.00001319
Pb      22.97591164       0.79437368       6.46050298      -0.00000169      -0.00001048       0.00000297
Pb      25.34577114      18.20366810       8.79788354      -0.00002237       0.00001158      -0.00000284
I       15.32968408      18.30758169       3.98602972      -0.00002313      -0.00000597      -0.00000905
I       15.21496467       0.86257192       1.65296250       0.00001629       0.00001940       0.00001239
I       24.12957488       2.62663934       4.05959814       0.00000437      -0.00000259      -0.00000491
I       24.20998251      16.33646319       1.61339296      -0.00000794       0.00001436       0.00000568
I       31.11727782      14.94303879       1.63141679      -0.00000798       0.00000018      -0.00000552
I       17.22228133       4.02010642       4.04162247      -0.00000577      -0.00000174       0.00000830
I       26.31374934      20.19175729       1.60328664       0.00001259      -0.00000257      -0.00001170
I       22.26756476      19.53992640       3.99447912      -0.00001355       0.00000843      -0.00000268
I       19.19538662      17.85123169       1.59852790       0.00001200       0.00000267      -0.00000390
I       29.14416431       1.11190758       4.07449821      -0.00000483      -0.00001278      -0.00001075
I       20.26343659       2.26025202       1.65734345       0.00000437       0.00001995      -0.00000658
I       28.07612238      16.70286308       4.01564436       0.00000517      -0.00000241       0.00001107
I       15.32070137      18.32501298       8.77871898       0.00000380      -0.00000199      -0.00000670
I       15.20603941       0.88005801       6.44574363      -0.00000544       0.00000125      -0.00002244
I       24.12063314       2.64410838       8.85228319      -0.00000015      -0.00001166       0.00000783
I       24.20100040      16.35395984       6.40610255       0.00001260      -0.00000763      -0.00000368
I       31.10833168      14.96050242       6.42401858       0.00000094       0.00001740       0.00002255
I       17.21332199       4.03757855       8.83432150      -0.00000229      -0.00000447       0.00000429
I       26.30481104      20.20921610       6.39596835      -0.00001895       0.00000913       0.00000170
I       22.25862499      19.55738677       8.78718107      -0.00000472       0.00000351      -0.00000431
I       19.18645589      17.86869153       6.39122779      -0.00000347       0.00001794      -0.00001302
I       29.13519305       1.12941276       8.86715831       0.00000158      -0.00002268       0.00000408
I       20.25448891       2.27773167       6.45000989       0.00001343       0.00000382       0.00001767
I       28.06718725      16.72030510       8.80837491      -0.00000262      -0.00000006      -0.00000615