768
Lattice="39.53992396630654 -0.19618913249635872 0.25293795356352633 0.29954919847998923 23.344561730216466 -0.09824499533453598 -0.0578937830636773 -0.13948570676524066 18.484753814738525" Properties=species:S:1:pos:R:3:forces:R:3 energy=-3662.9594377347057 stress="0.0032145042900637256 0.00018770376467359848 -0.00019481303850863165 0.00018770376467359848 0.002258366231767435 -0.0002815953209899404 -0.00019481303850863165 -0.0002815953209899404 0.0027520408464899713" free_energy=-3662.9594377347057 pbc="T T T"
H        4.20068095       3.07040870       2.76989161       0.00000370      -0.00001094       0.00000534
H        8.71121143      14.67179848       0.80130718      -0.00002806       0.00002828       0.00001953
H       38.29183295       8.75223433       3.20396052      -0.00001195       0.00000543       0.00001662
H       14.09445510       8.80762718       0.43247887      -0.00001076      -0.00000433       0.00000930
H        2.33532366       2.33336299       8.62026033      -0.00000224      -0.00000396      -0.00001456
H        8.80580735      12.54697095       1.73801916       0.00001102      -0.00000171       0.00001661
H       40.13353113       8.00737886       6.61431388      -0.00000309       0.00000277      -0.00000074
H       14.00259078       6.70075734      -0.53807867      -0.00001690       0.00000785       0.00000564
H        2.49529254       5.41825721       2.01672807       0.00002055      -0.00000707      -0.00000764
H       10.37382279      12.19091285       1.02002580      -0.00002530       0.00001229      -0.00000953
H       41.06344267       9.44652393       7.01294696      -0.00000388      -0.00000463      -0.00000257
H       12.42115852       6.34077702       0.14717878      -0.00003205      -0.00000875       0.00000153
H        1.44197415       3.83172629       3.64240124      -0.00001028       0.00000999      -0.00000771
H       11.30321777      13.91121009      -0.48024531      -0.00003813       0.00001362       0.00002027
H       40.01803296      11.06275234       4.02255225      -0.00000167      -0.00000405       0.00001522
H       11.48038613       8.04488489       1.66871914       0.00000773      -0.00001801       0.00000350
H        2.34985247       2.36814259       3.99909447      -0.00000981       0.00001063      -0.00000764
H       10.42105530      15.43280832      -0.60446775      -0.00000503      -0.00001278       0.00001895
H       38.33545180      10.73123691       4.41421122      -0.00002134      -0.00000092       0.00001853
H       13.98809759       6.66585506       4.08293852       0.00000023       0.00001793       0.00001572
C        3.30351179       3.69828899       2.79898138      -0.00001639      -0.00001569       0.00002887
C        9.57014129      14.02578321       0.59258340       0.00003633      -0.00000861      -0.00000699
C       39.19812942       9.36752714       3.19898745       0.00002788      -0.00001890      -0.00002190
C       13.22876264       8.16380828       0.61992039       0.00000620       0.00001208       0.00000198
N        3.32174913       4.82272280       2.11763590      -0.00000385       0.00004232      -0.00004571
N        9.59679654      12.83810654       1.15707026       0.00002351      -0.00002228       0.00000499
N       40.20356772       8.90225885       7.11463049      -0.00001116       0.00000445       0.00001889
N       13.20466475       6.98512177       0.03740900       0.00004307       0.00000412      -0.00002250
N        2.28889273       3.27168422       3.51386399       0.00002227      -0.00001219      -0.00000999
N       10.50137517      14.49040019      -0.20636651       0.00001257      -0.00000698      -0.00004508
N       39.18451531      10.48071773       3.89766603       0.00002087       0.00002031      -0.00002092
N       12.28826053       8.62256980       1.41155557      -0.00001062       0.00004457       0.00000607
Pb      37.12507573       4.70035635       0.78199335      -0.00000483       0.00000161      -0.00000825
Pb      15.26218089      12.86026017       3.13225706      -0.00000533       0.00000074      -0.00000363
Pb       5.39388308      10.70003819       0.58580080      -0.00000131      -0.00000524      -0.00000759
Pb       7.53551733       7.05638936       2.70580053       0.00001150       0.00000134      -0.00000776
I       36.13606739       6.74113486       3.10392722      -0.00000678       0.00000424       0.00000161
I       36.00364264      10.71232374       0.92889060      -0.00001758       0.00000435      -0.00000005
I        6.43805064      12.70775521       2.90701991      -0.00000414       0.00000755      -0.00000925
I        6.50341911       5.04029000       0.39291404       0.00001290       0.00000301       0.00001551
I       14.27713452       3.38261623       0.84973403       0.00000152       0.00000173      -0.00000065
I       38.10835027      14.17373715       3.05808344       0.00000736      -0.00000535      -0.00000670
I        8.44058638       9.22304416       0.44476056      -0.00000104      -0.00000052       0.00000379
I        4.49097945       8.52933891       2.85275204       0.00000654      -0.00000229      -0.00000235
I        0.45691082       6.15230298       0.25648252      -0.00000695       0.00000060      -0.00001066
I       12.39461906      11.59582112       3.38337743       0.00000389      -0.00000464      -0.00000919
I        2.54571082      11.99464573       0.84934048      -0.00000078       0.00000233       0.00000963
I       10.37886953       5.75262192       2.46699069      -0.00000506      -0.00000308      -0.00000920
H        4.18622633       3.03557352       7.39114368      -0.00000059      -0.00000779       0.00001615
H        8.69666789      14.63682968       5.42287576      -0.00002475       0.00001612      -0.00000585
H       38.27733959       8.71731154       7.82520556       0.00001774       0.00000344      -0.00000475
H       14.08005598       8.77269782       5.05354441      -0.00000447      -0.00000916       0.00001201
H        4.16571085       5.07215376       1.59308210      -0.00000625      -0.00000468       0.00000595
H        8.79139780      12.51189241       6.35932530       0.00001677       0.00001095      -0.00002395
H       40.14808385       8.04223452       1.99321732      -0.00000032       0.00002446      -0.00000644
H       12.36080152       9.52181981       6.44988573       0.00001653      -0.00000309       0.00001300
H        1.42743744       3.79689438       8.26339162      -0.00001142       0.00001712       0.00000690
H       10.35928957      12.15590167       5.64101965       0.00000130       0.00000594       0.00000901
H       41.07802383       9.48134201       2.39191616      -0.00002644      -0.00000765      -0.00000206
H       11.46598622       8.01002021       6.28981940       0.00000635       0.00000015      -0.00000394
H        2.48084270       5.38332145       6.63764526       0.00001948      -0.00000695       0.00001259
H       11.28848220      13.87637436       4.14086417       0.00000903      -0.00000422      -0.00001258
H       40.00353952      11.02785613       8.64371970       0.00002008       0.00001693       0.00000265
H       12.40664789       6.30592969       4.76818517      -0.00002731      -0.00002866       0.00000377
H        4.15130860       5.03722047       6.21417306      -0.00002548      -0.00001200       0.00000978
H       10.40630327      15.39798263       4.01691338       0.00000219      -0.00000817      -0.00001742
H       38.32099060      10.69629598       9.03547400      -0.00000922       0.00001002       0.00000003
H       12.37515255       9.55671538       1.82877937       0.00001520      -0.00002377      -0.00000995
C        3.28904205       3.66343782       7.42011813       0.00003480       0.00003171      -0.00002010
C        9.55556042      13.99083255       5.21394518       0.00005241      -0.00002001       0.00000199
C       39.18362072       9.33262775       7.82017007      -0.00000324       0.00002303       0.00001677
C       13.21434057       8.12890811       5.24098086       0.00000343       0.00002944      -0.00000403
N        2.27438160       3.23686954       8.13496277      -0.00000572      -0.00003592       0.00001368
N        9.58230429      12.80309453       5.77829841      -0.00000120      -0.00000174       0.00000601
N       40.21811830       8.93711545       2.49353444      -0.00000764      -0.00000502      -0.00000611
N       12.27386736       8.58768887       6.03263956       0.00000217      -0.00002088      -0.00001354
N        3.30730649       4.78781303       6.73867550       0.00000722       0.00001759      -0.00000468
N       10.48666938      14.45553166       4.41489662      -0.00002160      -0.00001725       0.00004101
N       39.17002694      10.44580853       8.51886718       0.00000986      -0.00005719      -0.00001771
N       13.19018566       6.95023974       4.65843524       0.00001625       0.00000654       0.00000669
Pb      37.11056182       4.66546709       5.40319403       0.00001242       0.00000297      -0.00000145
Pb      15.24773386      12.82534772       7.75344878       0.00000238      -0.00000404       0.00000084
Pb       5.37945099      10.66515079       5.20698965      -0.00000250      -0.00000872      -0.00000264
Pb       7.52107756       7.02153257       7.32700965       0.00000273      -0.00000439      -0.00000556
I       36.12154395       6.70625887       7.72512237       0.00000610       0.00000039       0.00000924
I       35.98914632      10.67745136       5.55002643      -0.00000787       0.00001006       0.00001568
I        6.42356798      12.67288615       7.52822269       0.00000640       0.00000425       0.00000477
I        6.48903722       5.00540679       5.01412296      -0.00001404       0.00000031       0.00000041
I       14.26265656       3.34774774       5.47095500      -0.00000314      -0.00000647      -0.00000438
I       38.09392009      14.13887262       7.67925524      -0.00000260      -0.00000446      -0.00000160
I        8.42613751       9.18814360       5.06593219      -0.00000460       0.00000618      -0.00000292
I        4.47653997       8.49446257       7.47391930      -0.00000080      -0.00000919       0.00000617
I        0.44244068       6.11738893       4.87765018      -0.00001291      -0.00000229      -0.00000315
I       12.38023174      11.56085123       8.00458227       0.00001200       0.00000263      -0.00000450
I        2.53126362      11.95971716       5.47055711      -0.00001458      -0.00000178      -0.00000254
I       10.36445512       5.71779437       7.08817356      -0.00001755      -0.00000603       0.00000755
H        4.17173406       3.00066585      12.01226852       0.00000370      -0.00001095       0.00000534
H        8.68226454      14.60205563      10.04368409      -0.00002808       0.00002827       0.00001954
H       38.26288605       8.68249147      12.44633743      -0.00001192       0.00000540       0.00001659
H       14.06550821       8.73788433       9.67485578      -0.00001076      -0.00000433       0.00000930
H        2.30637677       2.26362014      17.86263724      -0.00000225      -0.00000396      -0.00001457
H        8.77686046      12.47722810      10.98039607       0.00001102      -0.00000171       0.00001660
H       40.10458424       7.93763601      15.85669079      -0.00000306       0.00000277      -0.00000076
H       13.97364389       6.63101449       8.70429824      -0.00001690       0.00000784       0.00000564
H        2.46634565       5.34851436      11.25910498       0.00002055      -0.00000707      -0.00000764
H       10.34487590      12.12117000      10.26240271      -0.00002530       0.00001229      -0.00000952
H       41.03449578       9.37678108      16.25532387      -0.00000392      -0.00000461      -0.00000255
H       12.39221163       6.27103417       9.38955569      -0.00003209      -0.00000875       0.00000156
H        1.41302726       3.76198344      12.88477815      -0.00001028       0.00000999      -0.00000771
H       11.27427088      13.84146724       8.76213160      -0.00003812       0.00001364       0.00002026
H       39.98908607      10.99300949      13.26492916      -0.00000210      -0.00000437       0.00001516
H       11.45143924       7.97514204      10.91109605       0.00000773      -0.00001801       0.00000350
H        2.32090558       2.29839974      13.24147138      -0.00000981       0.00001063      -0.00000765
H       10.39210841      15.36306547       8.63790916      -0.00000504      -0.00001278       0.00001895
H       38.30650490      10.66149405      13.65658813      -0.00002134      -0.00000090       0.00001854
H       13.95915070       6.59611221      13.32531543       0.00000023       0.00001793       0.00001572
C        3.27456490       3.62854614      12.04135829      -0.00001639      -0.00001569       0.00002887
C        9.54119440      13.95604036       9.83496031       0.00003617      -0.00000863      -0.00000685
C       39.16918252       9.29778428      12.44136436       0.00002817      -0.00001881      -0.00002198
C       13.19981575       8.09406543       9.86229730       0.00000615       0.00001227       0.00000212
N        3.29280224       4.75297995      11.36001281      -0.00000385       0.00004232      -0.00004571
N        9.56784965      12.76836369      10.39944717       0.00002352      -0.00002229       0.00000498
N       40.17462083       8.83251600      16.35700740      -0.00001141       0.00000437       0.00001897
N       13.17571786       6.91537892       9.27978591       0.00004317       0.00000390      -0.00002268
N        2.25994584       3.20194137      12.75624090       0.00002227      -0.00001219      -0.00000999
N       10.47242828      14.42065734       9.03601040       0.00001274      -0.00000695      -0.00004521
N       39.15556841      10.41097487      13.14004294       0.00002125       0.00002061      -0.00002085
N       12.25931364       8.55282695      10.65393248      -0.00001062       0.00004462       0.00000609
Pb      37.09612883       4.63061349      10.02437026      -0.00000480       0.00000163      -0.00000827
Pb      15.23323400      12.79051732      12.37463397      -0.00000533       0.00000073      -0.00000365
Pb       5.36493619      10.63029534       9.82817771      -0.00000131      -0.00000524      -0.00000759
Pb       7.50657044       6.98664651      11.94817744       0.00001150       0.00000134      -0.00000776
I       36.10712049       6.67139200      12.34630413      -0.00000677       0.00000424       0.00000161
I       35.97469574      10.64258088      10.17126751      -0.00001756       0.00000436      -0.00000006
I        6.40910375      12.63801236      12.14939682      -0.00000414       0.00000755      -0.00000925
I        6.47447222       4.97054715       9.63529095       0.00001290       0.00000301       0.00001551
I       14.24818763       3.31287338      10.09211094       0.00000152       0.00000172      -0.00000066
I       38.07940337      14.10399429      12.30046035       0.00000737      -0.00000534      -0.00000671
I        8.41163949       9.15330131       9.68713747      -0.00000104      -0.00000053       0.00000378
I        4.46203256       8.45959606      12.09512895       0.00000654      -0.00000229      -0.00000235
I        0.42796393       6.08256013       9.49885943      -0.00000697       0.00000059      -0.00001067
I       12.36567217      11.52607827      12.62575434       0.00000389      -0.00000464      -0.00000919
I        2.51676393      11.92490288      10.09171739      -0.00000078       0.00000233       0.00000963
I       10.34992264       5.68287907      11.70936760      -0.00000506      -0.00000308      -0.00000920
H        4.15727944       2.96583067      16.63352059      -0.00000059      -0.00000779       0.00001615
H        8.66772100      14.56708683      14.66525267      -0.00002475       0.00001612      -0.00000585
H       38.24839269       8.64756868      17.06758247       0.00001777       0.00000341      -0.00000477
H       14.05110909       8.70295497      14.29592132      -0.00000447      -0.00000916       0.00001201
H        4.13676396       5.00241091      10.83545901      -0.00000625      -0.00000468       0.00000595
H        8.76245091      12.44214956      15.60170221       0.00001677       0.00001095      -0.00002395
H       40.11913696       7.97249167      11.23559423      -0.00000029       0.00002446      -0.00000645
H       12.33185463       9.45207696      15.69226264       0.00001653      -0.00000309       0.00001300
H        1.39849055       3.72715153      17.50576853      -0.00001142       0.00001712       0.00000690
H       10.33034268      12.08615882      14.88339656       0.00000129       0.00000594       0.00000901
H       41.04907694       9.41159916      11.63429307      -0.00002647      -0.00000762      -0.00000204
H       11.43703933       7.94027736      15.53219631       0.00000635       0.00000015      -0.00000394
H        2.45189581       5.31357860      15.88002217       0.00001948      -0.00000695       0.00001258
H       11.25953531      13.80663151      13.38324108       0.00000903      -0.00000422      -0.00001259
H       39.97459263      10.95811328      17.88609661       0.00001964       0.00001661       0.00000258
H       12.37770100       6.23618684      14.01056208      -0.00002731      -0.00002866       0.00000377
H        4.12236171       4.96747762      15.45654997      -0.00002548      -0.00001200       0.00000978
H       10.37735638      15.32823978      13.25929029       0.00000219      -0.00000817      -0.00001743
H       38.29204370      10.62655312      18.27785091      -0.00000922       0.00001003       0.00000004
H       12.34620566       9.48697253      11.07115628       0.00001519      -0.00002377      -0.00000995
C        3.26009516       3.59369497      16.66249504       0.00003480       0.00003171      -0.00002011
C        9.52661353      13.92108970      14.45632209       0.00005242      -0.00002001       0.00000199
C       39.15467382       9.26288489      17.06254698      -0.00000295       0.00002313       0.00001669
C       13.18539368       8.05916526      14.48335777       0.00000343       0.00002944      -0.00000403
N        2.24543471       3.16712669      17.37733968      -0.00000573      -0.00003593       0.00001368
N        9.55335740      12.73335168      15.02067532      -0.00000120      -0.00000174       0.00000601
N       40.18917141       8.86737260      11.73591135      -0.00000790      -0.00000509      -0.00000604
N       12.24492047       8.51794602      15.27501647       0.00000217      -0.00002088      -0.00001354
N        3.27835960       4.71807018      15.98105241       0.00000722       0.00001759      -0.00000467
N       10.45772249      14.38578881      13.65727353      -0.00002160      -0.00001726       0.00004102
N       39.14108004      10.37606567      17.76124409       0.00001026      -0.00005691      -0.00001765
N       13.16123877       6.88049689      13.90081215       0.00001626       0.00000654       0.00000669
Pb      37.08161492       4.59572423      14.64557094       0.00001246       0.00000299      -0.00000146
Pb      15.21878697      12.75560487      16.99582569       0.00000238      -0.00000405       0.00000084
Pb       5.35050410      10.59540794      14.44936656      -0.00000249      -0.00000872      -0.00000265
Pb       7.49213067       6.95178972      16.56938656       0.00000273      -0.00000440      -0.00000556
I       36.09259705       6.63651601      16.96749928       0.00000610       0.00000040       0.00000924
I       35.96019942      10.60770850      14.79240334      -0.00000787       0.00001007       0.00001566
I        6.39462109      12.60314330      16.77059960       0.00000640       0.00000425       0.00000477
I        6.46009033       4.93566394      14.25649987      -0.00001404       0.00000031       0.00000041
I       14.23370967       3.27800489      14.71333191      -0.00000314      -0.00000647      -0.00000438
I       38.06497319      14.06912976      16.92163215      -0.00000259      -0.00000444      -0.00000161
I        8.39719062       9.11840075      14.30830910      -0.00000460       0.00000618      -0.00000292
I        4.44759308       8.42471972      16.71629621      -0.00000081      -0.00000920       0.00000616
I        0.41349379       6.04764608      14.12002709      -0.00001294      -0.00000230      -0.00000315
I       12.35128485      11.49110838      17.24695918       0.00001201       0.00000262      -0.00000450
I        2.50231673      11.88997431      14.71293402      -0.00001459      -0.00000179      -0.00000254
I       10.33550823       5.64805152      16.33055047      -0.00001756      -0.00000603       0.00000755
H        4.35045555      14.74268957       2.72076911       0.00000370      -0.00001095       0.00000534
H        8.56143683       2.99951761       0.85042968      -0.00002807       0.00002827       0.00001953
H       38.44160755      20.42451519       3.15483803      -0.00001193       0.00000541       0.00001662
H       14.24422970      20.47990805       0.38335637      -0.00001076      -0.00000434       0.00000930
H        2.48509826      14.00564386       8.57113783      -0.00000224      -0.00000396      -0.00001457
H        8.65603275       0.87469008       1.78714166       0.00001102      -0.00000171       0.00001661
H       40.28330573      19.67965973       6.56519138      -0.00000308       0.00000277      -0.00000075
H       14.15236538      18.37303821      -0.58720116      -0.00001690       0.00000784       0.00000563
H        2.64506714      17.09053808       1.96760557       0.00002055      -0.00000707      -0.00000764
H       10.22404819       0.51863198       1.06914830      -0.00002530       0.00001229      -0.00000952
H       41.21321727      21.11880480       6.96382446      -0.00000390      -0.00000462      -0.00000257
H       12.57093312      18.01305789       0.09805628      -0.00003210      -0.00000876       0.00000156
H        1.59174875      15.50400716       3.59327874      -0.00001028       0.00000999      -0.00000771
H       11.15344317       2.23892923      -0.43112281      -0.00003813       0.00001364       0.00002027
H       40.16780756      22.73503321       3.97342975      -0.00000181      -0.00000417       0.00001521
H       11.63016073      19.71716576       1.61959664       0.00000773      -0.00001801       0.00000350
H        2.49962707      14.04042346       3.94997197      -0.00000981       0.00001063      -0.00000765
H       10.27128070       3.76052746      -0.55534525      -0.00000506      -0.00001278       0.00001897
H       38.48522640      22.40351777       4.36508873      -0.00002134      -0.00000091       0.00001854
H       14.13787219      18.33813593       4.03381602       0.00000023       0.00001792       0.00001572
C        3.45328639      15.37056986       2.74985888      -0.00001639      -0.00001569       0.00002887
C        9.42036669       2.35350234       0.64170590       0.00003641      -0.00000846      -0.00000708
C       39.34790402      21.03980800       3.14986496       0.00002799      -0.00001883      -0.00002199
C       13.37853724      19.83608915       0.57079789       0.00000616       0.00001224       0.00000213
N        3.47152373      16.49500367       2.06851340      -0.00000385       0.00004232      -0.00004571
N        9.44702194       1.16582567       1.20619276       0.00002355      -0.00002225       0.00000494
N       40.35334232      20.57453972       7.06550799      -0.00001127       0.00000440       0.00001896
N       13.35443935      18.65740264      -0.01171349       0.00004317       0.00000394      -0.00002269
N        2.43866733      14.94396509       3.46474149       0.00002227      -0.00001219      -0.00000999
N       10.35160057       2.81811933      -0.15724401       0.00001249      -0.00000716      -0.00004496
N       39.33428991      22.15299859       3.84854354       0.00002099       0.00002041      -0.00002090
N       12.43803513      20.29485067       1.36243307      -0.00001063       0.00004461       0.00000608
Pb      37.27485033      16.37263721       0.73287086      -0.00000484       0.00000163      -0.00000827
Pb      15.11240629       1.18797930       3.18137956      -0.00000534       0.00000077      -0.00000364
Pb       5.54365768      22.37231906       0.53667830      -0.00000131      -0.00000526      -0.00000759
Pb       7.68529193      18.72867023       2.65667803       0.00001150       0.00000134      -0.00000776
I       36.28584199      18.41341572       3.05480473      -0.00000678       0.00000424       0.00000161
I       36.15341724      22.38460460       0.87976811      -0.00001758       0.00000437      -0.00000007
I        6.28827604       1.03547434       2.95614241      -0.00000413       0.00000757      -0.00000926
I        6.65319371      16.71257087       0.34379154       0.00001290       0.00000300       0.00001551
I       14.42690912      15.05489710       0.80061153       0.00000152       0.00000173      -0.00000065
I       37.95857567       2.50145628       3.10720594       0.00000736      -0.00000534      -0.00000671
I        8.59036098      20.89532503       0.39563806      -0.00000104      -0.00000053       0.00000379
I        4.64075405      20.20161978       2.80362954       0.00000654      -0.00000230      -0.00000235
I        0.60668542      17.82458385       0.20736002      -0.00000695       0.00000059      -0.00001066
I       12.24484446      -0.07645975       3.43249993       0.00000389      -0.00000464      -0.00000919
I        2.39593622       0.32236486       0.89846298      -0.00000078       0.00000235       0.00000962
I       10.52864413      17.42490279       2.41786819      -0.00000506      -0.00000308      -0.00000920
H        4.33600093      14.70785439       7.34202118      -0.00000059      -0.00000779       0.00001615
H        8.54689329       2.96454881       5.47199826      -0.00002475       0.00001612      -0.00000585
H       38.42711419      20.38959240       7.77608307       0.00001776       0.00000342      -0.00000474
H       14.22983058      20.44497869       5.00442191      -0.00000447      -0.00000916       0.00001201
H        4.31548545      16.74443463       1.54395960      -0.00000625      -0.00000468       0.00000595
H        8.64162320       0.83961154       6.40844780       0.00001677       0.00001095      -0.00002395
H       40.29785845      19.71451539       1.94409482      -0.00000031       0.00002446      -0.00000644
H       12.51057612      21.19410068       6.40076323       0.00001653      -0.00000309       0.00001300
H        1.57721204      15.46917525       8.21426912      -0.00001142       0.00001712       0.00000690
H       10.20951497       0.48362080       5.69014215       0.00000129       0.00000594       0.00000901
H       41.22779843      21.15362288       2.34279366      -0.00002645      -0.00000763      -0.00000206
H       11.61576082      19.68230108       6.24069690       0.00000635       0.00000015      -0.00000394
H        2.63061730      17.05560232       6.58852276       0.00001948      -0.00000695       0.00001258
H       11.13870760       2.20409349       4.18998667       0.00000903      -0.00000422      -0.00001258
H       40.15331412      22.70013700       8.59459720       0.00001993       0.00001681       0.00000263
H       12.55642249      17.97821056       4.71906267      -0.00002731      -0.00002866       0.00000377
H        4.30108320      16.70950134       6.16505056      -0.00002548      -0.00001200       0.00000978
H       10.25652867       3.72570176       4.06603588       0.00000219      -0.00000817      -0.00001742
H       38.47076520      22.36857684       8.98635151      -0.00000922       0.00001002       0.00000004
H       12.52492715      21.22899625       1.77965687       0.00001519      -0.00002377      -0.00000995
C        3.43881665      15.33571869       7.37099563       0.00003480       0.00003171      -0.00002010
C        9.40578582       2.31855168       5.26306768       0.00005241      -0.00002001       0.00000199
C       39.33339532      21.00490861       7.77104758      -0.00000314       0.00002310       0.00001668
C       13.36411517      19.80118898       5.19185836       0.00000343       0.00002944      -0.00000403
N        2.42415620      14.90915041       8.08584027      -0.00000572      -0.00003593       0.00001368
N        9.43252969       1.13081366       5.82742091      -0.00000120      -0.00000173       0.00000601
N       40.36789290      20.60939632       2.44441194      -0.00000775      -0.00000506      -0.00000605
N       12.42364196      20.25996974       5.98351706       0.00000217      -0.00002089      -0.00001354
N        3.45708109      16.46009390       6.68955300       0.00000722       0.00001759      -0.00000467
N       10.33689478       2.78325079       4.46401912      -0.00002160      -0.00001725       0.00004101
N       39.31980154      22.11808939       8.46974469       0.00000999      -0.00005710      -0.00001769
N       13.33996026      18.62252061       4.60931274       0.00001625       0.00000654       0.00000669
Pb      37.26033642      16.33774795       5.35407154       0.00001243       0.00000298      -0.00000147
Pb      15.09795926       1.15306685       7.80257128       0.00000237      -0.00000401       0.00000085
Pb       5.52922559      22.33743166       5.15786715      -0.00000250      -0.00000874      -0.00000264
Pb       7.67085216      18.69381344       7.27788715       0.00000272      -0.00000440      -0.00000556
I       36.27131855      18.37853973       7.67599988       0.00000609       0.00000040       0.00000923
I       36.13892092      22.34973222       5.50090394      -0.00000788       0.00001007       0.00001565
I        6.27379338       1.00060528       7.57734519       0.00000640       0.00000426       0.00000477
I        6.63881182      16.67768766       4.96500046      -0.00001404       0.00000031       0.00000041