96
Lattice="12.624575902187516 0.014047750947646001 -0.07956622410856676 -0.04942977756404169 12.665777900939284 -0.04278153287237765 0.009687508001585044 0.022093736275309077 12.771129752496618" Properties=species:S:1:pos:R:3:forces:R:3 energy=-457.2535043817035 stress="0.0006327897424421164 0.0009605426116882336 -0.00014762215674261848 0.0009605426116882336 0.001045931495375202 -5.087121276259624e-05 -0.00014762215674261848 -5.087121276259624e-05 0.0005784333936212344" free_energy=-457.2535043817035 pbc="T T T"
H        6.96658477       8.47180828       0.42790349       0.00001140      -0.00000002       0.00001578
H        8.01080215       1.11698025       0.44560312       0.00000997       0.00001731       0.00003167
H        8.12978516       3.30543732       6.82294190      -0.00001019      -0.00001410       0.00001827
H        9.13604197       8.60430006       6.80391773       0.00001450       0.00000958       0.00000351
H        7.39974761      10.21492245       1.89196069       0.00000402      -0.00002454      -0.00000936
H        6.01916599       2.30871109       0.58178671      -0.00000538      -0.00000909      -0.00000836
H        0.05628460       9.18618652       8.30834524      -0.00002049       0.00001944       0.00000185
H        7.95771569      10.60374790       6.93647975       0.00000239       0.00001695      -0.00001158
H        2.84220878       0.68407615       1.95979741       0.00004066      -0.00000133       0.00001666
H        0.22961077       9.59645002       1.95205145      -0.00001298       0.00000555       0.00001048
H        0.93831993       7.89887454       9.13034432      -0.00000044       0.00002856      -0.00003318
H        6.99424428      10.06756826       8.29098223       0.00001653       0.00001002      -0.00001050
H        2.40394425       3.00154775       2.77781810      -0.00000641       0.00000101      -0.00000915
H        2.55524759       9.16582156       2.74921536      -0.00000817       0.00001312       0.00002473
H        3.26032446       7.47919724       8.30864437       0.00001083       0.00000277       0.00001480
H        0.70673828       3.72773663       8.35200364      -0.00001336      -0.00001208       0.00001662
H        8.16591726       6.48287099       0.54660422       0.00000263      -0.00001079      -0.00001004
H        3.42609314       7.87841192       1.91563866      -0.00000585       0.00001062      -0.00000615
H        6.39324467       2.86035592       8.28991929      -0.00002345       0.00002163      -0.00000369
H        1.67041132       4.26376686       6.99760066      -0.00000502       0.00002622      -0.00001463
C        7.74603400       8.35930746       1.18804159      -0.00000629      -0.00001484      -0.00001404
C        1.56413999       8.22010563       1.22665534       0.00003346       0.00000906       0.00002757
C        1.91215175       8.85218086       7.60062099       0.00001065      -0.00000260      -0.00004074
C        2.07268854       2.38066090       7.62844335       0.00002639       0.00002499      -0.00003141
N        2.08745644       0.86790543       1.29987512      -0.00002027       0.00001984      -0.00002863
N        0.41072568       8.84428147       1.28832306      -0.00003167      -0.00000044      -0.00003819
N        0.89115913       8.60213451       8.38593609      -0.00001454      -0.00004458       0.00007476
N        7.74397291       9.87851012       7.62677403       0.00000041      -0.00002257       0.00003071
N        1.69986997       3.04278225       2.03382204       0.00000010       0.00005565       0.00004685
N        2.59317366       8.46389394       2.00334125       0.00000339      -0.00004160      -0.00002824
N        7.22812300       2.27632031       8.36758327       0.00001188      -0.00003554       0.00000467
N        1.45653671       3.53857720       7.68790391       0.00000869      -0.00002500       0.00000217
Pb       4.88638451      -0.99197667      11.03103122       0.00000769      -0.00000824      -0.00001004
Pb      -1.41306903      -1.01391760      11.07096419      -0.00000739       0.00000115      -0.00000213
Pb       4.95220981       5.42942833       4.62322840       0.00000429      -0.00000069       0.00000418
Pb       4.99030697      -0.91985010       4.64648044       0.00000513      -0.00001149      -0.00000080
I        8.06398983      -0.38519089      10.72546352       0.00000595       0.00000129       0.00000841
I        1.70747252      11.15727152      11.23273152      -0.00001048      -0.00000490       0.00001243
I        1.80886097      -1.52051985       4.38458364      -0.00000705       0.00000363      -0.00000445
I        8.12133404      -0.41196917       4.84856058       0.00000440       0.00000867       0.00000143
I        5.45390101       8.52062739      10.71927170       0.00000140      -0.00000472       0.00000790
I        4.36957728       2.16411259      -1.53803726      -0.00000686       0.00000525       0.00000560
I        4.38068032       2.23194400       4.37705776       0.00000188      -0.00000263      -0.00000757
I        5.43973293       8.56962419       4.82613720       0.00000033       0.00000570       0.00000295
I        5.15326968      11.52884577       1.40559638      -0.00001145      -0.00000457      -0.00000501
I       -1.56281972      -0.71714178       1.48740471       0.00000873      -0.00000072       0.00000240
I       -1.19517557      -1.21874639       7.87374977      -0.00001266       0.00000079       0.00001229
I        4.66373400      -0.78555399       7.83408429      -0.00000297       0.00000259      -0.00000079
H        0.67897061       2.13181461       0.48910638       0.00002386      -0.00001469       0.00001050
H        1.67391665       7.44275395       0.46406608      -0.00000708      -0.00000850       0.00000427
H        1.79285020       9.63150895       6.84148757      -0.00001403      -0.00001334      -0.00001148
H        2.84857852       2.26421571       6.86524499      -0.00000878       0.00000390       0.00001382
H        1.87831703       0.14288294       0.60774433       0.00000092       0.00002343       0.00001284
H       -0.31778445       8.63441260       0.60003768       0.00002190      -0.00000119       0.00002146
H       10.12659709       2.12088945       6.93634077       0.00002392      -0.00000185      -0.00001172
H        2.40366107       0.51888407       8.32212227       0.00002405      -0.00003379      -0.00000929
H        8.69150794       9.34154664       2.71665037       0.00002460      -0.00000165       0.00002338
H        6.56667682       3.27060185       1.93386600      -0.00002174       0.00004797       0.00002395
H        9.59730163       1.15342197       8.29049028      -0.00000545       0.00001996      -0.00002156
H        1.12248761       1.39952271       9.15523147       0.00003465       0.00001207      -0.00002258
H        9.12977441       7.02408347       1.89867908      -0.00000640       0.00000208      -0.00002412
H        8.89233030       2.83982386       2.73084296       0.00000318       0.00000974       0.00002335
H        7.27529451       1.57316428       9.11208644      -0.00000809       0.00001022       0.00000342
H        7.41030593       7.73941058       9.09409243       0.00004747      -0.00001274      -0.00006160
H        1.11216216       3.87491671       1.95315106       0.00000823      -0.00001601       0.00000635
H        9.76307892       1.55243851       1.89712985       0.00002746      -0.00002506      -0.00000084
H        3.78963348       8.44689690       6.95467527       0.00003905       0.00000208      -0.00000415
H        8.69146771       6.85889634       8.26082933      -0.00001120      -0.00001040      -0.00000965
C        1.45844126       2.01930817       1.24922195      -0.00004350      -0.00003628      -0.00006621
C        7.90110336       1.89427312       1.20826558      -0.00004141      -0.00002141      -0.00004229
C        8.24910258       2.52624099       7.58220989       0.00002251       0.00002924      -0.00003294
C        8.36023247       8.72065679       7.56721087       0.00000507       0.00001448      -0.00000446
N        7.98745223       9.38278657       1.97263965      -0.00004397       0.00003607      -0.00001355
N        6.74772067       2.51849809       1.27004705       0.00005817      -0.00006492      -0.00003915
N        9.40546907       1.90642406       7.63080704      -0.00001625      -0.00000804       0.00003912
N        1.82298892       1.35525615       8.40800487      -0.00004994       0.00002587       0.00002899
N        8.37504476       7.20790374       1.23872592       0.00002150      -0.00000627       0.00002562
N        8.93018766       2.13794641       1.98491996      -0.00003522       0.00002417      -0.00000178
N        3.06850999       8.23234103       7.64911795      -0.00002110       0.00000474       0.00000893
N        8.11072236       7.69521354       8.34678313      -0.00006117      -0.00000707       0.00006635
Pb      -1.45062250       5.33384079      11.04943055      -0.00000234      -0.00000081      -0.00000124
Pb       4.87450861       5.32606669      11.00977845       0.00000303      -0.00000776       0.00000694
Pb      -1.33536170      -0.91054713       4.68442990      -0.00000143       0.00000011      -0.00000661
Pb      -1.34669263       5.40595298       4.66486569       0.00000017       0.00000625      -0.00000078
I        1.72697745       5.94064853      10.74385671      -0.00000387      -0.00000034      -0.00000192
I        8.04446549       4.83142377      11.21439628       0.00000291       0.00000369       0.00000038
I        8.09642491       4.81934690       4.32337109       0.00000304       0.00000360       0.00000585
I        1.78432886       5.91390698       4.86691266       0.00000655       0.00000387       0.00001440
I       -0.83376810       2.18065888      10.78050199       0.00000135      -0.00001170       0.00000608
I       -1.96746338       8.48992446      -1.51966436      -0.00000720      -0.00000003      -0.00000702
I       -1.95632585       8.55775229       4.39541003       0.00000676       0.00000491      -0.00000751
I       -0.84787583       2.22965884       4.88737442       0.00000334      -0.00000186       0.00000451
I       11.49025526       5.20290967       1.38720741       0.00000491      -0.00000876      -0.00000233
I        4.72470812       5.62283040       1.42622158       0.00000556       0.00001116       0.00000194
I        5.09240492       5.12125195       7.81257114      -0.00001282      -0.00001064      -0.00001745
I       -1.67319824       5.54022411       7.85248061      -0.00000550       0.00000122      -0.00000023
