768
Lattice="25.244031463055336 -0.051139010145229986 -0.15563925591508607 -0.008975214029691772 25.575374942549175 -0.11406019386377196 -0.3474594723078396 -0.009706484009668169 25.26731789926129" Properties=species:S:1:pos:R:3:forces:R:3:momenta:R:3 energy=-3620.4114125070396 stress="0.0 0.0 0.0 0.0 0.0 0.0 0.0 0.0 0.0" pbc="T T T"
H       10.39399249       9.57714496       4.99267307      -0.12525731       0.09093037      -0.17952677       0.01536469      -0.09207309      -0.45248887
H        9.55361226       2.64331975       2.69693100       0.65701241      -0.72189128      -0.56662534       0.23738230      -0.04517087       0.42079428
H        9.12030918       2.56458445       9.17133002       1.61913481       1.55652131      -0.19713578      -0.04296193       0.10764080       0.00563864
H       10.76858587       8.83911360      10.24161893      -0.14256811       0.56442097       0.39984701      -0.10121752      -0.00996425      -0.15029660
H       12.35300757       9.85796646       3.56279889      -0.14318385      -0.14248525       0.30562487      -0.34422718      -0.11763860       0.07988731
H       11.71946772       3.56085820       3.36173613      -0.79657007       0.51912058       0.12222122       0.16513448      -0.51323488      -0.21155431
H        1.90174419      11.03203921      10.68705694       0.69277880       0.58603033      -0.90724740      -0.17365679       0.10709641       0.05483066
H        9.70774472       9.09807280      12.40576362       0.55501311      -0.74833493       0.24336674       0.21713105       0.12264528       0.20706363
H        4.57104797       4.93151792       1.66700314      -0.05154139      -0.30173925       0.15971268       0.17893594      -0.07229863      -0.04190483
H        3.12302604      11.61372090       2.79794248       1.19646727      -1.24999969       0.01939389       0.29391275       0.08594033       0.03465503
H        2.87863685      12.18938789       9.61707387       0.09191505       0.45596775      -0.29784912      -0.18163156      -0.05119091      -0.26318812
H        9.04960729      10.66574360      12.20203164       0.83635529      -0.18751350      -0.76056247       0.20545688      -0.17385072      -0.36271716
H        4.10958441       5.48297452       4.11705798       0.09778700       0.20733735       0.46938020      -0.12093978       0.26842446      -0.10661167
H        2.93632157      10.90496184       5.24515661      -1.30925688       0.70136262       0.97383309      -0.16118222       0.01135708      -0.24753706
H        4.93303951      11.37506533       9.04038622       0.45646754       1.85961902      -2.01996792      -0.14482435      -0.32693299      -0.33126760
H        4.07429466       5.95956567      10.20381944       0.40676564      -0.30581711      -0.31105117      -0.17967225      -0.27458685      -0.07550405
H        8.44905497      10.66446363       4.53640027       0.20537355       0.64892687      -0.56121347      -0.10500722       0.13149786       0.07125799
H        4.21446585       9.70105372       5.89013868      -0.92029817       0.02861700       0.77177817       0.02027893       0.08054990       0.08821832
H        9.32527228       3.81725786      11.19649420       0.11385783       0.20387501      -0.04698795      -0.03699022       0.06632751       0.11872620
H        5.21134106       4.71534776       9.27969327      -1.35380248       0.19076306       0.91780759      -0.04580335       0.21227081       0.03373489
C       10.39330793      10.28515413       4.13663101      -2.82697938      -0.06629646       1.40298693       0.85434899      -1.02547035       0.24809387
C        4.22485611      10.16226541       3.92224361       1.18173110       1.35475740       1.27209928       0.32777972      -0.08696142       0.19256833
C        3.61528113      10.22657250      10.09709141       2.62680310       0.75457820      -2.10921924      -0.85257125      -0.04989204      -1.30623135
C        3.43173967       3.81609819      10.01160391       0.33018442       0.55955338       1.33751971      -0.44807573      -0.05791589       0.13892761
N        3.76837611       4.30393174       1.78565154      -0.41693902       0.41463663       1.48233055       0.60036072       0.27153112       1.01779409
N        3.94450546      10.91492604       2.87180594      -1.19834743      -0.22378675       0.23697986       0.55838692      -0.17308253      -0.64791233
N        2.77592368      11.30330293      10.12933012      -1.83150601      -1.33010506       1.66400767       0.05531237      -0.43351697      -0.12257214
N        9.72597124       9.94933193      11.79783217      -0.31430139       0.57650521      -0.74859024      -0.27860429      -0.40534570       0.43392123
N        3.30285152       4.83046890       4.02489080       0.97359371       0.72171448      -0.70582071      -0.68283861       0.51720027       0.07207274
N        3.70407651      10.29657861       5.15561674       2.13412996      -1.11149115      -2.60148949       0.06727549       0.46764183      -0.45508014
N        9.85884188       4.17956540      10.35167895      -0.16164243      -0.54025053       1.26852095      -1.94781433      -1.21154800      -1.09041955
N        4.33935422       4.89170405       9.86025705      -0.23093670      -0.86164095      -1.15687256      -0.74751984      -0.84416106      -0.41064957
Pb       6.90697988       0.92176325      13.23773255      -0.29903173      -0.10934419      -0.22034673      -1.70149346      -3.23806737      -3.38343251
Pb       0.16985945       0.59333388      13.37053605       0.44999996       0.31076343      -0.35421714       2.05358985      -0.93151172       1.33667009
Pb       7.03732885       7.09703780       6.64656383      -0.00388675       0.14632416       0.30248080      -2.63136372       2.44655185       0.78175987
Pb       6.86384371       0.72634190       6.53298114       0.02635472       0.32308856       0.07994935      -2.73385519       0.48427066      -2.00836739
I        9.98748145       0.75527864      13.57219730       0.20727983      -0.11336783      -0.21626246       1.70599797       4.62950081       3.32665240
I        3.51493117      13.54887975      12.99015226       0.22547923       0.01099836      -0.44207149       2.63487640       0.68934928      -3.57055258
I        3.73988937       0.83950873       7.14963979      -0.13290962      -0.26112675       0.17783424       1.95072731      -0.44232780       0.76110134
I        9.97992885       1.08319747       6.08451146       0.10082818      -0.02691515      -0.16296611       0.41158301       3.07567735       2.07043797
I        6.84715685      10.39550915      13.36843755      -0.17487050       0.05687269       0.02949536       0.90196727      -1.43713109      -3.03359121
I        7.36061179       4.05353684      -0.10852741      -0.21187868       0.01587872       0.21900331       0.16220383       0.78157029       1.24818385
I        6.44135219       4.00540557       6.56968460      -0.20521284       0.05630116       0.47884227      -1.59934494       1.56337023       2.10827848
I        7.26427010      10.43773009       6.48387028      -0.09947444       0.09038523       0.16402749       4.67023828       1.19877694      -1.62218263
I        6.18970442      14.16212024       3.24003030      -0.02356988      -0.17639016      -0.04362184      -1.41260979      -5.40840517       2.05074489
I        1.24267770       0.71446590       3.71388568      -0.01560060      -0.15749713       0.04897781      -2.62697469      -1.92783191      -0.12923615
I        0.26181000       0.91499864      10.04911078      -0.06018749       0.06147318       0.04514764      -1.74895744      -2.18940058       1.26804610
I        7.20569357       0.69967742       9.84820198       0.06488711      -0.00881172       0.03960337      -5.43821673      -1.65531083      -0.79469446
H        2.02633116       3.68899639       2.90488609       0.34068615      -0.58747865      -0.55566367       0.20059998       0.08353785      -0.02030551
H        5.24773419       9.58441439       3.89330844      -1.25783060       0.18134467      -0.12245033       0.37960747      -0.05378166       0.16284853
H        3.36020221       9.22038670      10.58736184       0.20409482      -0.18520427       0.30004602       0.03146285       0.01409138      -0.23777568
H        3.63544280       2.62784241       9.68182977       0.12651835       0.56371906      -0.14851586       0.08513704       0.38646851       0.23029998
H        3.46853046       3.68664901       1.05624525       0.06036538      -0.68243689      -1.05394110       0.10145813      -0.07988929      -0.30292802
H        4.49759271      10.61952807       2.04292076      -0.08327548       0.68628153      -0.54530478      -0.26636330      -0.04521460       0.34810232
H       10.29127446       3.41438605       7.11649104       0.51975504       1.08790915       1.34653809      -0.15247211      -0.16089175      -0.43163202
H        1.68913099       3.08255214      10.83325972       0.25913695       0.30276557      -0.09056102       0.02946274       0.24475439      -0.08771185
H       11.38616117      11.19096070       2.77781893       0.79075448       0.00137939      -0.51924562       0.00302776       0.01795324      -0.02119358
H       10.73999819       5.02024368       4.11479728      -0.33372055       0.28557348       0.91842449      -0.11670529      -0.16135017      -0.16121191
H       11.04010090       4.90162963       8.13815596      -1.82706092      -2.05391225      -0.15245856       0.19455238       0.17316447      -0.23364651
H        2.02186346       4.90461820      11.19503742       0.28088634       0.20399135      -0.29664000       0.12934549      -0.26009345       0.23560120
H        9.15288253      11.58441836       3.07143565      -0.33749704       0.45178543      -0.10294512      -0.19371409       0.02839528      -0.06727637
H        8.15345502       4.72861495       4.40474015       0.20951204      -0.64789740      -0.50093481      -0.14515627      -0.02257884      -0.07225898
H       10.58675202       4.87930094      10.50594542       0.29689420       0.96161779       0.15546506       0.09046866       0.07802835       0.27025947
H        9.51513317      11.66760502       9.86619400       0.87142116      -0.67489419       0.01587292       0.23108435       0.01799290      -0.02292145
H        2.62100021       4.63805160       4.73118993      -0.64198822       0.40024886       1.62788953       0.16482481      -0.09823797       0.09921366
H        7.49006040       3.41233548       3.51320494      -1.60091323      -1.63999798      -0.31318260       0.15432976      -0.42704899      -0.21975139
H        5.62682288       9.78019504       9.41167947      -0.66592701      -0.42435712       0.28668032      -0.12073201       0.12665648      -0.10728671
H       10.57736548      10.76510005       8.75771559       0.72359367      -0.37654639      -0.49411755       0.15983984      -0.03952697       0.02389896
C        3.02482847       4.24559603       2.88835192      -0.06308973      -0.48281511      -1.21086374      -0.99891224      -0.74287282       0.21582945
C        9.57354530       3.50483691       3.34567698      -2.54454645      -0.44025075       1.20475373      -0.00037631      -0.11324332       1.31791347
C        9.83473375       3.50937051       9.22054071      -2.82418695      -2.14313370      -0.60959548       0.34636934      -0.44961489      -0.21843886
C       10.26487520       9.86248990      10.56704814      -0.48737024      -0.99070742       1.73221331       0.09980635       0.10004438      -1.43365536
N       11.48997870      10.43802085       3.50121265       0.91770199       1.09566594      -1.63311441       0.32333484      -0.22323698      -0.55683450
N       10.69785437       4.08038084       3.66204807       3.14122475       0.20960276      -1.49708052      -0.15796124       0.11050816       0.64787079
N       10.43785992       3.93161495       8.09072112       1.92855160       1.09049019      -1.49245554       0.10011291       0.38472859      -0.13051636
N        2.28639700       4.01187703      10.67577530       0.37533183      -0.82173475      -0.40566087       0.64487900      -0.72830496       0.55364709
N        9.21994961      10.93016181       3.86151441       1.64049507      -2.16329969       0.83127581       0.06626380       0.81396427      -0.32957383
N        8.33573665       3.87261639       3.80853957       1.50243938       2.54881363       0.45608804       0.71352365       0.81843354      -0.33203145
N        4.75679059      10.36827882       9.37835044      -1.40591089      -1.57348310       3.05907313      -0.40571235      -0.33257829       1.10809570
N       10.19317361      10.85691185       9.71394873      -2.25962622       2.17101307      -0.51724961      -0.44308585      -0.37746413      -0.15015541
Pb       0.03122786       7.03767778      13.14984416       0.42213395       0.11729487       0.28532127      -0.09388734      -0.06036539       4.35139303
Pb       6.73800377       7.19351901      13.15783639       0.03759000       0.14982604      -0.25499608      -1.04703173      -0.74005663      -4.34580171
Pb       0.47617923       0.74369153       6.82197303       0.09686546       0.45834324      -0.04797271       0.59480054      -1.01280365       0.69057480
Pb       0.83458598       7.25725200       6.91213109      -0.19954886       0.30271517      -0.08954749       5.22961500      -1.70311680      -1.24140082
I        3.29275478       7.26124859      12.58157337       0.53518425      -0.26380652       0.11688822       0.18845974       4.22296537       0.86746841
I        9.98374686       7.33141449      14.09960682      -0.25252356      -0.16409648      -0.20881533      -1.25277460       1.03590080      -0.39194860
I       10.08180482       6.62329590       6.16614536      -0.11105471       0.11000878      -0.03898026       0.51376820      -2.23179546       0.28370094
I        3.72357271       7.47675951       7.19408258       0.46709658      -0.00045566       0.18144448      -4.67088237       0.57879069      -2.02771867
I        0.08906185       3.82752191      13.86105307       0.11199127       0.05436677      -0.12413550      -2.03022249      -2.35337508      -0.05052026
I        0.57159942      10.44892171       0.32447821       0.46105413       0.25622199      -0.39786655       0.89789937       4.80941594       2.80652528
I        0.08433935      10.54719270       7.11087180       0.39142223       0.18520993      -0.29946907      -0.59757696       0.13181841       0.94158732
I        1.11244895       4.18934447       6.87291386      -0.27780135      -0.33128672      -0.07178485      -1.08000723       0.50951186       0.76327873
I       13.79519599       7.48748275       3.62819866      -0.17107614      -0.03861611      -0.22495789      -0.23446051      -0.11714137       0.55971043
I        6.18254631       6.92107182       3.59864925       0.13729042       0.04642877      -0.17314593       0.61877392      -0.23242683       0.69268142
I        7.02034841       7.63262464      10.04404798       0.16662379      -0.22894429      -0.27494559       2.72193522      -2.08411242       0.27519844
I        0.11223840       6.73913853      10.16619140      -0.41284309      -0.08559800      -0.37104466       0.69903287       0.73888182      -0.10909285
H       10.25823597       9.96514650      17.83391076       0.53194196       0.23818248      -0.52296258       0.14201194      -0.00120478       0.17333626
H       10.37508930       2.80388280      15.25272431      -0.55897913       0.41478957       0.13082450      -0.02540163       0.16599329      -0.16804649
H        8.09610216       3.41321243      21.89362051       0.63047907       0.95588067       0.42635043       0.14523721      -0.31055799      -0.08119518
H       11.69289616       9.06046015      22.44712572      -1.05587566       1.26484310      -0.29004336       0.15161097       0.18674526      -0.26087761
H       12.23644852       9.67922661      16.69390384      -0.45814657       0.66821669      -1.17308763       0.09790992       0.20145877      -0.15019593
H       12.16116847       4.29077080      15.24274132      -0.43614815      -0.17161831       0.50263296       0.11704423      -0.03221558       0.23004772
H        1.74367121      10.27636735      22.89873468       1.52477884       0.18881631      -0.33205624       0.19839834       0.16927168      -0.09598319
H       10.39472894       8.53855647      24.37936028      -0.43431273       0.35351576      -0.46384446      -0.23679514       0.08653963      -0.26633346
H        4.38965370       4.57721834      14.79651651       2.07364440       1.70459907      -0.37522102       0.03928447      -0.07659472       0.26348624
H        2.92939251      12.03136322      15.26445178       0.31787910      -0.60757063       0.02645923      -0.14297392      -0.08116408       0.16089604
H        2.69782006      11.49953171      21.91818030      -0.06831995      -0.61717484       0.39969109      -0.08900101      -0.23872517      -0.15076647
H        8.84003918       9.59162402      23.99994419       0.46986531      -0.46693340      -0.32205094      -0.34775944      -0.12006842       0.00211702
H        3.83529717       5.23730320      17.24921665      -0.27116500      -0.91186326       0.15047539      -0.02529252       0.05758261      -0.20799653
H        2.19160696      10.25557539      17.50770178       0.09989320       0.56149351      -0.87522784       0.17250043       0.04677906      -0.19318117
H        5.11677024      10.89699044      21.31645374      -0.34002987      -0.21365051       0.53784897      -0.16429155       0.33390365      -0.22839173
H        4.32289709       5.63516856      23.12697207       0.06410457      -1.79348717      -1.48938693      -0.01419170       0.07240841       0.28905792
H        8.47248281      11.19439252      17.07067684       0.96116489       0.15710170      -0.50466221       0.21820244      -0.12269639       0.05488641
H        3.86129938       9.54947793      17.95178599       0.84993311      -1.01062145       0.08608729       0.18331268       0.06124157      -0.11150658
H        9.12848528       4.63804625      23.98633875      -0.10079443      -0.23588857      -0.27509168      -0.03137034      -0.03093076       0.20667588
H        5.44136355       4.68029786      22.07808017       1.13755429      -0.20591580      -0.88368264      -0.14680763      -0.40533217      -0.02515227
C       10.37834590      10.47741305      16.77155396      -0.91411179       0.29602771       0.91242743       0.31863813       0.97478332       0.16843611
C        4.45437185      10.76733459      16.26993057      -1.80547158      -0.38075852      -0.45518690       1.24854789      -0.09060707      -0.16682795
C        3.85834189      10.02137686      22.68995148      -0.63950705      -0.98764109       0.68519853       1.13887071      -0.44240061       0.10159121
C        3.71903540       3.67736635      22.38239528       0.74143567      -1.32138590      -1.58683507      -0.18551405      -0.04136620      -0.85710633
N        4.08116620       3.57673004      15.13190285      -1.07201299      -0.82675874      -0.24140814       0.21689761      -0.02418451       0.64647010
N        3.90036195      11.50008841      15.26773364       1.37491772       0.40010292      -0.69850129       0.24137237       0.15769848      -0.43063192
N        2.74709234      10.65200621      22.54163075      -3.15977803       2.35478685      -0.41715760       1.07692844      -0.30568888       0.80789685
N        9.82632285       9.18835461      23.65953944       0.14873847       0.72767331       0.51142926       1.17306985       0.29583026       0.40797020
N        3.62418347       4.03897205      17.43211802       1.26517602       1.20839330      -1.98803934      -0.87300120       0.16916844       0.33064960
N        3.47288476      10.17417381      17.24393197      -1.16019118       0.87774522       1.70566840      -0.98816375       1.38726421       1.19655145
N        9.77384261       4.47225323      23.16469361       1.30654608       1.94691220       0.26923209       0.05238773      -0.09421356      -0.53000954
N        4.56438555       4.70716420      22.54631235      -1.91181530       2.20790019       3.05096401       0.24650934       0.03768765       0.39081884
Pb       6.89658570       0.70248786       0.45909023       0.04354901      -0.00174066       0.04714262      -3.15420543       1.20798557      -0.62643879
Pb       0.47473641       0.47541536       0.49043068       0.00694548       1.02190441       0.20233968      -1.63963183      -3.55491246       1.47814806
Pb       6.58848175       7.13717088      19.00604802       0.62354694       0.26355510       0.51094971      -0.17029131       3.11593304      -0.83379804
Pb       6.49753761       0.87352298      19.63328568       0.09791707      -0.27229126      -0.35885686      -0.68169176      -0.71724881       3.34349011
I       10.08554640       0.27105216       0.69090292       0.20402469      -0.06722418       0.23113972       1.25231347      -1.39975237       3.62428443
I        3.63915811      14.16923922      24.90010500       0.02460221      -0.11507496      -0.04039674      -2.43231971       1.60075450       4.17917947
I        3.23200170       0.74199670      19.94907986       0.45633009      -0.19812735       0.22140581       5.18124708       0.56669888       0.02746065
I        9.79218064       0.87383816      18.95991089      -0.05617055      -0.08824150       0.00475016       2.53177034       2.36769976      -0.23831779
I        6.65853423      10.53342400       0.49142971       0.11837625      -0.43420888      -0.03505661       2.09729665      -0.43078165       4.23978284
I        7.10943282       4.13391228      13.13418101       0.13170560      -0.32024105      -0.09450089      -2.80879598       3.27731018       2.70348749
I        7.12440619       3.86986927      19.84400137      -0.27215910       0.50198789       0.05769178       0.01895242      -1.58437240       3.67367257
I        6.96603787      10.37261988      19.07188883      -0.06484224      -0.06948441      -0.11791681       1.14140111      -2.33586632       2.81396064
I        6.13270158      14.28292103      16.00864025       0.30628920      -0.14561619       0.02994063      -1.47182136       0.33598519      -1.20998623
I        0.94865774      -0.01661370      16.25833864      -0.05255863       0.11453170       0.38282178      -0.98134565       0.65853062      -0.77042857
I       -0.38012014       0.69622941      22.66099100       0.10729863       0.06965696      -0.23511494       1.95106198       1.94340411      -2.81217300
I        7.12317073       0.36117851      22.68485839      -0.13152473       0.07240247      -0.39638538      -2.42652684      -4.46248111       1.31557096
H        3.11326493       2.15285562      16.38681470       1.37335061       1.42532015       0.54672567      -0.08252720      -0.24745142       0.19791193
H        5.59244157      10.39021297      16.20699347       1.06185224      -0.33569154      -0.21361340       0.02146332      -0.38320439      -0.05036283
H        3.85093125       9.20362080      23.35598494      -0.23128186      -1.18232192       1.07218405      -0.11996565       0.12373337       0.18513209
H        4.14911292       2.81247271      21.71680400      -0.36020591       0.56013256       0.36456100      -0.01381989       0.21447148      -0.19995119
H        4.05271385       2.79784261      14.44513247      -0.13806664      -0.05164996      -0.23256013       0.17664724      -0.02240465      -0.02179297
H        4.86586945      11.80510334      14.62799670      -1.06796770       0.40425112       0.59641377       0.22920977       0.04347262       0.11505396
H        9.65531926       3.13233284      20.21788302       1.11832318       1.66197909       0.80124978      -0.01333704      -0.44159126       0.14128543
H        1.96938470       2.61819275      22.45734624      -1.44547199      -1.03536184       0.21933972      -0.07357729       0.33562115       0.25568822
H       11.54228615      10.48255029      14.79001224       0.35148731      -0.40046207       0.76427412       0.19760489      -0.19702834      -0.09668533
H       11.55330384       5.15191172      16.65795246      -0.03993535       0.51848035       0.35547239      -0.04049952      -0.08712897      -0.04136210
H       11.28320845       4.08604135      21.21397280       0.15662643      -0.41556342      -1.01307797      -0.10619903      -0.13884682       0.27643056
H        2.03023340       4.03838216      23.60468508      -0.54503825       0.20015680       0.12892462       0.02361158      -0.31915328       0.00113120
H        9.39929392      11.90494018      15.62812400      -0.45821695      -0.84482493       0.70938640      -0.08178519      -0.17819837      -0.01150918
H        9.20034923       4.62867296      17.43330643       0.43320046      -0.57148546      -0.59960710      -0.27608164      -0.08433190      -0.00928819
H       10.84162043       4.97392634      23.15021154      -1.35726916      -1.57458947       0.23081898       0.12589618       0.31854856      -0.08192269
H        9.44913375      11.19739543      21.80172608      -0.49257489      -0.08433115       0.09636594      -0.24888437       0.09584742       0.07929020
H        3.01820766       3.84080477      18.21501973      -0.70106166      -0.31250937       0.60312524      -0.00940249      -0.17311177      -0.12443877
H        8.43436934       3.23855355      16.61641315       0.99501888       0.69368134       0.21274488       0.19175498       0.13909912       0.19824493
H        5.67273737       9.50852344      22.15754006       0.67118685      -0.47747519       0.40257027      -0.16741370      -0.13010470       0.27801312
H       10.92940306      10.74071004      20.82906887      -0.72725503       0.05121613       1.09358689      -0.31762093      -0.23816478      -0.24369411
C        3.62280567       3.26546381      16.33865727      -2.39541885      -1.97196217       1.24809218      -0.22004890      -0.76637966       0.21292325
C       10.33789357       3.66595922      15.95800272       1.09266452      -0.86269324      -0.06493645      -0.45022089       0.31672005      -0.24733417
C        9.25379675       3.88803527      22.03931190      -0.56946847      -1.17422782      -0.11424840      -0.46942643       0.00592653      -0.12501434
C       10.62951266       9.61666860      22.57197366       0.09993075      -0.54823608      -0.30722203      -0.70499062       0.09355005       0.63391167
N       11.48610372      10.25569403      16.00343225      -0.62422899      -0.32016414       0.63953438      -0.09976683      -0.29649161      -0.30693196
N       11.47960406       4.32104647      16.07430990       0.63359085       0.20624883      -0.92763391       0.59547226       0.37766649       0.03268600
N       10.12140015       3.76224096      21.01324715      -0.94095689      -1.20350566      -0.24072134      -0.48398482       1.27623356      -0.44259443
N        2.44538514       3.46413239      22.82890290       2.02923340       1.42861080       0.20922122       0.21743852      -0.98278084       0.41130061
N        9.33839723      11.24919505      16.47966530       0.53301133       0.28092591      -1.11352527       0.55885261      -0.24130848       0.27245116
N        9.30948840       3.82658652      16.76429751      -2.45149001      -0.38241844       0.27143002      -0.11361565      -0.33020143       0.17339817
N        4.96483256      10.23536294      22.10066699       1.98637613       1.27414393      -2.10280720      -0.03465247       0.06001768      -1.16040794
N       10.18809492      10.49384975      21.63084218       1.57544898      -0.70801331      -0.23484899      -0.27071913      -0.37907008       0.42646720
Pb       0.51645403       7.49091891       0.62726506       0.28244960      -0.82568720      -0.08943201       0.77348403      -4.57597614       0.53067240
Pb       6.85006178       6.96079843       0.34311180       0.36969999       0.60768791      -0.16493158      -2.99387279      -4.76188805       0.62335154
Pb       0.10958781       0.77559804      19.44483308      -0.01714331       0.11539128       0.02801677      -0.41107013      -0.78490107      -0.02340238
Pb       0.72293528       7.12528332      19.42621019      -0.84170522       0.08839022      -0.06391617       0.28226275      -2.19381754       1.08590242
I        3.38723641       7.03270254      25.09357528       0.11213446      -0.00145751       0.04188521       1.12333613      -2.32922123      -0.65004464
I       10.16799074       7.55568844       1.31261842      -0.08248154      -0.32146279      -0.02530200       2.01326236      -1.86820844       2.02160267
I       10.07453233       7.24402506      18.19598137      -0.65664346      -0.19166523       0.33189290      -0.78959303       1.39099612       2.30400701
I        3.64301102       7.38131219      20.26178746       0.09457316       0.07521028      -0.25200818       1.64158174      -2.65693544      -3.90895004
I        0.46509566       3.96579516       0.70552931      -0.10179505       0.20045282      -0.01008899      -0.92963451      -0.31577231      -1.14864646
I        0.87966951      10.24935916      12.80605854      -0.20310160      -0.06598678       0.11853388       0.89847972       1.72407319      -3.74813199
I        0.24498639      10.53606166      19.49594341       0.11670340      -0.38426184      -0.03097467      -2.45470697      -1.55957101      -2.60469519
I        0.78157353       4.00416937      19.09876526      -0.36084831      -0.04361273       0.27600700       2.42233946       1.14720404      -1.90625533
I       13.47788762       7.14981612      16.30106594       0.30348828       0.10878745      -0.34518288       0.06304743       2.70122927       2.55377643
I        5.92260143       7.01022754      16.28284489      -0.23418150      -0.21849123      -0.15874868       0.02061543       2.57001952       3.78118158