768
Lattice="25.244031463055336 -0.051139010145229986 -0.15563925591508607 -0.008975214029691772 25.575374942549175 -0.11406019386377196 -0.3474594723078396 -0.009706484009668169 25.26731789926129" Properties=species:S:1:pos:R:3:forces:R:3:momenta:R:3 energy=-3643.5263361054303 stress="0.0 0.0 0.0 0.0 0.0 0.0 0.0 0.0 0.0" pbc="T T T"
H       10.36886993       9.68715651       5.03727645      -0.12889890       0.93509629      -0.58237825       0.06108819       0.08308292      -0.11467389
H       10.22509312       3.02540386       2.87432569      -0.25600311      -0.06871563      -0.28128945      -0.21243468      -0.16082751      -0.02146251
H        8.61818827       3.04632321       9.99728657      -0.36932648      -0.43681862      -0.05616311      -0.09589626      -0.26266708      -0.06158119
H       10.92365729       9.31935173       9.87053818       0.53160800      -0.48166186       0.01865072      -0.22978860       0.01860531      -0.08444925
H       12.31524993       9.58472150       3.90182488       0.48893272      -0.24361728       0.12772807      -0.03198179      -0.08560115       0.08869387
H       11.59250342       4.98729644       2.46815650       0.57159768      -0.09065509      -0.06267532      -0.02842044       0.03407762      -0.01610634
H        2.21819409      10.57498849      10.90193767      -0.26858658       0.31551599       0.04437694      -0.04756501       0.14855288       0.10266900
H        9.56823354       9.32077202      11.70271191      -0.05307896       0.15772667       0.12130478       0.00126073      -0.13003574       0.03836938
H        5.12931042       4.88730211       2.04870627       0.22466312      -0.22609289       0.03825816       0.04168448       0.14909928       0.13804550
H        3.37452030      11.88104211       2.78122927       0.55934179      -0.69658476       0.08569605      -0.09561446       0.08055767      -0.10606088
H        2.91167873      11.66828571       9.63525661      -0.09990700       0.05338854      -0.09024920       0.12367623      -0.14142759      -0.12621752
H        8.74765781      10.82956821      11.29807905       0.22940031      -0.13564185      -0.31763543       0.02442352      -0.03201351      -0.12878425
H        4.53930612       5.45963288       4.39884495       0.53411325       0.33818458       0.04015615       0.11829795      -0.09063195       0.02007530
H        2.51139455      10.99605570       4.95056141       1.09680097      -0.71327038      -0.40792488      -0.09240554      -0.02778243       0.00578973
H        5.34553568      11.13114922       8.95938216      -0.31300768      -0.65859682       0.75256711      -0.04822125      -0.10119018      -0.06287483
H        4.50228534       5.18762656      10.54109276       0.39385710       0.81335576       0.46075940       0.07093096       0.03961218      -0.04722464
H        8.56349105      11.03463193       4.23282653      -0.25716897      -0.01648254       0.41324691      -0.00105298      -0.15238581       0.18084882
H        3.34653353       9.69241009       5.69815831       0.59245123      -0.55630702      -0.06499516       0.23112481      -0.08289022       0.10391479
H        9.63152847       4.34184419      11.81553161      -0.15844203      -0.44802663       0.07112126       0.04257300      -0.04469707       0.02890242
H        5.42512539       4.42948883       9.22065576      -0.49975595      -0.09353498       0.18157270      -0.00794587      -0.09176826       0.08513535
C       10.49600293      10.41005517       4.17322135       0.26087357      -1.15253343      -0.33032036       0.55079306      -0.98800963       0.20068430
C        4.16926128      10.30903536       3.87824637      -0.26556433      -0.28937558      -0.84783805       0.24211220      -0.16372023      -0.29247012
C        4.11972772      10.19647266      10.39745074       1.19013514      -0.58345375      -0.68586246       0.66939782      -0.14721041       0.44824416
C        3.56416780       3.68426422       9.71341769      -0.09289598      -0.48057007      -0.61485558      -0.68054143      -0.39806649      -0.94126095
N        4.41574305       4.16420400       2.15170982       0.03712657       0.74790370      -0.60353118       0.18398609       0.11415342       0.11616467
N        4.06386999      11.09149479       2.82423268      -0.10076652       0.73540928      -0.24644335       0.27683033      -0.91723101      -0.19648994
N        2.99241848      10.85988480      10.26793374      -0.05386504      -0.07902619       0.26790325      -0.76273123      -0.07811731      -0.51625108
N        9.44722424      10.11648335      11.05589191       0.57383852      -0.17462206      -0.88951151      -0.30312056       0.02747853      -0.17638629
N        3.82997636       4.73532258       4.31773266      -1.03252469       0.16427105       1.33470811       0.22108649       0.75199930       0.20135180
N        3.36024557      10.34982743       4.90506515      -2.09348903       1.58264596       1.32144267      -0.54237458      -0.68288847      -0.07961771
N       10.17574526       4.23508822      10.93669685      -0.59470073      -0.40626276      -0.14500073      -0.37663108       0.14136938       0.02498329
N        4.59305078       4.47541625       9.83669043       0.39653488      -0.16630090      -0.25162267      -0.09547955       0.56729370       0.52219708
Pb       6.80425516       0.89649266      13.21099734      -0.26033745      -0.21829057      -0.17750392      -2.83395653      -4.05715259      -2.68433024
Pb       0.17511444       0.63673538      13.25966483       0.36668095       0.27414863       0.09281275      -0.51245625       3.43873292       0.72568948
Pb       6.82320975       7.36633551       6.87331505       0.37529199      -0.37438218      -0.03119597       0.22270927      -1.03068843       2.70533931
Pb       6.60074723       0.81707519       6.82603351      -0.00671080      -0.05127158       0.20893011       2.06468957       1.22584509      -1.31905268
I        9.96372876       0.59945578      13.47574485       0.12847793      -0.08637205       0.07395193      -2.48651308      -1.02494279       1.66636881
I        3.73441826      14.11924244      12.57669996      -0.20908987      -0.15454937      -0.00862701       2.27708932      -0.20441286      -0.61058349
I        3.53109366       0.24206489       7.59019860       0.17453563       0.09570074      -0.03509066       1.40398866      -2.63401165      -0.55467178
I        9.75413408       0.60882629       6.76154110       0.10942771       0.09142171      -0.30946232       0.47997672       0.63467626      -1.04745221
I        6.25425897      10.48018777      13.39536419       0.19706994      -0.17494036      -0.13043713       0.18565903       1.15746366       2.11887138
I        7.56993873       4.26620436       0.19009374      -0.16833379      -0.27732216       0.24519848       2.90502714       1.88612548      -0.68580756
I        6.57576159       3.91234275       6.99121460      -0.00791275       0.25792396       0.02958866       1.20691046       0.64992848      -1.04917027
I        7.26450372      10.32719336       6.58357849       0.00344071       0.25700276      -0.10122379       0.42748269      -0.66787083      -0.84407413
I        6.48992612      14.11097422       3.57986377      -0.06101033      -0.28823356      -0.00532559       2.57344687       0.08241813      -0.46065592
I        1.47453154       0.78319750       3.91139193      -0.03547546      -0.08020471      -0.06110816       0.81487465      -1.77007688      -0.09390634
I        0.01758463       1.05823107      10.27789862      -0.08848713      -0.00555502      -0.44599019      -0.39764392      -0.50909077      -0.65152607
I        7.24708158       0.49377598      10.01473646      -0.11598972      -0.01942259       0.03814900       0.23505166       1.17294110      -2.12438358
H        2.70444644       3.45048355       3.07409395      -0.03775046      -0.30272314       0.28594533       0.22255226       0.21031887       0.04518707
H        4.88716581       9.49405879       3.85140107       0.53542948      -0.08628481      -0.02714603      -0.04085571       0.06985306       0.30068010
H        4.17732779       9.34946747      11.10772738      -0.27714097       0.08589858       0.13068395      -0.10424104       0.06503629       0.01619545
H        3.58449021       2.88662893       8.94695098       0.09877125       0.17624429       0.27709158      -0.06669166       0.09934416      -0.06765956
H        4.10098573       3.63730272       1.30405414       0.14800408      -0.29552017      -0.34332659       0.07999456       0.01037039      -0.17981051
H        4.80299477      11.04184431       2.08193216      -0.32238745      -0.04850080       0.31965616      -0.06347113       0.28523999       0.08650834
H        9.52587483       3.14837673       7.77216658      -0.08538509      -0.53180655      -0.22918015      -0.13375462       0.17327209       0.06400174
H        1.78473239       3.04097577      10.31622046      -0.54541059      -0.16355407       0.08325378       0.11369054      -0.05385573      -0.13966843
H       11.98477755      10.81753184       2.66205762      -0.40740889      -0.36937928       0.58563858       0.09459814      -0.12084000       0.12378414
H       10.94529362       5.88356622       3.83731850      -0.25585122       0.07205607       0.20478430       0.28181791      -0.02161477       0.12813693
H       10.84192779       4.23139203       8.38692573       0.01513378       0.00535835      -0.25992478      -0.04895119      -0.01382846      -0.01941274
H        2.31111161       4.51131761      11.15988178       0.24810505      -0.69663933      -0.69483341      -0.08517711      -0.15585901      -0.03044100
H        9.49964806      11.79694908       3.01658349       0.15851792       1.04436830      -1.18097975      -0.18027039       0.04479598       0.11860626
H        8.92622867       4.51465881       5.16786959       0.07722964      -0.08162577      -0.50801905      -0.00230247      -0.10658508      -0.06082970
H       10.97684544       4.84965987      10.84208012       0.88989669       0.92830844      -0.13783630      -0.08715995      -0.08564552      -0.13430956
H        9.42960269      11.68605020       8.89261411       0.21083127      -0.02939247       0.27136931       0.08181833       0.01865992       0.06103296
H        3.17743567       4.62792507       5.12446637       0.40508603      -0.01073512      -0.84201540      -0.18760212       0.02588063       0.03655736
H        8.38360703       3.05200517       4.38847276      -0.37960306      -0.60205210      -0.06948317      -0.06881753       0.14991709       0.11344181
H        6.00229138       9.77401720       9.84270028       0.84215779      -0.78034346       0.19316402      -0.06062657       0.10591312       0.06158619
H       10.83886794      10.91754950       8.17545379      -0.05357515      -0.18998703       0.30217574      -0.01185100       0.10664725      -0.20381117
C        3.60535853       4.11024596       3.17642500      -0.34809460      -0.53058296       0.30818913      -0.30519428      -0.61706761      -0.00391613
C       10.07204022       3.91747202       3.50024111      -0.94738071       0.60571943       0.78410713      -0.14976497       0.02853123      -0.56716702
C        9.54513996       3.63645298       9.82819996      -0.18370699       0.29086278       0.35183114       0.46880571      -0.41849123       0.09933107
C       10.21167779      10.11856378       9.94630681      -0.89392465      -0.12612286       1.86712752       0.44707895      -0.46844565       0.28835996
N       11.68758646      10.33120316       3.57674989      -0.70154597       0.70720136      -0.20230198       0.03672627      -0.35063997       0.27807609
N       10.94269823       4.99978654       3.30276906      -0.38889494      -0.27513653       0.14397630      -0.56543917       0.63260709      -0.06009309
N        9.94520655       3.71594451       8.55166264       0.57979437       0.68118377       0.56619583      -0.01865170       0.42051701      -0.13937700
N        2.46294639       3.79019376      10.41982746      -0.03023767       0.59676752       0.78109485      -0.58058013      -0.59984988      -0.21147949
N        9.44801475      11.12472104       3.74126690       0.47950987      -1.17209846       1.07463791       0.71334856       0.16397990       0.56735213
N        9.04554816       3.83349893       4.40271041       1.42308709       0.47902600      -0.04938343       0.67931349       0.18665344      -0.18611797
N        5.22820305      10.37731546       9.67634104      -1.12157880       1.49014816      -0.54940288       0.30131158       0.01687143       0.75384996
N       10.18409636      10.97833019       8.97337568      -0.56170738       0.95711817      -1.23648406       0.18591888       0.05252913       0.34179405
Pb       0.54306080       7.09668316      13.36771925      -0.24291433       0.16829230      -0.02079764       1.76756794      -0.95450488       1.07725004
Pb       6.75910914       7.24535576      13.09672862       0.01275654      -0.00016169       0.15104985      -1.01413177      -1.25815695      -2.44469978
Pb       0.59589663       0.88121790       6.92348160      -0.24175935      -0.17151292       0.06931057      -1.07193135      -1.11554628       2.01498088
Pb       0.62117423       7.19076845       6.86685442      -0.05800057       0.00981898       0.12025688       1.94261821       1.16110131      -1.58207963
I        3.52308451       6.75144199      12.51261861       0.34088664       0.00785136       0.05770075       0.32374195      -0.27470849       2.04139937
I        9.90257227       7.49932022      13.84506757      -0.14752010      -0.00151221      -0.16046746       0.05791516       1.00708105      -1.05257583
I       10.12860356       6.89076793       6.49408410      -0.20593275       0.05789534      -0.15991102       0.93093988       1.64356582      -1.85154544
I        3.90471314       7.44976814       7.31218858      -0.51295450       0.10536023       0.07320055       1.56645597       2.05379091      -2.48724467
I        0.43135614       3.97855173      13.80446424       0.04348809      -0.11797525      -0.27978944       0.52557894       0.87683476       0.51562510
I        0.97128686      10.57073887       0.19510147      -0.08669359      -0.04893160      -0.00218313      -0.62025304       0.81350465      -1.73051987
I        0.35474926      10.35578837       7.02197880       0.01627035      -0.03128522       0.03791109       0.55725118      -0.38654128       0.69967488
I        1.05779587       3.93370439       6.98337126       0.13805756       0.32179631      -0.21380883      -0.85337014       0.71478832      -1.80620714
I       13.81006496       7.26054570       3.74275380      -0.00872179      -0.01542775      -0.21794916       1.80394535      -1.70748885      -2.04309974
I        6.59598707       7.13961576       3.66684168      -0.02395670      -0.05707858       0.05909774       1.49466499      -0.21234577       1.59179077
I        7.55699327       7.38676519      10.17000196      -0.13944694      -0.06049798      -0.42383651      -1.05158684       0.29666605       1.67703538
I        0.07093363       7.04628668      10.11669583      -0.05663934      -0.06613499      -0.14141591      -1.57245200      -0.35969099      -0.90426427
H       10.32182027       9.41033147      17.44320166      -0.67632880      -0.62718043       0.79901362      -0.01373846       0.13084641       0.08027234
H        9.72737714       2.80191122      15.42430773       0.01785671      -0.49824790      -0.32905025       0.11914235       0.00988551      -0.12691699
H        8.57564650       3.37165976      22.21771050       0.11962275       0.33130394      -0.03562407       0.08980239       0.06521308       0.03957697
H       10.84367653       9.54842871      22.38972573      -0.24081105       0.08026325       0.15472938      -0.13929805      -0.20699752       0.10519810
H       12.28561623       9.26527120      16.25932135      -0.38474399      -0.03643741       0.22055024       0.10114548       0.14381822       0.13173826
H       11.30489559       4.54657275      15.36059935       1.29670735      -0.20702825      -0.65302923      -0.01718109      -0.00626223       0.09066628
H        1.99464111      11.02107769      23.39456010       0.24567438       0.48115479      -0.35606788      -0.05094963       0.19828594       0.11372273
H        9.74330086       9.94310790      24.47701555       0.02166704      -0.59744135       0.70947232      -0.26407767      -0.11901823       0.01485802
H        4.71719449       4.22641920      14.89115240       0.37765664       0.31683009      -0.03757140      -0.02461156       0.22355055      -0.05068128
H        3.08584058      11.74732988      15.88776722      -0.12669905       0.47065965      -0.04885417      -0.06717364       0.20283511      -0.17534400
H        2.76478819      11.79879325      21.96715961       0.00246000       1.10954505      -0.58142934       0.01940354       0.15952194       0.02452751
H        8.80457333      11.25428282      23.82126273      -0.56809478       0.34776675       0.09040114       0.05717172       0.05849600       0.21075007
H        3.93787265       5.43276207      17.18685248       0.47792960       0.12255336      -0.65114395      -0.00409472      -0.18779104       0.08943255
H        2.60524823      11.03166836      18.12190774       0.00502578      -0.17571900       0.01245268       0.01356082       0.07097210      -0.02570046
H        5.00956547      10.83094319      21.23735400      -0.46118619      -1.29430495       1.49804334       0.00100908      -0.01443194      -0.04238516
H        4.37958056       5.46983659      23.23243275       0.12076586      -0.33898072      -0.34992854      -0.08251617       0.07872893      -0.05911248
H        8.48979393      10.76403269      16.64999529      -0.18341138       0.03369682       0.25661007      -0.06930329       0.07894366      -0.16613789
H        3.16876091       9.38323009      18.57185370       0.37796129       0.02453844       0.21574591      -0.06470524      -0.24923689       0.03645659
H        8.84406003       4.85193396      23.85754540      -0.35784008       0.12049261       0.57281050       0.18382446       0.02939239      -0.00025511
H        5.53377401       4.49997040      22.21343670      -0.41164692      -0.15135127       0.04815236       0.11700940       0.04030184       0.03158446
C       10.37956626      10.02240509      16.55020579       0.05328987       0.27967247      -0.66097297      -0.39747816       0.40829935      -0.07240665
C        4.00099696      10.23683851      16.86276317      -0.79686655      -0.41564033      -0.23203976       0.39917860       0.71442363      -0.03716619
C        3.76539864      10.29081329      22.87949597       0.79645590      -1.14362784      -0.55331881      -0.56249123      -0.24850960      -0.02516176
C        3.55214523       3.82833617      22.33037891       0.86680883       0.39371611      -0.30227920      -0.07616079      -0.77380248       0.91979255
N        3.94165606       3.61785397      15.12240437      -0.20324636      -0.06828353      -0.48848158      -0.03382912       0.00082139      -0.25453256
N        3.83779412      11.05725698      15.85124574       0.65342614      -0.08263171      -0.14703442       0.24652173       0.01273078      -0.74346479
N        2.80786065      11.18079397      22.76822721      -0.57465429      -1.24338195       0.98910410       0.20042295      -0.16110908       0.29315028
N        9.43518974      10.48170002      23.66274801       1.31420863      -0.22443004      -1.26415909      -0.14359130       0.74263013       0.16613522
N        3.26639948       4.67335979      17.10593181       0.25419955       1.00789625       1.30539627      -0.10383067       0.01148230       0.31427828
N        3.27235017      10.26889011      17.96297041      -0.20940753       0.31205530      -0.29102297      -0.02125021       0.55319443      -0.12239627
N        9.54102466       4.94922850      23.11727083       0.58276709      -0.43726547      -1.10162860      -0.86267901       0.11848577      -0.41221465
N        4.55896175       4.64277680      22.60997748      -0.25009656       0.11510680       0.43076235       0.26619984      -0.15388859       0.53942393
Pb       7.25208049       0.98054335       0.54309830      -0.24705742       0.45194661       0.00987495       1.17887052       1.34677651      -3.35318192
Pb       0.75506723       0.94526687       0.68437102       0.28952937       0.23294610       0.03429923      -0.69791937      -1.81132759       0.67771214
Pb       6.75355404       7.13629902      19.43407655      -0.02231207       0.13139662      -0.03801362       1.71290520      -2.10818004       0.76738123
Pb       6.87186142       0.81465941      19.56115803      -0.30750809      -0.16970039      -0.12927075       0.06492516       1.28307392      -1.40300938
I       10.19826018       0.37286822       1.42092078       0.42193019       0.02414321      -0.08224299       1.58632246       0.11807451      -0.95593814
I        3.55655280      13.87755812      25.45073590       0.18432778       0.14756815      -0.02754138      -1.87265104      -0.36883628       0.09172055
I        3.67791719       0.19341614      20.24684177       0.03417762       0.14406477      -0.05058301      -1.34690514      -1.99213774      -0.56024039
I        9.88471593       0.79333834      18.75447963       0.13658873       0.11096187       0.13560126       1.17001407      -1.42569164       1.30398009
I        6.62125990      10.45234623       0.62690783       0.16506463       0.62513484      -0.10238721       0.52559409      -1.56589770      -0.99146488
I        7.22050892       4.02984933      13.13162376      -0.03209022       0.11524386      -0.01687670      -0.09256168      -1.75010618      -1.43848996
I        6.59248847       3.97173388      19.96255217       0.06618244       0.14057103      -0.14846234      -0.04368400      -2.11858323       2.78903724
I        7.13206769      10.50435742      19.11642705       0.02525677      -0.30581159      -0.02973788      -1.21040189      -0.41633837      -0.61701006
I        6.45760930      13.82106965      16.14848234      -0.19791291      -0.15473232       0.13341921      -1.21243694       1.75602797       0.94120315
I        0.84228716       0.50648810      16.47910682       0.05498924       0.05688983       0.08943141      -0.41073601      -1.11459881       1.42722250
I        0.23917690       0.94306844      22.86061624      -0.13429771      -0.00815617      -0.12689699      -2.58647594      -0.54495131      -0.60753859
I        7.63850385       0.62465143      22.69198637      -0.00053362      -0.11355586      -0.10132522       0.37619808       0.88181280       0.35046812
H        2.34918573       3.06402870      16.35047529      -0.21589351      -0.30985499      -0.26125306       0.08844089       0.12168385       0.08065545
H        4.66951776       9.38379590      16.74599266       0.43677898      -0.04541993       0.00145814      -0.22809101       0.18748309       0.13006683
H        3.60941354       9.47503638      23.62091472       0.30404484       0.61175607      -0.09056349      -0.05202823       0.10386065       0.01087043
H        3.75412367       2.92053519      21.70466722       0.05298350       0.24278756       0.17587294       0.10813218       0.01589759       0.02062253
H        3.70842576       2.85840598      14.47501906       0.11201743      -0.20158707      -0.38302391      -0.18582103       0.22786136       0.06527786
H        4.53744099      11.08735999      15.06552138      -0.36353458      -0.13732908       0.45534144      -0.26486362      -0.14319840      -0.10711544
H       10.07590422       3.10803927      20.44387428       0.08610271      -0.21941554      -0.49039669       0.10665231      -0.17121490      -0.04614187
H        1.62537220       3.33431829      22.60295033      -0.62613374      -0.49046927      -0.03925983       0.12920189      -0.05520972      -0.05803179
H       11.76640147      10.41653732      15.03405799      -0.17622229      -0.00803623       0.04882809       0.00407825       0.10048253      -0.04459248
H       10.58467315       5.36700410      16.67272114       0.03602654       0.60990615       0.82197128      -0.22039913      -0.12980444      -0.01338999
H       11.15902668       4.41225673      20.96730107       0.06102422      -0.06381320      -0.34866373       0.05776570       0.04658969       0.04218721
H        2.04416533       4.83498135      23.41254970       0.13546256      -0.50942426      -0.64163035       0.07969748      -0.01825627      -0.03094407
H        9.45694801      11.43506991      15.32685693      -0.05734165      -0.02275143      -0.15255745       0.08840245      -0.12725373      -0.05758107
H        8.63014405       4.43310196      17.65582254      -0.37482573       0.19475801       0.45990685       0.00574460      -0.03670916      -0.20095044
H       10.35318483       5.60980804      23.24957857      -0.13782762      -0.21952220      -0.36619002      -0.03691118       0.03045172      -0.09361465
H        8.97686312      11.72660187      21.35874809      -0.10738205      -0.12390571       0.48398202       0.05992778      -0.01459523       0.00180688
H        2.62003835       4.65486181      17.88211962      -0.57382951      -0.21782167       0.53366120       0.16371318      -0.17494311       0.07186455
H        7.89813072       2.95943671      16.88000426       0.33640697       0.56015956       0.44384650      -0.17940700       0.01980381      -0.14040762
H        5.56882723       9.44933781      22.19197080      -0.44810322       0.02221217       0.17102329       0.17200264      -0.12451689      -0.02467705
H       10.21701444      10.84485892      20.55049637       0.19182108      -0.06513096      -0.13784266      -0.00277693      -0.12640883       0.31768222
C        3.15549643       3.77790442      16.17674429      -0.06207887      -0.48806217      -0.07252972       0.42953072      -0.22063153      -0.16183700
C        9.68519361       3.59128635      16.15700315       0.22585003       0.67583987       0.31047195       0.23402024       0.20087761       0.33496247
C        9.43285763       4.07440408      22.12493136      -0.02483151      -0.19102241       0.65517021       0.37322087       0.35231637       0.94158254
C       10.03673346      10.29437165      22.48363736      -0.94665271       0.53433467       0.76965901      -0.21670049      -0.57631176      -0.19591229
N       11.53330448       9.91272204      15.92983304       0.86325134       0.79492656      -0.68967713       0.08544123      -0.18469666       0.51427706
N       10.66490356       4.47921428      16.17667022      -0.49916975      -0.24129656      -0.45486892       0.37631038      -0.37969041      -0.22364197
N       10.27065412       3.87852564      21.07477010      -0.05289195       0.62540067       1.04448104       0.94177729      -0.03615252      -0.76615775
N        2.29364578       4.07248369      22.74140050       0.01542500       0.68483353       0.97518526      -0.38686429       0.19166155       0.45143161
N        9.34999614      10.75753779      16.10572278       0.37110477      -0.23651887       0.31749848       0.88753998      -0.20601662      -0.90498319
N        8.68419761       3.63971550      17.01549992      -0.97012291      -0.93778267      -0.72376722      -0.87709708       0.38123539      -0.06063938
N        4.83761604      10.16717548      22.06163981       0.19085594       1.57524322      -1.11568206       0.12454447      -0.25117551       0.77547642
N        9.67736084      10.97823320      21.40485522       0.52240953      -0.06562081      -0.71782255      -0.16387343       0.21902038      -0.35910557
Pb       0.90939207       7.40743271       0.53425747      -0.25828303       0.07409569       0.09450025      -1.95881287      -1.87307365       0.45497837
Pb       7.12113342       7.67215957       0.39527060       0.06113674      -0.69926455       0.30646707      -0.17958638      -0.31127830       1.28172751
Pb       0.44339853       0.81973912      19.61950431       0.17159228       0.08681779      -0.01869947      -1.35877665       0.43622755      -0.04756657
Pb       0.39670492       7.33573516      19.74006451       0.11644225      -0.11946869      -0.14677696      -0.89611237       0.79052850      -0.43349770
I        3.52599640       7.16118560      25.15188129       0.25892728      -0.09769586      -0.08886563      -0.71779644       0.66163856      -0.10110856
I       10.26013931       7.79431696       0.99430176      -0.23492878       0.11033064      -0.01901372       0.26593237       2.34959256      -0.93363574
I        9.80702612       6.83123324      18.87311861       0.09047291       0.04141196      -0.06205915       1.03681951       0.24756073       1.33015969
I        3.70464943       7.27380336      19.97729018      -0.33594912       0.05781567       0.04495069       0.86818807      -2.22661888       0.53803444
I        0.66304973       4.32503840       0.74541124      -0.06103256      -0.45266148       0.12762222       0.49115601      -0.84766452       2.77929127
I        0.76573899      10.30939794      13.03319842       0.00202468       0.21232617       0.03424888      -0.83777862      -2.10760381      -1.21574395
I       -0.00396132      10.52980448      19.68224723       0.08583602       0.02942939       0.10447457      -0.43921128      -1.41100632       0.25231583
I        0.69355755       4.04387551      19.54591933      -0.06238271       0.16987562      -0.05825151       0.80138431       1.34240620      -1.42162403
I       13.62978265       7.30789566      16.25562373       0.15685280       0.02017553       0.11145339      -1.44117179       0.15306473      -2.65562100
I        6.23654714       6.95582830      16.32475911      -0.10825948      -0.13778696       0.11941189      -0.80720963      -0.24244805       1.22286488