768
Lattice="38.994998665037166 0.07106821782705662 0.35547318029268 0.20366633889610405 23.235525993811105 -0.050934670340891476 0.6633844787472418 -0.16287480069770385 18.246656201326342" Properties=species:S:1:pos:R:3:forces:R:3:momenta:R:3 pbc="T T T"
H        8.53980764       0.39802293       4.95614473       0.95893078      -0.97313443      -0.22208653      -0.12032291      -0.12637495       0.05913581
H       12.92937083      11.70648296       3.44699504       0.16092696      -0.18578190      -0.10232736       0.03918993      -0.10158340      -0.01229231
H        3.54274854       5.86696489       5.35256078      -0.27348870      -0.06526767      -0.34583206      -0.00505605      -0.07499401       0.05295437
H       18.55074616       6.07527472       2.93260789      -0.59483879      -0.42047465      -0.12086108      -0.00533238      -0.26524762      -0.13715251
H        7.11196078      23.02055267      11.02757361       0.38992120      -0.10078307      -0.10991685       0.04019287       0.13534606       0.01372977
H       13.15147900       9.49043840       4.19349777       0.71144863       0.52241591      -0.55006315       0.03876085       0.00073542      -0.03566549
H        5.52907510       5.27667700       8.34908843       0.11148737       1.39035416       0.49775337       0.03209745      -0.15442899       0.20160900
H       16.76429147       6.94612422       4.26533412       0.39373545       0.33235105      -0.00016954      -0.06826559       0.30042082       0.09734445
H        5.97782708       1.12118279       6.15278609      -0.51610263       0.03078547       0.14143840       0.01420201       0.25423260      -0.05171691
H       14.65145610       9.27206659       3.28731038       0.65611207      -0.41700651      -0.17012749      -0.03088632      -0.07641458       0.02435940
H        6.12481593       7.01305631       8.29566604       0.89788911       0.44677498      -0.23334845      -0.16696510       0.28502049       0.02359296
H       15.74693623       5.60524903       4.10095061      -0.16294417      -0.83809985      -0.24901316       0.06260807      -0.11629966       0.11201904
H        7.15025764       3.02082263       4.86081697       0.04363773      -0.38967527      -0.02452942       0.25673821      -0.10487008      -0.07395598
H       15.41937696      11.18277412       1.90010833       0.55250312      -0.45334767      -0.30945129      -0.07227564      -0.15568691       0.08016724
H        4.85115876       8.58863583       5.39574169      -0.06729532      -0.36043565      -0.27123022       0.05001867      -0.07258578       0.02864201
H       16.60854212       3.72798266       2.64942331      -0.30344451      -0.21292576      -0.06031069       0.13747985       0.00717549       0.09484580
H        8.73922940       2.51442533       4.22379557      -0.27413602      -0.12222025       0.08833350      -0.03061828      -0.08229259       0.22078557
H       14.46967709      12.64282039       1.92447206      -0.16737020       0.10318011       0.05116724      -0.13355259       0.07659694       0.10465818
H        3.37770522       8.11085527       6.17775497       0.36934406      -0.63452526      -0.61123422      -0.04257421      -0.01054712       0.21107941
H       18.14988364       3.97949152       6.21878095      -0.16190915      -0.12279882       0.41321026       0.03029866      -0.35971408       0.11692758
C        7.70576981       0.99865666       5.18860488       0.38944240       2.11501780      -1.88414911       0.44719094      -0.44617797      -0.44002507
C       13.78569610      11.10316655       3.09498092      -0.50191236       0.45810112       0.20106398       0.07710303       0.13117345      -0.15044596
C        4.26436659       6.63205647       5.01424768       0.34456662      -0.27402999       0.69407482       0.30878225       0.41655048       0.13629341
C       17.58444467       5.49741834       3.05198647      -0.72474236      -0.33748117       0.66752626      -0.51139589      -0.14525492      -0.19066701
N        6.69738666       0.47605206       5.82222146      -0.80111887      -0.42430125       1.12116783       0.11658430      -0.64540248       0.97756841
N       13.91708662       9.89192653       3.59161644      -1.14659586       0.06534103       0.45332587       0.18372655      -0.19286098       0.24754971
N        5.50645854       6.29660246       8.69677553      -0.42023318      -1.99159172      -0.35103709       0.08366999      -0.02653387       0.03588454
N       16.67512202       6.00814060       3.87434350       0.48449520       0.40292129      -0.32697973       0.07536698       0.24947069       0.48991828
N        7.80377465       2.24071938       4.65687565       0.05824492      -0.61945668       0.82653411      -1.07001928      -0.11558668       0.18110302
N       14.59468706      11.67198321       2.22240341      -0.27589488       0.15692277       0.26856745       1.00223684       0.11242788      -1.05399879
N        4.15693220       7.83465156       5.53680372      -0.36054437       1.47275346       0.95576779       0.51567758      -0.14050186       0.03694586
N       17.41280494       4.31791211       2.45801978       1.24978393       1.07305966      -0.26467313      -0.12001656       0.12644999       0.54747302
Pb       1.81342278       2.04182381       2.94910612      -0.06344278       0.07277087      -0.13720890      -2.09825751      -0.55378712       1.03929914
Pb      19.40181849      10.24134174       5.49304542       0.12916330      -0.16198673       0.00802486       0.79291169      -0.49832757       0.82109813
Pb       9.60804109       7.95940683       3.28953721      -0.05581120       0.12714109      -0.11793695       1.09021248       1.39046062       0.35293059
Pb      11.79074433       4.44807578       5.02554169       0.14320856      -0.27353172      -0.15235596      -0.84262424       0.06793234      -2.59984512
I        1.15218548       4.19972916       5.19343964      -0.00565075      -0.11236268       0.05318147      -0.18711359       0.17197106       0.80931390
I        1.09490542       8.24819221       3.01735394      -0.01113815      -0.04642655      -0.15705966      -0.71261085      -0.84959935       0.15843544
I       10.94026323      10.00044190       5.38045020      -0.14798075       0.08141618       0.22577281       1.85264730      -0.26245860      -0.51797899
I       10.73305723       2.31787293       2.69910629       0.11774676       0.07562016       0.04207637      -0.49733260       0.85284987      -0.94848790
I       18.38304061       0.64814955       3.27557853      -0.16951522       0.25873286      -0.03258830      -1.65674646       1.98321127      -1.04146173
I        3.06699288      11.52510757       4.98987963      -0.00589258       0.01426611       0.10867040      -0.71917460      -2.67769199       1.05192405
I       12.65051644       6.49818993       2.82235346       0.09412470       0.24740601      -0.18134037       0.45876523       1.14175915       1.32852378
I        8.67025075       5.85165414       5.43087568       0.17052007      -0.03317649       0.18202826      -1.26550845       1.09811378      -0.12136215
I        4.61391598       3.18993084       2.37858398       0.12380573       0.49815240       0.22227236       1.40380434       0.55157625       0.41654446
I       16.59732884       8.94143802       5.70394416       0.03337553       0.08363262       0.24246924      -0.07483877       0.92461474      -1.59974636
I        6.70314972       9.27151597       3.27454043       0.24958238       0.11253023      -0.01187459       1.84308394      -1.17289915      -1.50929312
I       14.58531616       2.92171390       4.54112719      -0.04398910       0.22967837       0.20728747       0.09134286      -1.10862940       1.25241534
H        8.99955823       0.54602531       9.91974217      -0.43854963       0.36995880       0.19035789       0.08559024       0.11185543       0.00417779
H       13.01385722      11.86063045       8.00273888      -1.40069694       0.77341578       0.21303573       0.08020099      -0.11521415      -0.16941956
H        3.85581284       5.87284501       9.83888284      -0.09566986      -0.15953794       0.29183953       0.12637022      -0.09765398      -0.01818773
H       18.59186259       5.91603918       7.56540969       0.02672288      -0.00144514      -0.32695488       0.03302929       0.04143594      -0.11399380
H        6.90303272      22.73642059       6.14085865       0.16646712       0.35869913      -0.12439055       0.11798201       0.08097792       0.14339374
H       14.62554536      12.70350411       6.48606652      -0.16061170       0.45424280      -0.10741843      -0.08476321       0.03202464      -0.20848336
H        5.30230728       5.26522864       3.87619803      -0.04951146       0.63204477       0.23119310      -0.05099061       0.13017582       0.07352659
H       16.83510038       6.91506210       8.72394688      -0.04434112       0.39229723       0.43892608       0.04435241      -0.11984746      -0.06433907
H        6.15370623       1.37413908      10.79236290       0.04412586      -0.12793913       0.00068566      -0.15320750       0.19107397       0.18204850
H       15.58656558      11.25361308       6.68917949      -0.09083444       0.07442421      -0.01772901       0.07378491      -0.21956289       0.06162728
H        5.99228954       6.92121215       3.96611582       0.08029036       0.10345494      -0.08407310      -0.01171576      -0.15143605      -0.34843549
H       15.63839478       5.56507728       8.39690176      -0.01424433       0.16477285       0.30167452       0.19623005       0.07993226       0.09249510
H        7.07507317       2.82803711       9.25596222      -0.32150223       0.77801973       0.29573248       0.02162792      -0.18392798      -0.10137214
H       15.02035034       9.61999093       8.31667094      -0.61277830       0.50234914      -0.03892039       0.02391848       0.03673718       0.07620530
H        5.15088695       8.60890643       9.96144639      -0.21286952      -0.17594964      -0.12164894      -0.20104677      -0.09034437      -0.02085727
H       16.42763470       3.76567072       6.85778882       0.91680394       0.39521497      -0.35577107      -0.06590556       0.01005372      -0.03105592
H        8.84103716       2.69984114       8.78603778      -0.54587864      -0.51073706       0.69511058       0.01710154       0.07973756       0.04244422
H       13.34191314       9.74356030       8.93255471      -0.29545046      -0.06619802       0.41267266      -0.06664014      -0.09299689       0.06393426
H        3.63860673       8.01164415      10.68747380      -0.11642663       0.23937940       0.27723127      -0.03803876      -0.01423055      -0.07622475
H       18.19400428       4.02375774       1.84106362      -0.47496014      -0.20677284       0.26864358       0.09100421       0.18783778       0.24969681
C        8.06674134       1.18817057       9.99160912       0.21086306      -1.05326371       0.32361996      -0.39457940      -0.02032088      -0.31745942
C       13.86852497      11.30282752       7.77284565       1.88484214      -0.69437948      -0.36647889       0.17408761      -0.20953119       0.23786470
C        4.60768321       6.63048202       9.58631975      -0.61850469       0.24162550      -0.42503713       0.56613235       0.39728504      -0.23235722
C       17.56750028       5.40400303       7.56138037      -0.48001259       0.18193817       1.09739055      -0.33324030       0.44138059      -0.46572613
N        6.97678006       0.72871481      10.64898796       0.16617089       0.24932083      -0.39584455      -0.55676062      -0.36340400      -0.92930372
N       14.75474679      11.80579297       6.94841613       0.24417338      -0.23349167      -0.16528577      -0.35700161      -0.04790951      -0.02223674
N        5.27277944       6.24602883       4.25728202      -0.17955927      -0.96414180      -0.52107682      -0.16322224       0.32137646       0.19776968
N       16.63089598       5.99573394       8.33838790       0.91911329      -1.50988026      -1.83409028       0.44455463      -0.11851840      -0.92983729
N        8.09405131       2.38367640       9.45055918       0.67527411      -0.03283966      -1.21906029       0.02598027       0.43220970       0.28922692
N       14.09987238      10.15451306       8.38773553       0.60795895      -0.84676694      -0.07267193      -0.09653161      -0.00504713       0.22486839
N        4.44810012       7.85935278      10.07282879       0.23277527       0.01001967       0.27390891      -0.04126011       0.52873244       0.58318725
N       17.43274991       4.24655357       6.91794101      -1.17914779       0.53658158       0.38999081       0.70899404       0.45598525       0.21687847
Pb       2.23441136       2.02166541       7.44863885      -0.29154099       0.00999195      -0.13635869       2.10769432      -0.75846635       2.93925073
Pb      19.90156535      10.24915231       9.93504796      -0.28848451      -0.22581544       0.16969270       0.49081398       3.49609332       1.14991383
Pb       9.97238174       8.04308236       7.78358072      -0.25841723      -0.10214727      -0.12369566       0.65670923      -0.51530371      -0.32382250
Pb      11.93902015       4.41267347       9.59040228      -0.12719135      -0.06269831       0.01175109       0.92783968       2.21657755      -3.60805336
I        1.31454715       4.09602842       9.61678198      -0.02340568       0.02193476       0.12366625       0.37962568       0.37804570      -0.50961399
I        1.09268208       8.11105901       7.52625589       0.06637099      -0.11594993      -0.07751676       0.94770848      -0.44786620       2.74675518
I       11.05952815       9.86299912       9.99377040      -0.13496453       0.14017088       0.10193033       2.18441586      -1.44318202       0.02445755
I       10.94588978       2.39811534       7.19949946      -0.15294846      -0.16812275       0.28624374       1.35634894      -0.59378101      -3.25770943
I       18.42592877       0.75950749       7.78812537       0.29920919       0.05994665       0.10071994      -0.20056881       0.67902316       0.60023418
I        3.18826020      11.45297462       9.66074108       0.27869275       0.10435785      -0.07866695       0.62621162      -0.72721936       0.65843845
I       13.00882211       6.47064131       7.20795279      -0.12206995       0.12739715       0.12985243      -1.65168729       0.93520853       1.94600739
I        8.92689592       5.98256380      10.15333507      -0.07876566      -0.13189410      -0.26940211       1.49882699       0.91028134       0.92958920
I        5.08565981       3.29289338       7.12716731      -0.02779756      -0.07329155      -0.08764460       2.31524879      -2.03120574       1.94010363
I       17.08869238       8.86110169      10.55436746      -0.17006868      -0.18198646      -0.26672233       0.96726101       0.72828594      -1.11183270
I        7.04121706       9.30988336       7.89310947       0.23713097       0.03755659      -0.06850842       2.06503366       1.32566823      -0.20795152
I       14.60108030       3.11644905       9.39510803       0.37221455      -0.11437024      -0.01491109       1.60440657      -1.32263439       1.62376331
H        8.87149988       0.31658553      14.07947283       0.95893078      -0.97313443      -0.22208653      -0.12032291      -0.12637495       0.05913581
H       13.26106307      11.62504556      12.57032314       0.16092696      -0.18578190      -0.10232736       0.03918993      -0.10158340      -0.01229231
H        3.87444078       5.78552749      14.47588888      -0.27348870      -0.06526767      -0.34583206      -0.00505605      -0.07499401       0.05295437
H       18.88243840       5.99383732      12.05593599      -0.59483879      -0.42047465      -0.12086108      -0.00533238      -0.26524762      -0.13715251
H        6.78026854      23.10199007       1.90424551       0.38992120      -0.10078307      -0.10991685       0.04019287       0.13534606       0.01372977
H       13.48317124       9.40900100      13.31682587       0.71144863       0.52241591      -0.55006315       0.03876085       0.00073542      -0.03566549
H        5.86076734       5.19523960      17.47241653       0.11148737       1.39035416       0.49775337       0.03209745      -0.15442899       0.20160900
H       17.09598371       6.86468682      13.38866222       0.39373545       0.33235105      -0.00016954      -0.06826559       0.30042082       0.09734445
H        6.30951932       1.03974539      15.27611419      -0.51610263       0.03078547       0.14143840       0.01420201       0.25423260      -0.05171691
H       14.98314834       9.19062919      12.41063848       0.65611207      -0.41700651      -0.17012749      -0.03088632      -0.07641458       0.02435940
H        6.45650817       6.93161891      17.41899414       0.89788911       0.44677498      -0.23334845      -0.16696510       0.28502049       0.02359296
H       16.07862847       5.52381163      13.22427871      -0.16294417      -0.83809985      -0.24901316       0.06260807      -0.11629966       0.11201904
H        7.48194988       2.93938523      13.98414507       0.04363773      -0.38967527      -0.02452942       0.25673821      -0.10487008      -0.07395598
H       15.75106920      11.10133672      11.02343643       0.55250312      -0.45334767      -0.30945129      -0.07227564      -0.15568691       0.08016724
H        5.18285100       8.50719843      14.51906979      -0.06729532      -0.36043565      -0.27123022       0.05001867      -0.07258578       0.02864201
H       16.94023436       3.64654526      11.77275141      -0.30344451      -0.21292576      -0.06031069       0.13747985       0.00717549       0.09484580
H        9.07092164       2.43298793      13.34712367      -0.27413602      -0.12222025       0.08833350      -0.03061828      -0.08229259       0.22078557
H       14.80136933      12.56138299      11.04780016      -0.16737020       0.10318011       0.05116724      -0.13355259       0.07659694       0.10465818
H        3.70939746       8.02941787      15.30108307       0.36934406      -0.63452526      -0.61123422      -0.04257421      -0.01054712       0.21107941
H       18.48157588       3.89805412      15.34210905      -0.16190915      -0.12279882       0.41321026       0.03029866      -0.35971408       0.11692758
C        8.03746205       0.91721926      14.31193298       0.38944240       2.11501780      -1.88414911       0.44719094      -0.44617797      -0.44002507
C       14.11738834      11.02172915      12.21830902      -0.50191236       0.45810112       0.20106398       0.07710303       0.13117345      -0.15044596
C        4.59605883       6.55061907      14.13757578       0.34456662      -0.27402999       0.69407482       0.30878225       0.41655048       0.13629341
C       17.91613691       5.41598094      12.17531457      -0.72474236      -0.33748117       0.66752626      -0.51139589      -0.14525492      -0.19066701
N        7.02907890       0.39461466      14.94554956      -0.80111887      -0.42430125       1.12116783       0.11658430      -0.64540248       0.97756841
N       14.24877886       9.81048913      12.71494454      -1.14659586       0.06534103       0.45332587       0.18372655      -0.19286098       0.24754971
N        5.83815078       6.21516506      17.82010363      -0.42023318      -1.99159172      -0.35103709       0.08366999      -0.02653387       0.03588454
N       17.00681426       5.92670320      12.99767160       0.48449520       0.40292129      -0.32697973       0.07536698       0.24947069       0.48991828
N        8.13546689       2.15928198      13.78020375       0.05824492      -0.61945668       0.82653411      -1.07001928      -0.11558668       0.18110302
N       14.92637930      11.59054581      11.34573151      -0.27589488       0.15692277       0.26856745       1.00223684       0.11242788      -1.05399879
N        4.48862444       7.75321416      14.66013182      -0.36054437       1.47275346       0.95576779       0.51567758      -0.14050186       0.03694586
N       17.74449718       4.23647471      11.58134788       1.24978393       1.07305966      -0.26467313      -0.12001656       0.12644999       0.54747302
Pb       2.14511502       1.96038641      12.07243422      -0.06344278       0.07277087      -0.13720890      -2.09825751      -0.55378712       1.03929914
Pb      19.73351073      10.15990434      14.61637352       0.12916330      -0.16198673       0.00802486       0.79291169      -0.49832757       0.82109813
Pb       9.93973333       7.87796943      12.41286531      -0.05581120       0.12714109      -0.11793695       1.09021248       1.39046062       0.35293059
Pb      12.12243657       4.36663838      14.14886979       0.14320856      -0.27353172      -0.15235596      -0.84262424       0.06793234      -2.59984512
I        1.48387772       4.11829176      14.31676774      -0.00565075      -0.11236268       0.05318147      -0.18711359       0.17197106       0.80931390
I        1.42659766       8.16675481      12.14068204      -0.01113815      -0.04642655      -0.15705966      -0.71261085      -0.84959935       0.15843544
I       11.27195547       9.91900450      14.50377830      -0.14798075       0.08141618       0.22577281       1.85264730      -0.26245860      -0.51797899
I       11.06474947       2.23643553      11.82243439       0.11774676       0.07562016       0.04207637      -0.49733260       0.85284987      -0.94848790
I       18.71473285       0.56671215      12.39890663      -0.16951522       0.25873286      -0.03258830      -1.65674646       1.98321127      -1.04146173
I        3.39868512      11.44367017      14.11320773      -0.00589258       0.01426611       0.10867040      -0.71917460      -2.67769199       1.05192405
I       12.98220868       6.41675253      11.94568156       0.09412470       0.24740601      -0.18134037       0.45876523       1.14175915       1.32852378
I        9.00194299       5.77021674      14.55420378       0.17052007      -0.03317649       0.18202826      -1.26550845       1.09811378      -0.12136215
I        4.94560822       3.10849344      11.50191208       0.12380573       0.49815240       0.22227236       1.40380434       0.55157625       0.41654446
I       16.92902108       8.86000062      14.82727226       0.03337553       0.08363262       0.24246924      -0.07483877       0.92461474      -1.59974636
I        7.03484196       9.19007857      12.39786853       0.24958238       0.11253023      -0.01187459       1.84308394      -1.17289915      -1.50929312
I       14.91700840       2.84027650      13.66445529      -0.04398910       0.22967837       0.20728747       0.09134286      -1.10862940       1.25241534
H        8.66786599       0.62746271       0.79641407      -0.43854963       0.36995880       0.19035789       0.08559024       0.11185543       0.00417779
H       13.34554946      11.77919305      17.12606698      -1.40069694       0.77341578       0.21303573       0.08020099      -0.11521415      -0.16941956
H        3.52412060       5.95428241       0.71555474      -0.09566986      -0.15953794       0.29183953       0.12637022      -0.09765398      -0.01818773
H       18.92355483       5.83460178      16.68873779       0.02672288      -0.00144514      -0.32695488       0.03302929       0.04143594      -0.11399380
H        7.23472496      22.65498319      15.26418675       0.16646712       0.35869913      -0.12439055       0.11798201       0.08097792       0.14339374
H       14.95723760      12.62206671      15.60939462      -0.16061170       0.45424280      -0.10741843      -0.08476321       0.03202464      -0.20848336
H        5.63399952       5.18379124      12.99952613      -0.04951146       0.63204477       0.23119310      -0.05099061       0.13017582       0.07352659
H       17.16679262       6.83362470      17.84727498      -0.04434112       0.39229723       0.43892608       0.04435241      -0.11984746      -0.06433907
H        5.82201399       1.45557648       1.66903480       0.04412586      -0.12793913       0.00068566      -0.15320750       0.19107397       0.18204850
H       15.91825782      11.17217568      15.81250759      -0.09083444       0.07442421      -0.01772901       0.07378491      -0.21956289       0.06162728
H        6.32398178       6.83977475      13.08944392       0.08029036       0.10345494      -0.08407310      -0.01171576      -0.15143605      -0.34843549
H       15.97008702       5.48363988      17.52022986      -0.01424433       0.16477285       0.30167452       0.19623005       0.07993226       0.09249510
H        6.74338093       2.90947451       0.13263412      -0.32150223       0.77801973       0.29573248       0.02162792      -0.18392798      -0.10137214
H       15.35204258       9.53855353      17.43999904      -0.61277830       0.50234914      -0.03892039       0.02391848       0.03673718       0.07620530
H        4.81919471       8.69034383       0.83811829      -0.21286952      -0.17594964      -0.12164894      -0.20104677      -0.09034437      -0.02085727
H       16.75932694       3.68423332      15.98111692       0.91680394       0.39521497      -0.35577107      -0.06590556       0.01005372      -0.03105592
H        9.17272940       2.61840374      17.90936588      -0.54587864      -0.51073706       0.69511058       0.01710154       0.07973756       0.04244422
H       13.67360538       9.66212290      18.05588281      -0.29545046      -0.06619802       0.41267266      -0.06664014      -0.09299689       0.06393426
H        3.30691449       8.09308155       1.56414570      -0.11642663       0.23937940       0.27723127      -0.03803876      -0.01423055      -0.07622475
H       18.52569652       3.94232034      10.96439172      -0.47496014      -0.20677284       0.26864358       0.09100421       0.18783778       0.24969681
C        7.73504910       1.26960797       0.86828102       0.21086306      -1.05326371       0.32361996      -0.39457940      -0.02032088      -0.31745942
C       14.20021721      11.22139012      16.89617375       1.88484214      -0.69437948      -0.36647889       0.17408761      -0.20953119       0.23786470
C        4.27599097       6.71191942       0.46299165      -0.61850469       0.24162550      -0.42503713       0.56613235       0.39728504      -0.23235722
C       17.89919252       5.32256563      16.68470847      -0.48001259       0.18193817       1.09739055      -0.33324030       0.44138059      -0.46572613
N        6.64508782       0.81015221       1.52565986       0.16617089       0.24932083      -0.39584455      -0.55676062      -0.36340400      -0.92930372
N       15.08643903      11.72435557      16.07174423       0.24417338      -0.23349167      -0.16528577      -0.35700161      -0.04790951      -0.02223674
N        5.60447168       6.16459143      13.38061012      -0.17955927      -0.96414180      -0.52107682      -0.16322224       0.32137646       0.19776968
N       16.96258822       5.91429654      17.46171600       0.91911329      -1.50988026      -1.83409028       0.44455463      -0.11851840      -0.92983729
N        7.76235907       2.46511380       0.32723108       0.67527411      -0.03283966      -1.21906029       0.02598027       0.43220970       0.28922692
N       14.43156462      10.07307566      17.51106363       0.60795895      -0.84676694      -0.07267193      -0.09653161      -0.00504713       0.22486839
N        4.11640788       7.94079018       0.94950069       0.23277527       0.01001967       0.27390891      -0.04126011       0.52873244       0.58318725
N       17.76444215       4.16511617      16.04126911      -1.17914779       0.53658158       0.38999081       0.70899404       0.45598525       0.21687847
Pb       2.56610360       1.94022801      16.57196695      -0.29154099       0.00999195      -0.13635869       2.10769432      -0.75846635       2.93925073
Pb      19.56987311      10.33058971       0.81171986      -0.28848451      -0.22581544       0.16969270       0.49081398       3.49609332       1.14991383
Pb      10.30407398       7.96164496      16.90690882      -0.25841723      -0.10214727      -0.12369566       0.65670923      -0.51530371      -0.32382250
Pb      11.60732791       4.49411087       0.46707418      -0.12719135      -0.06269831       0.01175109       0.92783968       2.21657755      -3.60805336
I        0.98285491       4.17746582       0.49345388      -0.02340568       0.02193476       0.12366625       0.37962568       0.37804570      -0.50961399
I        1.42437432       8.02962161      16.64958399       0.06637099      -0.11594993      -0.07751676       0.94770848      -0.44786620       2.74675518
I       10.72783591       9.94443652       0.87044230      -0.13496453       0.14017088       0.10193033       2.18441586      -1.44318202       0.02445755
I       11.27758202       2.31667794      16.32282756      -0.15294846      -0.16812275       0.28624374       1.35634894      -0.59378101      -3.25770943
I       18.75762101       0.67807009      16.91145347       0.29920919       0.05994665       0.10071994      -0.20056881       0.67902316       0.60023418
I        2.85656796      11.53441202       0.53741298       0.27869275       0.10435785      -0.07866695       0.62621162      -0.72721936       0.65843845
I       13.34051435       6.38920391      16.33128089      -0.12206995       0.12739715       0.12985243      -1.65168729       0.93520853       1.94600739
I        8.59520368       6.06400120       1.03000697      -0.07876566      -0.13189410      -0.26940211       1.49882699       0.91028134       0.92958920
I        5.41735205       3.21145598      16.25049541      -0.02779756      -0.07329155      -0.08764460       2.31524879      -2.03120574       1.94010363
I       16.75700014       8.94253909       1.43103936      -0.17006868      -0.18198646      -0.26672233       0.96726101       0.72828594      -1.11183270