768
Lattice="38.994998665037166 0.07106821782705662 0.35547318029268 0.20366633889610405 23.235525993811105 -0.050934670340891476 0.6633844787472418 -0.16287480069770385 18.246656201326342" Properties=species:S:1:pos:R:3:forces:R:3:momenta:R:3 energy=-3649.5581224993157 stress="0.0 0.0 0.0 0.0 0.0 0.0 0.0 0.0 0.0" pbc="T T T"
H        8.17889342       0.65579229       4.22375054      -0.00357859       0.37836459      -0.07057304      -0.17885608       0.01629181      -0.13885621
H       12.53701188      12.22525176       3.07668428      -0.20258677       0.21090076       0.18990934      -0.07415661       0.20995310      -0.09361766
H        3.29819235       6.02050727       5.18696454       0.20755355      -0.13059593      -0.04574023      -0.08298902      -0.06262298       0.16294758
H       17.68795847       6.49498978       2.10235200      -0.25225429      -0.25189959       0.39802376      -0.00553479      -0.02825847       0.06206235
H        6.77267212      -0.42659182      10.32447789       0.32676147      -0.43886667       0.14633221      -0.04220291      -0.06991709      -0.23722610
H       12.72642140       9.93269276       3.74650011      -0.22891117      -0.06106599       0.24172751       0.08150760       0.05018312      -0.02557177
H        4.73910670       5.48100275       8.17950086       0.05104925       2.98224908       1.25482832       0.02820742       0.03148393      -0.02991439
H       16.13521643       7.19095629       3.73672384       0.28558598       1.34727254       0.26106435      -0.13048795       0.01080981       0.05788601
H        5.91763724       1.48259118       6.06385100       0.94097469      -0.63587671      -0.37461265      -0.08681133      -0.05939579      -0.04016824
H       14.17241502       9.76612340       2.67014609      -0.02368685      -0.53240885       0.33725078      -0.08253923       0.13956066      -0.18986884
H        5.45800185       7.17703284       8.18950797      -0.18198124       0.05283741      -0.09711485      -0.32671974      -0.16910507      -0.11195674
H       15.35391764       5.66541056       3.87750086       0.27846749      -0.17286775      -0.22365027       0.11188607      -0.00624302       0.05058737
H        6.60236318       3.19676813       4.35023536      -0.38788587       0.38447740       0.09270285       0.05356522       0.20879510       0.09910523
H       14.85555698      11.47305149       1.39681079       0.28958360      -0.05013777      -0.25550811      -0.06081924       0.02047782      -0.10763996
H        4.58078139       8.73677203       4.94159677       0.28881600       0.32862520       0.14343122      -0.17433813      -0.12499156       0.01447357
H       16.40617942       3.72885533       2.49090682      -0.26529643      -0.12869074       0.34719977      -0.10414207      -0.04235498      -0.06564768
H        8.02501473       2.88549796       3.41382375       0.81081199       0.07538611      -0.74921842       0.05463631      -0.18917315       0.08758836
H       14.09774806      13.06335353       1.52621242      -0.19717208       0.30018878      -0.22997295       0.02024144      -0.03224635      -0.12914551
H        3.20545737       8.19632096       5.97133105       0.06380187       0.00929639      -0.07180629       0.17719047       0.12908830       0.07345022
H       17.86371256       4.32931622       5.61815937       0.37888336       0.26463213      -0.03824897       0.06084256       0.00353540       0.02866286
C        7.41604760       1.36757105       4.60919492       1.13614760       0.24266344      -0.97749703       0.05863079       0.03139486      -0.56286171
C       13.33863620      11.59290873       2.69630559      -1.28526175      -0.86934363       0.80452046      -0.20967059      -0.17473963      -0.17273608
C        4.06081095       6.74130898       4.83560506       0.25088190      -0.30466335      -0.30224058      -0.23877253       0.34419861      -0.30020184
C       16.96398631       5.75451426       2.58240876       0.66659625       0.00173060      -0.51801588      -0.14276551       0.42535713      -0.18411714
N        6.70604671       0.92315790       5.61906459      -1.65290181      -0.25785718       1.01942187       0.57359381      -0.21413931      -0.21334169
N       13.44429939      10.35388394       3.15943045       0.53104084       0.63139256      -0.79229379      -0.01795598       0.28814107       0.40002763
N        4.66736876       6.58074119       8.47131302      -0.27570099      -2.96946796      -0.77438790      -0.23948115      -0.88245060       0.00269258
N       16.08001900       6.25504643       3.41030848      -0.79207747      -1.39393830      -0.10053847       0.22912370      -0.53088496       0.24236327
N        7.31598295       2.55128655       4.03169376      -0.79402444      -0.76643491       1.05676018       0.18341191      -0.39711729       0.00521927
N       14.09389926      12.05449988       1.75172166       1.18421976       0.25137677      -0.39363159       0.19502627       0.53494089      -0.65504973
N        3.99002998       7.96123757       5.34952302      -0.14132709      -0.42493526      -0.53589221      -0.60081656       0.01061205       0.21359681
N       17.08820364       4.44839545       2.25146911       0.03269027       0.09061163      -0.38922382      -0.03665180       0.86896656       0.15240430
Pb       1.52602796       2.25877238       2.50055101       0.14176817       0.08100318      -0.02589488       2.03976546       0.07359212      -2.98337073
Pb      19.05408512      10.30713508       5.19285899       0.05201116       0.22247380      -0.22182596      -0.29336900       1.77524735      -1.66760268
Pb       9.16450176       8.13531019       2.82044269      -0.00515209       0.18419627      -0.45780589      -2.77775863      -1.01289014      -0.03698718
Pb      11.35881812       4.64145573       4.76778292       0.27377558      -0.29457602      -0.19814623       2.22441700      -0.41713998      -0.72486581
I        0.84678333       4.42923339       4.72164837       0.01062953      -0.19462181       0.06700247       0.16575468       0.76799266      -0.04118751
I        0.61778568       8.14257229       2.35637711      -0.12688722      -0.00222979       0.32646697       0.34847178      -1.01995970      -1.27995827
I       10.19401751      10.07673789       4.83900733       0.28989703       0.17635392       0.41295704       1.69683929      -0.96845184      -0.93318488
I       10.24890138       2.56749493       2.38724877       0.24432155       0.24374394      -0.15537980       1.50202021      -0.48567510      -0.12951823
I       18.19845221       0.93969603       2.71611310      -0.17046322      -0.15389532       0.18693224      -1.16997331      -0.27392140       1.25667494
I        2.73192218      11.63613290       4.43587418       0.13418163      -0.19528133       0.10580451       0.37739320       0.69376241       1.44830070
I       12.09180813       6.70963696       2.44828559       0.17619690       0.10662872      -0.09487114       2.62622631       3.50292449      -1.02824107
I        8.51288524       5.90244551       4.96470700      -0.30815194       0.05937325       0.13172879       0.49534454       0.68013334      -0.88186031
I        4.43847841       3.47209915       1.88308900       0.00551702      -0.10330826       0.01492691      -0.03754367      -1.14691994       0.84470829
I       16.24020697       9.13677183       5.46382866      -0.06280509      -0.17013140      -0.09439116      -1.03224347      -1.21330756      -0.98067995
I        6.38168671       9.63456367       2.88317487      -0.12265829      -0.17056998       0.03436881      -1.18672238      -2.16705835      -0.19551219
I       14.13777897       3.19389985       4.31530870       0.16347516       0.03933898       0.10831074       1.58171530       3.14891558       0.55446036
H        8.30167525       0.48021427       8.60813957       0.06274364      -0.39263787       0.20297383       0.08488187       0.02425420      -0.05972780
H       12.61250372      12.01100242       7.37583831      -0.07870736      -0.04757244      -0.50048511       0.01780340      -0.20521042      -0.16112352
H        3.02363385       6.28326146       9.80798980       0.36856305       0.15925051      -0.69506868       0.12187913      -0.01001848      -0.12789536
H       17.84595549       6.33665739       6.88438083      -0.25459312      -0.21316884       0.16688775       0.18608397      -0.23886248      -0.03770563
H        6.82908458      -0.09232133       5.84956450      -0.29369592       0.47269288       0.08102299      -0.13841260      -0.21027449       0.11428525
H       14.09643256      12.84556778       5.66052630       0.01009895      -0.50374223       0.24913365       0.07543200       0.22807220       0.07015997
H        4.86847140       5.38850065       3.53532441      -0.12889123      -0.40673009      -0.08697298      -0.03182263      -0.03707906      -0.06615689
H       16.18427125       6.87860581       8.33315397      -0.29720614      -0.45953112       0.04431800       0.02512960       0.05014115      -0.04311270
H        6.03044679       1.15218998      10.59394045       0.16837798      -0.02454630      -0.35806157       0.22152319      -0.01707209       0.05684550
H       15.06445696      11.31352982       5.77485910      -0.89966898       0.67180666       0.13421236      -0.02499314       0.11827463      -0.26547313
H        5.62396893       7.01224917       3.43633228      -1.11042259      -0.70796672       0.68471172      -0.17337219       0.09968753       0.06942259
H       15.28267406       5.32132049       8.08587860      -0.18188829      -0.02015449       0.20063938      -0.13531946      -0.11874820       0.07990250
H        6.60552020       2.95587579       9.16166996       0.41392732      -0.23350873      -0.27893059      -0.03083920      -0.01321604      -0.18980070
H       14.29553719       9.53227674       7.37152264       0.66055612      -0.21425381      -0.41209189      -0.09282801       0.25338787       0.01987660
H        4.42458914       8.94562151       9.60029335       0.43103425       0.28263287      -0.23232352       0.02629867      -0.06733325      -0.03159593
H       16.31567286       3.82520684       6.19827288      -0.69017416      -0.50989799       0.21981089       0.04272250      -0.00261321      -0.09576842
H        7.99392383       2.73923279       7.99811448       0.09420283      -0.02874053       0.02502646       0.06111619       0.06705364      -0.16038234
H       12.88312988       9.93646661       8.30771538       0.30316954       0.31550739      -0.46650020       0.08640331       0.09448803      -0.08114230
H        2.93400969       8.57335509      10.39475320       0.35559936      -0.50844812      -0.23404919       0.02909060      -0.20114991       0.05945592
H       17.83629007       4.17171380       1.59285887      -0.18314164       0.31400294       0.17246559       0.05642301      -0.03831498       0.12920479
C        7.50594435       1.06623829       9.11413144      -1.17707225       1.74824777      -0.71795273      -0.02148433      -0.78300122      -0.15994235
C       13.41444211      11.38721623       6.92621937      -0.64350186      -1.64951714       2.61572464       0.11646718      -0.04928433       0.64386423
C        3.77888069       6.99384379       9.34786005      -0.05480579       0.28421076       0.85217684      -0.32218589       1.01162257       0.22427544
C       17.00887232       5.61053490       7.01376697       0.81125305       0.39042469      -0.46349965       0.01663961      -0.16149602      -0.32384619
N        6.71199430       0.54945783      10.04732168       0.38531871       0.58607441      -0.06180319      -0.33056330      -0.77893280      -0.13806558
N       14.20299379      11.87912172       6.03925051       1.76826664       0.14762483      -1.45437240       0.21922800       0.68952686      -0.05029343
N        4.96286082       6.31039884       3.95546568       0.39799404       1.92627902       0.02615233       0.01411010       0.22058623      -0.29401358
N       16.08523163       5.93914024       7.90090862       0.57461327       0.21264808      -0.47673190       0.63916516      -0.30995083      -0.48805536
N        7.30985513       2.32175281       8.64081120      -0.17640360      -1.11764947       1.16846338       0.13392253       0.05917964      -0.00181868
N       13.56636578      10.19712271       7.55619121      -1.10182718       1.47662715      -0.05989377      -0.03487137       0.37470565      -0.03732942
N        3.75621250       8.22789283       9.85286856      -0.80502664      -0.27714554       0.09527679      -1.34854274       0.23966985       0.37538506
N       17.06185194       4.52319798       6.22946080      -0.21187892       0.35095317       0.32287583      -0.07279125      -0.54144803       0.60629189
Pb       1.89856778       2.22275001       6.98877657      -0.04389053       0.18968152      -0.11383388      -0.11950699       0.76476395       0.59162562
Pb      19.20400910      10.22500157       9.73702994       0.13371156       0.31574198      -0.00766526       0.76644797      -1.60028381       0.59362811
Pb       9.49542236       8.02704605       7.34651028       0.10500727      -0.03792383       0.02063221       0.21970158       0.32978151      -2.06300614
Pb      11.68388236       4.58372130       9.14315591      -0.08976964       0.01651634       0.10553470      -0.42658786       0.78469648      -0.66352716
I        1.11084496       4.41051397       9.24351073      -0.13551948      -0.32310437       0.13470855      -0.77505185      -1.95221041      -1.40842118
I        0.83745123       8.20029648       7.22675248      -0.01001285       0.00326070      -0.20780238       0.18646601      -1.00505933       0.92779426
I       10.48940723      10.30564361       9.38062500      -0.02489005      -0.03956522       0.02507188       1.20438266       0.39727431      -0.16966542
I       10.65200033       2.46373357       7.06469953      -0.26115406      -0.00271472      -0.02818665      -0.51560330       0.78442900       0.43224106
I       18.10402695       0.84999643       7.43414450       0.13862605      -0.20475418      -0.05233445      -1.20382030      -0.95310928      -1.03099401
I        2.78452626      11.70919188       9.02484817       0.01420692       0.06557444      -0.18050478      -0.97030187       0.82538414       0.73117807
I       12.67486341       6.81789847       6.85124857      -0.16639618      -0.17076122       0.04156920       0.16327805       1.96290304       2.87702477
I        8.45135430       5.83331129       9.67947187       0.15067172       0.25908648      -0.24138312       1.73921719       0.10350817      -1.24498836
I        4.65522992       3.73309544       6.47910549      -0.06763888      -0.24878476       0.04575751       0.85129984      -0.63348023       1.61978432
I       16.42330045       8.94597934       9.72817995      -0.26414188      -0.04357539       0.16874048       0.74643424       3.26628225       0.34017281
I        6.71756327       9.26721399       7.25877597      -0.15053829       0.07294015       0.26354604       0.41385385      -0.05182744      -0.26257666
I       14.31221786       3.06732462       8.76601997       0.09934742       0.00475464       0.07277403       1.23214413      -0.28899604       0.61060908
H        8.62840997       0.24078664      13.48216739      -0.06913135      -0.02024422       0.28373803       0.27281623       0.15159722       0.12807962
H       12.96545611      12.18963600      12.18930571       1.00195955      -0.60244426      -0.36585557      -0.13263946       0.07648177       0.09329550
H        3.56234807       6.12934136      14.62130160      -0.22098308      -0.16155435       0.09318981      -0.02914908       0.22008192       0.01543897
H       18.19005014       6.26364574      10.89588319       0.62491278       0.03668705       0.12234784       0.00207149       0.09388451      -0.05500642
H        6.65818290      -0.08311792       0.61887053       0.14338339      -1.51214474       0.68825392      -0.11505976      -0.09079019       0.11918226
H       13.23770697      10.02038578      12.98905316       0.29957266       0.20942219      -0.28381612       0.13610030      -0.18557821       0.08063871
H        4.52677789       5.58257708      -0.81839884      -0.34415287      -0.02209405      -0.30025293       0.00991280      -0.00757371       0.08065818
H       16.80533331       7.09658639      12.64527823       0.09538223       0.57321433       0.35903308       0.06296697       0.19630268       0.14592825
H        6.14029261       1.01852100      15.00079096       0.56470062      -0.83348313       0.01134633       0.10178794       0.06978992       0.03223016
H       14.58663383       9.65673110      11.90523031       0.30978663       0.03413561      -0.01596278      -0.07976447       0.16851694      -0.19860579
H        5.05965884       7.33621744      -1.26128877       0.37780403       0.01652095       0.12494228       0.03302974       0.16775484       0.01751552
H       15.96433557       5.52448504      12.75016791       0.00753554       0.32933403       0.34558575       0.00097620       0.02845540      -0.07382576
H        7.01823847       2.76041630      13.72773075       0.75476579      -0.08063138      -0.28912946       0.02337820       0.15953203       0.05187149
H       15.29203966      11.33044368      10.34398000      -0.52503403       0.39488527       0.29195849      -0.17015979      -0.05728057       0.02157416
H        4.97028000       8.78289336      14.05409330       0.60508947       0.74692469      -0.07635905      -0.15356131      -0.13556712       0.00609737
H       16.45138184       3.83898972      11.40207030       0.81001958      -0.08973578      -0.44090050      -0.09261916      -0.00007520       0.12151947
H        8.62031514       2.44616097      12.88135596      -0.32236786       0.41638536      -0.01922116      -0.00498717      -0.11578352       0.06813135
H       14.46126973      12.91027634      10.45287168      -0.04334482       0.08186427      -0.18738840      -0.06791804      -0.10973022       0.04261199
H        3.59904320       8.42720144      15.15836072      -0.05460720       0.17552749      -0.00981741       0.04987302       0.10652087      -0.12620083
H       18.06826323       3.71919797      15.26942906       0.34014348       0.29432632      -0.19490788       0.20203987      -0.06288090      -0.01034314
C        7.81995695       0.88768118      13.85888099      -0.44512123       0.05813355       0.11713908       0.17855626      -0.26183982      -0.40759018
C       13.78365975      11.51061987      11.77953031      -0.04829941       3.02145948      -1.03745439       0.32739824      -0.47480626      -0.38677017
C        4.31584743       6.80259643      14.16686296      -0.03873704       1.07652400       0.09260846       0.26707094       0.48677002      -0.24073761
C       17.46080524       5.59174320      11.40672652      -0.16751179       0.89690682      -0.32318243      -0.50340710       0.26043700      -0.03438607
N        6.88906585       0.36883375      14.64219538       0.14743539       1.49709226      -0.65253093       0.29777990      -0.61688634      -0.42796262
N       13.96413210      10.38581260      12.34318739      -0.99465864      -2.85744145       1.47610664      -0.00963163      -0.49866730       0.12936332
N        4.42893945       6.66999305      -0.72777990       0.04221287       0.58847584      -0.04522798       0.02944008       0.43098093       0.51360916
N       16.72274712       6.11980079      12.38522040      -0.28024309      -1.39830255      -0.61043692      -0.27695291       0.17996817      -0.11433766
N        7.82371383       2.15681500      13.46978981      -0.42206814       0.02748110       0.08271923      -0.38435800      -0.47205502       0.57779636
N       14.55457270      11.94182457      10.76976497      -0.05222053      -0.52714934       0.17959248       0.01346615      -0.04461497      -0.69541637
N        4.30652891       8.11920553      14.48437847      -0.49335181      -1.37890430      -0.01862189       0.08369559       0.11382574       0.18021730
N       17.26556001       4.38122073      10.92074402      -1.81116482      -0.27175177       1.20779717      -0.11373854      -0.14731524       0.64935939
Pb       2.11236774       2.24647505      11.58300455      -0.32330301       0.06537849      -0.07045081      -0.73529757      -0.01689917      -1.76162673
Pb      19.39734747      10.15369934      14.26495043       0.26336565       0.15186514       0.00070953      -0.06025654      -1.47298283      -0.70707945
Pb       9.37135236       8.30850592      11.71830089       0.29668036      -0.14527400       0.03134785       0.93443933       0.21071952       2.25804899
Pb      12.08417267       4.84205096      13.61010297      -0.08477742      -0.27179967      -0.07035570      -0.51051360       2.86928010       1.80321642
I        1.41813613       4.39134266      13.83616914      -0.12357763      -0.00311620      -0.05244365       0.63702005      -0.06044642       0.18134059
I        0.47044501       8.14105651      11.62911522       0.10195352       0.37571326       0.01540708       1.88021880      -0.45478579      -1.19421738
I       10.68315721      10.33452505      13.88420169       0.04438056      -0.02162910       0.01148669       0.62815622      -2.26636786      -1.67957854
I       10.75859888       2.55690740      11.49698682       0.16645565       0.19845235       0.11935431      -0.42945517       0.41399161      -0.68753552
I       18.31833576       0.84661523      11.89570011      -0.15861705       0.00310473      -0.10482063       1.22573195       0.67302056       0.64237794
I        2.91357708      11.51652684      13.63542947      -0.04524537       0.07056972      -0.19041905      -0.44375654      -0.46404003      -0.45172438
I       12.66249403       6.99030798      11.32363158      -0.03270041      -0.09412981       0.05307514       2.15010417       2.54044386       1.48271775
I        9.15732624       6.05419730      14.05919817      -0.20364442       0.05491568       0.16263913       0.82184308       0.36390433       1.78802165
I        4.85146691       3.54787993      11.11504858       0.31038980      -0.12942456       0.00153878      -2.30763914       0.11871689       0.56951629
I       16.62554036       8.92850193      14.64904704      -0.17123729      -0.08818484      -0.07143332      -1.09293555      -0.21767878      -0.60813878
I        6.52874598       9.42941988      11.89973451       0.01690206       0.00720696      -0.02243851      -1.96167833       0.71901692      -2.09724833
I       14.76285639       3.13297877      13.30052489       0.09105182       0.26890845      -0.09918736      -0.21036769       0.35278539      -0.41889816
H        8.53170400       1.04024859      -0.40513373       0.08025721      -0.50921856      -0.21165224       0.10804483       0.02636617      -0.05580448
H       12.98225089      12.02062786      16.73596691      -0.01578961       0.04465497       0.01885193       0.10128866      -0.04849732      -0.06083930
H        2.85412154       6.45355502       0.55383152      -0.78628019      -0.73173541       0.29339023      -0.18548179       0.07383805      -0.01378794
H       18.25559689       6.06608546      15.54772245       0.10620458       0.51737001       0.39575174      -0.09783578       0.23199011      -0.09838718
H        7.01190362      -0.59238166      14.92828831      -0.42364479      -0.63228322       0.50835668      -0.06102227      -0.02457908       0.11250549
H       14.76299753      12.78262037      15.43638449      -0.02925807       0.49372403      -0.34323901      -0.14739909       0.03209168      -0.03955768
H        4.87411005       5.35299336      12.93313864       0.27400153      -1.01403530      -0.36040242       0.14784996       0.21737619       0.17290832
H       16.74959699       7.20349908      17.18282459       0.10718430      -1.20081676      -0.53203656      -0.29653560      -0.01981411      -0.17643837
H        5.73630039       1.39995082       0.74639056       0.15079301      -0.40386901      -0.27547975       0.09970504       0.14259682      -0.07662064
H       15.51989653      11.19433184      15.36161300       0.20931679      -0.07139110       0.09834462      -0.05962706      -0.02631017      -0.08953193
H        5.81321137       6.82419244      12.69761923       0.05048544       0.24903514       0.14949934       0.08651211       0.17272497      -0.06493209
H       15.90514904       5.64928880      17.53171246      -0.15555160      -0.60322117       0.04848879      -0.09267911       0.11407703       0.11314902
H        6.64207845       3.35843319      -0.72242658       0.87616179      -0.79356597      -0.20082652      -0.01537310       0.22508356      -0.13772393
H       14.45726059       9.43359604      16.62924264       0.14862542      -0.41243921       0.15152509      -0.05309320      -0.05637718      -0.00386102
H        4.04293801       9.18603561       0.12059465       1.08732805       0.79238954      -0.07589962       0.02090335      -0.04007202       0.01467742
H       16.71753460       3.47444810      16.35886510      -0.00720960       0.33799879       0.34971180      -0.09590256      -0.07209405      -0.18864529
H        8.43429959       3.14916453      -1.17885991      -0.47225054      -0.29031683       0.28296716       0.10661765      -0.01535207       0.10198106
H       12.89779702       9.79405783      17.42627510      -0.21905782      -0.28686152       0.40708367      -0.05051504      -0.03187896       0.28122065
H        2.74377046       8.64935619       1.16590322      -0.82738123       0.35683127       0.61380056      -0.05763617       0.04427966       0.07101525
H       17.89115637       3.95695060      10.24281680       0.70079852      -0.20325850      -0.62200031      -0.07332705      -0.19321846       0.14447462
C        7.53934054       1.53095098      -0.28829457      -0.46415673      -0.54568277       1.04082576      -0.21281421      -0.99355410      -0.24664240
C       13.79800142      11.33824852      16.47681635       0.50368362       0.04035137      -0.02660121      -0.25816421       0.28702512      -0.27169831
C        3.55240428       7.16483892       0.11798038       0.80630197      -0.34963488       0.26759930       0.26709766      -0.53690379      -0.09772892
C       17.47489874       5.49767640      16.17102031      -0.11303573      -1.15265320      -0.28125833      -0.02618013      -0.17978722      -0.66980023
N        6.52568556       0.84923981       0.34805372       0.48758713       2.98501338      -1.51699319      -0.31826724      -0.26982860      -0.87723216
N       14.81338058      11.82707327      15.76329721      -0.54846041      -0.13820896       0.18305487      -0.57428354       0.31353514       0.29366622
N        5.13839898       6.25995318      13.29794855      -0.16907672       0.50715702       0.10260036       0.93931008       0.42085979      -0.26278118
N       16.70293721       6.10411460      17.05845569       0.24072883       2.16650812       0.42962572       0.05030372      -0.08193450      -1.12381546
N        7.53686719       2.76229362      -0.74205548      -1.04098743       1.11662745       0.28778917      -0.08220663      -0.19596380      -0.38470073
N       13.74069916      10.09213686      16.92274455       0.24690957       0.67372479      -0.69550736       0.23910430       0.21858485       0.51170538
N        3.50361758       8.40064516       0.56843726       0.04874278      -0.56135081      -0.94959571       0.30833633       0.38631905      -0.15636176
N       17.41468369       4.14544522      15.94512305      -0.51434473      -0.32125854      -0.14970842       0.50685909      -0.44100944      -0.48306110
Pb       2.06481416       2.04430181      16.14617866      -0.12476417       0.37756007       0.00902287      -1.25939412      -1.35910882       0.82262075
Pb      19.08676246      10.26723219       0.39001840       0.20309213       0.31947941       0.15955958       0.76108787      -3.36398891      -2.14817448
Pb      10.07907045       8.35559095      16.42236192      -0.15931528       0.04994013      -0.11767639      -0.20940310       2.05270467      -0.05716126
Pb      11.85074604       4.47587651      18.24438163       0.27513893      -0.09627793       0.22532404       1.76492436      -0.12022307       0.53675017
I        0.70702612       4.43018023       0.30525807       0.05065784      -0.12719148      -0.22008213       3.58082581      -0.08646298      -0.26030486
I        1.15377902       8.41739403      16.15666221      -0.15772662      -0.20942690      -0.04783083       2.02218378       2.63445248       0.00900061
I       10.38485047      10.45285879       0.61947680      -0.40350440      -0.23677655       0.02805130       1.73438378       1.55159311       2.22760458
I       11.16100898       2.49782968      15.83758593      -0.01442610       0.12689253      -0.13400961      -1.71861911       2.25611684       0.53460431
I       18.40962272       0.73365324      16.52938921       0.01740907       0.06307878      -0.24423400       0.50102853       1.25506947       1.40434269
I        3.28275073      11.61538259      18.05417972      -0.00474247      -0.07995384       0.15436097      -0.16588342      -0.25232651       1.09978124
I       13.03927232       6.77478026      16.18322408       0.00109242      -0.13858728      -0.12709118       1.30964637       0.43650825       2.22340151
I        8.28188125       6.31754420       0.17279918      -0.10811971      -0.30860089       0.03098501       1.85599693      -2.64460125       0.76754036
I        4.96495730       3.22340287      16.00289286       0.24726507      -0.01549967      -0.19443834      -1.59399262      -1.13474734       1.59094078
I       16.27557383       9.25488487       0.74832939      -0.58499240      -0.11113831       0.01476933       0.12471616      -2.26481009       0.23498908