768
Lattice="31.52003920688824 -1.0395494997101957 0.3212732111417801 -0.9162685860741572 30.3547437254124 0.028757121508259497 0.35595936046071336 -0.14720492652102254 17.2635365134837" Properties=species:S:1:pos:R:3:forces:R:3:momenta:R:3 energy=-3622.8314919524764 stress="0.0 0.0 0.0 0.0 0.0 0.0 0.0 0.0 0.0" pbc="T T T"
H        1.84025998       2.24633984       7.01481281       0.01422088       0.07037374      -1.43580031       0.44126354      -0.25140910      -0.25915584
H        4.08132894       2.24160221       6.33153704       0.65110548      -0.26943455      -0.18131277       0.08170349       0.30500392      -0.49060961
H        3.84198201       2.64828409       4.59049396       0.30225271      -0.10458657      -0.10782432      -0.06808798      -0.19790640      -0.34193705
H        1.39148837       2.91122647       4.02163399       0.20236180       0.12760686      -0.65414680       0.06659236      -0.49853165      -0.06577974
H        0.24078774       2.92431044       5.47817178       1.35211327      -0.61330836      -1.14818701       0.04882578      -0.05815167       0.48274818
H        6.08339250       6.39223632       2.16166010      -0.29987604       1.61435675       0.17016874      -0.03250551       0.02532015       0.37158764
H        4.73140112       6.95937196       0.20873823      -0.02419004      -2.94247429      -0.59959901       0.10645775       0.08264527       0.04977328
H        4.19581165       5.09450123      -0.29889966       0.00045691       0.11307694      -0.77175709       0.08144840      -0.17626389       0.17684657
H        5.40548614       3.49227413       1.51452901       0.38463794       0.95431070       0.89324396      -0.06979741      -0.10809826      -0.02234921
H        6.45311701       4.46874246       2.99291261      -0.29406689       0.14227206      -1.42426721      -0.00654479       0.01613314      -0.38545353
C        2.12447048       2.47204768       5.89880901       1.03823087       0.01676608       0.82367852       0.50606555       0.05401148       0.04496059
C        5.51573389       5.61315910       1.48091912       0.77397409      -1.29118740       0.27505934       0.54298453       0.19749703      -0.39132128
N        3.45679385       2.44197433       5.55384045      -0.63722296      -0.10822268       0.74723289       0.50135575      -0.32473499       0.83698296
N        1.22145297       2.78914794       5.02023455      -3.29628735       0.78488575       1.92996365       1.06879063       0.31688486      -0.17390457
N        4.62812015       5.84715183       0.36405887      -0.06756831       3.06741032       1.35690405       0.10304981       0.51281599      -0.27007297
N        5.89919004       4.44990244       1.99012911      -0.36695115      -2.07274582      -0.13938952      -0.57018998       0.06087968      -0.32517586
Pb       3.95584649       0.21425211       1.28570820      -0.39883260      -0.15290640       0.19683189      -0.57415792       4.73112994      -1.18551015
Pb      31.38173065      -0.48939162       1.67376593      -0.12956717      -0.00444720      -0.21018389       2.75028380       0.80361225       6.07616724
I        6.35108186       1.10593005       3.70742984      -0.27902381       0.09606125      -0.17748129      -1.55497583      -0.12909607       1.29125765
I        1.48694435       6.65244456       3.04037831      -0.05157451      -0.05894476      -0.58046430      -0.21668086      -0.31604589       1.76396568
I        5.74983742       1.88697706       8.20567522       0.07757756       0.04893162      -0.51056167       0.66928021      -0.46366422       1.27642940
I        1.74695471       5.64257994       7.18001938       0.05589203       0.36411479      -0.10551575      -0.56311832      -0.18492420      -0.52198668
I        5.74301758       4.88496440       5.62993631       0.24330425       0.62881680      -0.22369680      -0.77593281      -2.05795419       0.73853148
I        2.16610343       2.78370898       1.50473776       0.12078335       0.28023283      -0.02633310      -0.76136546      -0.89717567      -3.98163003
H        1.06684348      11.75869830      -0.01084094      -0.42256627      -0.76788286       0.52785845      -0.10389745      -0.08289936       0.01429813
H        1.31467889      12.25333208       2.23795046      -0.28544221       0.39567620       0.72608367      -0.08766711       0.01848977      -0.29953717
H        1.32842734      10.52211736       2.75730458      -0.09547377       0.71330915      -0.28304514      -0.25652218      -0.04340050      -0.03606232
H        1.18726373       8.84457348       0.90001058      -0.00546160      -0.46300449       0.93387247      -0.10312825       0.08500898      -0.02279399
H        1.05710473       9.36631019      -0.74579936      -0.28181465       0.97760425       2.10696661      -0.03981161       0.02216318       0.19007568
H        4.25187838      11.88448886       6.55805975       0.33364598       1.65459167      -1.00854919      -0.05105254       0.01022169      -0.11997296
H        3.15295634      13.90875154       4.98420781      -1.06736069      -0.09341322       0.92599910       0.29571102      -0.09521537       0.05230935
H        4.85862695      14.13991821       4.05065160      -0.26320252       0.15093131       0.39540211       0.10417445       0.21119033      -0.03783946
H        7.05165627      12.65968377       4.99725407      -0.17034705      -0.53811180       0.25876710       0.03407787      -0.13779990       0.02480010
H       12.40752875      14.34310398       4.84656399       0.12596995      -0.27514060       0.70006340       0.14469710      -0.13672367       0.22354856
C        1.03053245      10.91779172       0.74012749       1.99716784      -1.90831152      -2.00836016       0.49225843      -0.45190121       0.32144212
C        4.91665280      12.55504098       5.76699871      -2.08367882      -0.75109589       0.79566516       0.01207611       0.82045218      -0.37246850
N        1.25134162      11.25242305       2.01295000      -0.37793111      -0.20405755       1.00857690      -0.68394422      -0.22753338       1.50981766
N        1.11093573       9.64076933       0.30626468      -0.44833233       1.03064125      -2.62818710      -0.54239922       1.27685445      -0.63353473
N        4.26385588      13.61819671       4.92442450       2.22264505      -0.87454187      -0.90182931       0.24904827      -0.55759467      -0.72260342
N        6.28456038      12.13469023       5.64998999       0.64924153       0.75317229      -0.50850174      -0.41719009       0.68781993       0.11802334
Pb       3.68536989       7.62274969       4.99632905      -0.27540148      -0.27887376       0.55561376       0.03662485      -0.13747072      -2.80719542
Pb      31.32622381       6.43795266       5.75797245      -0.03282422      -0.18816938       0.12241731       1.88944024      -0.00970083       0.57988503
I        5.20372744       9.18278694       7.49030161       0.15262735      -0.14530567       0.03274675      -0.46265034       2.43470651       0.22149945
I        1.64356909      13.86078766       7.38880211      -0.15152207       0.05275930       0.38920509       5.70768703       0.58817480      -0.13497611
I        5.37542098       8.89926623       3.00771137       0.35205041       0.10102223       0.15031139      -1.77018789      -4.60249804       1.33561243
I        0.84672695      14.48854336       3.55553621       0.32551209      -0.15733730       0.01976715      -0.65715703      -1.15930958      -1.49130226
I        4.96041414      12.77857564       1.38241561       0.27847894       0.09044717      -0.13519308       0.24522011       0.06121389       1.95367489
I        1.68643079      10.13831539       5.55503241       0.04596353      -0.15072618      -0.11566291      -5.17069740      -2.00242872      -2.31555518
H        8.99880999       4.49785780       4.66573578       0.35278452       0.27161719      -1.10242548       0.07626073       0.16221058      -0.29566141
H        8.71703970       4.59534475       7.02566306       0.18326075      -0.42094553      -0.30430496      -0.19748123       0.08814146      -0.11878926
H        9.84343591       2.86760433       7.15529014      -0.21358461      -1.22261218       1.92858936      -0.20167451       0.07936636       0.03412411
H       10.79132430       1.60759588       5.22990745      -0.03211870      -0.70706558      -0.46342367       0.30036731       0.03008925      -0.14098666
H       10.31352002       2.47142726       3.48069554       0.02764111       0.06143977       2.97478329      -0.12605824       0.06202808      -0.20342527
H       12.75420662       6.61744968       1.53042702       0.14304923      -1.03479693      -0.71754512      -0.01484289       0.13613997      -0.19292286
H       14.95271915       5.70364133       1.72015024       0.51023010      -0.08669700       0.29550450      -0.13029674      -0.22650912      -0.14055774
H       14.51891192       4.24397765       0.74410870       0.26581929       0.58329790       0.32678807       0.21038446       0.20437151       0.09838876
H       12.77515395       4.22914810      -0.47039292      -0.83728852      -0.25057532      -0.20076334      -0.10042563      -0.18724756       0.15919596
H       11.20813508       5.29411427      -0.10750875      -0.36314305       0.59860667       0.10072580      -0.08610329       0.38834015      -0.00290401
C        9.58316916       3.55035419       5.22628803      -1.05948536      -0.74196682       1.24813434      -1.24768893      -1.00262419       0.62964328
C       13.06543521       5.67066097       0.94291264       0.68122905       2.30491778       2.21657472       0.46905007       0.29001605      -1.46329929
N        9.25813877       3.65998530       6.55815152       0.53460981       0.48370439      -2.09623275      -0.27250964      -0.76471884      -0.29544266
N       10.36928554       2.41304006       4.61778538       0.19984899       1.56794101      -2.05857271      -0.09317648      -0.06233744      -0.00930804
N       14.27611655       5.17907260       1.15556671       0.46650539      -0.68013808      -0.39212036      -0.03464154      -0.06876100       1.63267437
N       12.23217422       5.03140071       0.14759616      -0.86064105      -1.39178694      -1.48352295       0.27898331       0.40673235       0.34654432
Pb      11.62285870       0.49637681       0.83152665       0.61111046      -0.04259820       0.22175791      -5.06579504      -2.45626668       2.66858313
Pb       7.83732604       0.03018879       1.23888489       0.16007646      -0.01777755      -0.54892181       3.31375177       4.81357724      -2.44794256
I       13.73692593       1.70342024       3.23614127      -0.14843939      -0.27406491      -0.40368984      -1.48984328      -0.83337481       1.99963197
I        9.61801091       6.60552777       3.40607627      -0.41458159       0.21095817      -0.01361341      -0.84830641      -1.41373496       0.87517048
I       13.95542817       1.79164878       7.63494708       0.14410186      -0.40190198       0.34057756      -0.86742878       1.06552709       1.07044170
I        8.99524897       6.51327789       7.99445170       0.13360394       0.66142699      -0.33466445      -1.76179235      -5.35610328       0.53734472
I       13.46229755       4.92833418       5.12612011      -0.11740483       0.86882394       0.13100531       2.41715815      -2.36930450      -3.32234398
I        9.28724236       2.82789223       1.36751459       0.40082609       0.05642319       0.05314494       1.67493672      -0.60492344      -1.68401405
H        8.95210521      10.84233596       2.61324116      -0.36228806      -0.10766936       0.90198244      -0.35219003       0.13121780       0.08525853
H        7.12385219      11.55551441       0.93199786       2.48409359      -1.02261673       0.76363922       0.07162923       0.20419515       0.04346308
H        8.00048073      10.56988441      -0.33946183       0.85451216       0.00120902      -0.47662625      -0.23750186      -0.11298881      -0.06732403
H       10.56624175       9.85611826       0.21464637       0.24611124      -0.33641994      -1.14668528      -0.17115645      -0.02812268      -0.07857234
H       10.88909377       9.69698577       1.93042058      -0.42654190       0.23285014      -0.93014124       0.10155345      -0.07850901       0.05499203
H       13.52937390      12.45570541       4.00330454      -0.09235799      -0.58009385      -0.45935516      -0.01922441      -0.05137574      -0.07838982
H       14.00552159      10.55962347       5.26701968       0.14913714      -0.75238996      -0.52666143      -0.02553589       0.43607900       0.03349352
H       13.43444217      11.33950432       6.80255521       0.15224157       0.02773370       0.79923539       0.00161417       0.06911340       0.11911293
H       12.46031820      13.84055420       6.59013079      -0.17029947       0.00580485       0.39234252       0.27782775       0.10044194       0.01653737
H        6.66648926      11.28819918       6.29430430       0.56866436      -0.28542690       0.00562687       0.23213880       0.07096983      -0.24625647
C        9.05025045      10.55791891       1.53512868       0.35464617       0.43254473      -2.08001860      -0.07040943      -0.37441819       0.27531521
C       13.27698208      12.45081904       5.10705156      -0.19064788       0.53305166      -0.22561887       0.01279903      -0.07183591      -0.35208586
N        8.02842413      10.91456735       0.70218109      -1.23201657       0.16561069       0.80750360       1.45627564       1.28670394       0.79857566
N       10.23276352       9.95157921       1.15026100      -1.82708221       0.61514582       2.33799549      -0.83169855       0.61476776       0.54253614
N       13.71523536      11.40323831       5.78088190      -0.20089080       0.73714197       0.10339248      -0.23209103       0.67103804      -0.01176922
N       12.52113498      13.59112421       5.59082614       0.35558820       0.69799947      -0.55913272      -0.62971086      -0.75833656       0.02887468
Pb      11.37471488       7.59523433       5.73004670       0.41631192      -0.12341618       0.19108224      -1.88577609      -3.74111353       1.73142648
Pb       7.35017368       7.85544710       5.58245335       0.60998016       0.00997732      -0.18646580       4.65927167       0.75353792       5.58645826
I       13.43202306       8.63004788       8.05877955      -0.05319332      -0.10941547      -0.30313780      -3.32025120      -4.69775245      -0.22766840
I        9.18005759      14.00647171       7.28648363      -0.17616679       0.00733513       0.16657991      -1.29684915      -0.85259638       1.18427878
I       13.37096325       9.09549385       3.41251006      -0.46785044      -0.21845966      -0.22667843      -2.11161438       0.37460163      -0.40637349
I        9.07248935      13.72073535       3.05993228      -0.09738684       0.28649784      -0.34904917      -0.64102608       0.90193529       0.00966350
I       13.12982003      12.91077923       0.77419736       0.01749931      -0.12550126      -0.18157724       3.56259642      -3.97354642      -0.41060154
I        9.66217849      10.47465021       6.07238422      -0.36723690      -0.67508308      -0.25227840       1.45115677      -1.57660205       1.33954452
H        1.36796785       2.69638606      15.33378836       0.90103392      -0.07960192      -0.38747591      -0.02710292       0.39891662      -0.17769559
H        3.54907425       1.85794758      14.68707587       0.14958048       0.01213975       0.91876408      -0.02627196      -0.10734196      -0.24978388
H        3.29737416       2.01485056      13.12838814       0.52753565       0.26153931      -3.16687741       0.11512974      -0.34980857       0.06621307
H        1.03882729       3.33012372      12.45645064      -0.05148708      -0.00016607      -0.07077718       0.23617554      -0.04280400       0.22637384
H       -0.04495912       3.48421052      13.84817236      -0.59268856       0.34488584       0.01918888      -0.11638221       0.22277796      -0.02026463
H        5.28547902       6.10421232      11.35391526       0.27222563       1.23367137      -0.05775646       0.03970847       0.03122695      -0.32969648
H        5.35011857       6.87641499       9.00800223       0.14178048      -2.01290468      -0.07969464      -0.20929788       0.08137899       0.02717578
H        5.46844910       5.20405539       8.38656872       0.25189222      -0.78104924      -0.93852809      -0.08070798       0.10376958      -0.14108094
H        5.70477065       3.45181793      10.16963498       0.10868542      -0.17799997      -0.30150034       0.09884703      -0.22966898       0.07751738
H        5.62300470       3.79729729      11.85308960       0.10968575       0.82834398       1.56898574       0.00070720       0.13668937      -0.11146375
C        1.76958616       2.74920635      14.28870548      -1.41931801       0.31630827       0.90978593      -0.51450973      -0.34450328       0.31499036
C        5.49791347       5.46262473      10.47431738       0.10146343      -4.29300258       0.45202772       0.57442288      -0.46139985       0.00307720
N        2.94879502       2.29281693      13.98039590      -0.07693448      -0.43813108       2.51592751       0.19627623      -0.04382353      -0.55088882
N        0.87801179       3.28628537      13.46645598       0.74011749      -0.44091075      -0.64404937       0.45342406      -1.89360060       0.33805641
N        5.49582792       5.82164798       9.15953029      -0.14703918       3.35307557       2.32321028       0.03139773      -0.23877960      -0.58769118
N        5.66728920       4.17353726      10.89861215      -0.74988472       1.91407245      -3.40270315       0.73879433      -0.05352599      -0.45393366
Pb       3.94746106       0.02351707      10.09542159       0.36783467      -0.46787582      -0.32299831       0.12218873      -1.59687233       0.38295299
Pb      31.79076647      -0.71074636       9.96615312      -0.19800491       0.06835116       0.35625672      -1.31829104       4.44898707      -0.26567839
I        6.11181369       0.70238106      12.24518342       0.11539460       0.02464945       0.23527403      -2.75789972      -0.17003514      -0.48221747
I        2.30945195       6.50059279      11.46589319      -0.54454691      -0.08895340       0.36318958       0.07649510      -1.91932033       0.06725680
I        5.98202008       1.57516680      16.48253265      -0.04250611      -0.00114508       0.12722196       3.65092083       1.13344871       3.82148122
I        1.61333721       5.96621843      16.04196916      -0.07527002       0.41820883      -0.39615958      -0.56803444       1.76910202       0.95857019
I        5.82325472       4.77308787      13.83853648       0.14092259       0.42672516       0.64549653       2.95041452       1.05320120       2.70673895
I        2.57702392       2.63851118      10.06776026      -0.32620193       0.38882102      -0.01246307      -0.39727114       1.52151243       1.47426467
H        1.76155665      10.68205211       8.39132376      -0.49700218       0.62062615      -0.57118202      -0.15391515       0.50298539      -0.22307012
H        1.45021100      11.53483139      10.60253353       0.04846447      -0.98325200       0.13123817      -0.21796451      -0.19707260      -0.01689706
H        1.94525312       9.98720276      11.24144509      -0.03294597      -2.19021516       3.04075129      -0.37361222       0.04040960      -0.15318284
H        2.48394943       8.13148864       9.87378735      -0.14974557      -1.23138953       1.15063157       0.00962031       0.05838703      -0.15768731
H        2.37981073       8.32312652       8.16873293       0.04465909       0.15583894      -0.93296893       0.12667520       0.31627862       0.14715690
H        5.32207587      11.79127901      15.36223902      -0.21320799       0.07919442      -0.26997316      -0.07797233      -0.23317564       0.09517123
H        3.67481878      13.64385776      14.70581614       0.29153494      -0.51789141       0.13256986      -0.12174581      -0.03488806      -0.01765121
H        4.81270649      14.16586309      13.48335754      -0.02481250      -0.05111445      -0.14815334      -0.06321618       0.36434371       0.01718595
H        6.60996838      13.31732676      13.18440656       1.33353264       1.33722013      -1.55732728      -0.01141298      -0.34522631      -0.28243695
H       13.26493588      14.70003514      13.98116692      -0.12391158      -0.15522371      -0.82274550      -0.10168799       0.07596947      -0.00629741
C        1.82138100      10.03967197       9.24841792       0.82814413      -1.89968861       1.99382400      -0.02682880       0.41989787       0.53928232
C        5.46302838      12.51428371      14.51219719      -0.45153389       0.43701692       0.42209060       0.14023126       0.12291489       0.60306082
N        1.62206968      10.49805783      10.49151605      -0.10380609       3.38745395      -4.49597687       0.47199460       0.43613621       1.34963850
N        2.24526074       8.75059277       9.08746440      -0.26589122       2.25866584      -0.55962892      -1.33240628       0.16372274       0.39845142
N        4.54324931      13.42329095      14.15091663       0.09332649      -0.30317943       0.40398984       0.78411028       0.96340594       0.72621564
N        6.62536405      12.57004134      13.89571914      -1.28169171      -0.44300896       0.54578102       0.11050320       0.44115255       0.25864277
Pb       3.89907329       7.57000576      14.00509483       0.03246627      -0.38522924       0.20959385       4.51241322       2.37088540       5.18169781
Pb      31.25639658       6.56162345      14.15306159       0.52745032      -0.28505404       0.11799746      -2.17162477       2.10070585       3.60390587
I        5.77693524       8.74915602      16.24758039       0.12886846       0.39869281      -0.15257224       1.29641380      -0.80292100       4.28007785
I        1.93351272      14.37921346      16.39591624      -0.34719903      -0.01570926      -0.28335604       1.42312203      -2.39380440       1.26903791
I        5.66108202       9.03698723      11.85837603       0.15222119      -0.14870908       0.17764218      -2.81768168      -0.79616640      -0.08539352
I        1.44024822      13.71880849      11.63587982      -0.12778936       0.19520665       0.66045500      -0.95976594       0.13045441       0.26518319
I        5.44423928      12.31599429       9.98988156      -0.03995807       0.29133197      -0.11488259       1.16650974       2.70135534       0.14292832
I        1.95666045       9.93612971      14.09668383      -0.02847698       0.53846575      -0.01966348      -1.73840389      -1.80083709       2.71969435
H        9.76526086       4.10382636      13.46667083       0.14633620       1.84427173      -0.34251950       0.11807402      -0.00665822       0.20224738
H        8.94727417       4.40282325      15.80218196       0.22537102       0.54412737       0.48334113       0.16212805      -0.08934997      -0.00940841
H        9.13280307       2.68808714      16.14076562       0.20387480      -0.71157871       0.92874656       0.33576193       0.01721531      -0.03513711
H        9.86071229       1.20435744      14.04458206       0.26851357       1.02093928      -1.25126012      -0.02783585      -0.09340538       0.14489062
H       10.33359406       2.13658202      12.42999653      -0.22777598       0.51155821       1.63259765       0.04208834       0.11619706       0.24930664
H       14.25545241       6.12496492      10.72442072       0.31984710      -0.76557210      -0.56968117       0.09477169      -0.07749815      -0.12872690
H       15.75162504       4.17871497      10.31190498      -0.25730021      -0.33869199      -0.58978482      -0.17779635      -0.23274635      -0.04821597
H       14.74176625       3.38133544       8.96309405      -0.59740978      -0.98589248      -0.66242181      -0.22032861      -0.04437749      -0.12185881
H       12.32991124       4.61713519       8.58055467      -0.32721287      -0.20948227      -0.50067188      -0.10466519       0.21844687      -0.26656448
H       12.01305486       6.19299618       9.62349883      -1.52526956       0.60068322      -0.45873740      -0.10948378      -0.10881439       0.07557875
C        9.72584731       3.32460873      14.16969229      -0.13499594      -3.49050866      -0.38729672      -0.41602267       0.51773258      -0.28610034
C       13.97518690       5.28999269       9.88747434      -1.76072786      -0.83168216      -0.44806952       0.10507384       0.06710610       0.71159546
N        9.32958242       3.45845475      15.48489174      -0.34182028       0.30548768      -2.60606476       1.66832415       1.63875643      -0.24787986
N       10.03040954       2.14223890      13.49790984      -0.12993865      -0.10984577       1.25568824      -0.27424697      -0.72540704      -0.11486427
N       14.84038469       4.14987673       9.67571160       1.68573847       2.55602103       1.91645291      -0.04531934      -0.24737038      -0.72007317
N       12.68342171       5.43050983       9.18771809       2.60946811       0.07289435       1.39316502       0.04582914      -0.48700971       0.08727264
Pb      12.02294761       0.30841234       9.76188385      -0.33295006      -0.34618357      -0.19709253       1.53359897       0.04027747       0.91235018
Pb       7.93418257       0.05514746       9.53244914       0.57497755      -0.35274364      -0.02543224       0.89313323      -4.52359289       3.15662353
I       13.79360762       1.32146761      12.13958425       0.02820692       0.22920198      -0.05775985       0.35420101       0.72090641       0.53742368
I        9.92953996       6.44881981      11.65314199      -0.15242480       0.02435072       0.14225158       0.69193278       0.14868378      -1.48126894
I       14.35602047       1.87927826      16.30660933      -0.01541131       0.11300909      -0.10160809       1.72851614       0.58520614       2.27909125
I        9.36647611       6.86239984      16.72516136       0.19988410      -0.16791727      -0.34751043      -0.96063831      -2.49107677       0.33394891
I       13.26502194       4.68481497      13.64098062       0.06167278       0.54456213       0.19655518      -4.11409626       0.12179898      -0.66932391
I       10.02831366       2.64752007       9.87261470      -0.19816513       0.21405234       0.28525020      -0.18144530       0.69274627       3.37818144
H        8.86697751      10.54978005      11.49504792      -0.08816410      -0.60099091       0.47068714      -0.07487106      -0.06161294      -0.08121330
H        7.36822520      11.18421733       9.71980557      -0.40101076       0.15944346       0.55162956       0.28218520       0.37056411       0.18912712
H        8.47823583      10.60662911       8.55731500       0.47010944      -0.04492960      -0.97098433       0.09873744      -0.33226049       0.11351211
H       10.84170784       9.88289926       9.17451175      -1.20427138       0.10796324       1.85393883       0.35375157      -0.06898274       0.26378053
H       10.77758795       9.29097329      10.96090676       0.39599429       0.46227548      -0.80565760      -0.11705878       0.05163917      -0.07383354
H       14.00205412      12.89975637      12.47017789       0.07536490      -0.50264251       0.82028714      -0.32935916       0.03513257      -0.15474902
H       14.84517185      10.71790841      13.43267745      -0.23172677      -0.25522684      -0.44855907      -0.01625910      -0.11230909      -0.08456112
H       14.49993991      11.36064300      15.04456177       0.24191199      -0.34018184       0.36863048      -0.01268316      -0.22309391       0.26798500
H       13.55401543      13.64473355      15.34769491       0.06570580       0.24565447       1.21379483      -0.19973951       0.06247612       0.00080237
H        7.44253232      11.92129697      13.91761898       0.23226398      -0.77102242       0.56760436       0.17465817       0.10667445       0.66496704
C        9.11633610      10.34024526      10.44984732       1.73173171       0.40949367      -1.76737041       1.33592785       0.04818322      -0.75558015
C       14.02962377      12.70038766      13.59767407       0.44206389       0.07647319      -2.06446764       0.37230624      -0.70642213      -0.94236467
N        8.26241053      10.71669814       9.53112669      -0.20080124      -0.00949364       0.24275229      -1.45694516      -0.32145651      -0.50578972
N       10.37445988       9.94807975      10.13829945      -0.63393100      -0.42796404       0.18014307       0.18471702      -0.54402755      -0.38792565
N       14.63075890      11.52351620      14.03192873      -0.63880506       1.94968154       0.19654653       1.20324762      -0.24789751      -0.02738257
N       13.55068792      13.74767758      14.33433272       0.01392823      -0.72013368       0.76358397       0.10460342       0.83379752      -0.32657891
Pb      11.70531461       7.45435814      14.14177050      -0.55274879       0.26210926       0.08309477      -5.40977990       1.00059814      -1.15880536
Pb       7.92911618       7.50025027      13.87079673      -0.75885457       0.16913047       0.14464665      -0.35488054      -0.14595877      -4.80976760
I       13.42349627       9.12927571      16.21894822       0.40845739      -0.51136394       0.11077877      -0.72668154       0.98357734       0.19702497
I        9.67364221      14.37928582      15.58664566      -0.20801277       0.06176862       0.38751250       1.30887851       1.71399811      -0.95096457
I       13.32795716       8.76874103      11.83119871       0.24470372      -0.03262707       0.14215732       0.31330726       2.73203375       3.03542139
I        9.39971249      14.06093350      11.90083542      -0.31326225      -0.29444808      -0.29543312      -3.02777089       1.04008836       3.71411266