768
Lattice="25.244031463055336 -0.051139010145229986 -0.15563925591508607 -0.008975214029691772 25.575374942549175 -0.11406019386377196 -0.3474594723078396 -0.009706484009668169 25.26731789926129" Properties=species:S:1:pos:R:3:forces:R:3:momenta:R:3 pbc="T T T"
H        9.53028211      10.20840137       4.50486552       0.53487694       1.04115910      -0.96954056      -0.06472216      -0.06291506      -0.05788951
H        9.50869976       3.68374521       2.49095044       0.61721751      -0.53335133      -0.63635332      -0.03132787      -0.03188970      -0.12988063
H        8.56462304       3.53350095      10.11903481       0.03636249      -0.04450681       0.44927838      -0.01497049       0.13540631       0.04223826
H       10.82205044      10.60446129       9.73859910      -0.01731525       0.30667607      -0.27284570       0.09315197       0.01550753       0.13323511
H       11.58453547      10.40632931       3.40700032      -0.68933245       0.61324297      -0.27538432      -0.04746097       0.13928461       0.01398042
H       11.44070478       5.13600134       3.02541646       0.12638836      -0.15933720      -0.58056122       0.04291888      -0.09762237      -0.25321985
H        1.48895109      11.45658315      10.76402339       1.35195928       0.20452011      -0.88871389       0.04749729       0.04422038       0.02957285
H        9.30338796      10.47736907      11.55292328       0.44113797      -0.51951801       0.46970061       0.15848033      -0.05069656      -0.02545102
H        4.57509601       4.90712874       2.16885537       0.59815504       0.90663492       0.22801066       0.21611816      -0.04070316      -0.14160374
H        2.71096467      12.78569363       3.04400718      -0.11317237      -0.21288256       0.16065887       0.15019752       0.12899091       0.15204377
H        2.07359856      12.33303497       9.24151589       0.14160467      -0.86008615       0.74447604       0.01740732       0.07492356      -0.10181034
H        8.27829670      11.73939729      11.04821074       0.64827968      -0.58535713      -0.53474089      -0.09138715      -0.04706857       0.05968159
H        3.74877322       6.14824266       4.23068562       0.21202775       0.50195926       0.31100409      -0.10201413       0.04348004      -0.14271268
H        1.76460935      11.43722328       4.93395008       1.74280988      -1.88573830       0.14932823       0.13825835       0.09219090       0.00803615
H        4.54100062      11.50211737       8.50640260       0.04247209       0.12501553      -0.18617968      -0.01161352      -0.00496070       0.13518018
H        4.01379065       5.79454356      10.59635012       0.44408456       1.47004730       0.68686043       0.10465762      -0.00223508      -0.07979839
H        7.90445020      11.75990902       4.24466831      -0.71631566      -0.04576658       0.53282912      -0.07901555       0.09631244       0.15310045
H        2.98485029      10.21666348       5.58798472      -0.08654647      -1.08551267       1.22256974      -0.00993868       0.12931723      -0.04959975
H        8.86295720       5.16413875      11.85939717       0.92437271       0.08906797      -1.33538965       0.35958969      -0.24373198       0.21030691
H        4.63422294       4.95850403       9.09092703      -0.73985874       0.22428621       0.53218958      -0.09464104       0.07292064      -0.25312637
C        9.74287522      11.09980527       3.80704679      -1.98361695      -1.55798096       1.90770997      -0.31067051       0.58517500       0.10066313
C        3.61642754      11.10168713       3.88235750       0.15890864       1.19856125       0.22323141       0.66121584      -0.46711584       0.14496403
C        3.38302305      10.91132207      10.13580560      -1.18945944      -0.49386932       0.55555419      -0.51254253      -0.18168027      -0.37546618
C        2.67089549       4.57860508       9.73869554       1.19043433      -1.13626834      -1.91989315       0.02952113       0.15476755       0.06299256
N        3.72291615       4.39195828       2.38025069      -0.86005432      -1.75948176      -1.67338954      -0.52798105       0.07154310      -0.10522036
N        3.46974610      12.08787143       2.99770830       0.74013915      -0.17175834      -1.27409393      -0.17113379       0.73632322       0.61127945
N        2.25167847      11.60916481      10.01730947      -0.48067682       0.48008015      -0.10496453      -0.16762574       0.66647156       0.10063593
N        9.15516209      11.17624791      10.85342042      -0.79225941       0.80638199       0.43102017       0.83733825      -0.34805106       0.06858380
N        2.96889331       5.48680482       4.31209367       0.79538449       0.32073097      -0.05287426       0.47144139      -0.15235232      -0.54250856
N        2.73466691      10.87772685       4.90267827      -1.92430365       2.71054798      -1.03760948       0.34311088       0.13007205       0.29730214
N        9.36323568       5.32503685      10.91748440      -0.67755440      -0.10297505       0.10255138      -0.02301294       1.07737770      -0.80407400
N        3.87840539       5.17771486       9.79917277       0.21705181      -1.62605334      -1.05032782      -0.23151701      -0.07299304      -0.20802572
Pb       6.22907794       1.34023962      13.00844971       0.28961738       0.01663720      -0.31407682      -0.87035495       1.94582758      -1.19969660
Pb       0.02344250       1.47069374      12.99763232      -0.20499068       0.40093501      -0.01343800       1.82266948      -1.36940328      -0.99600582
Pb       6.28653299       7.98139987       6.70548097       0.09221350      -0.08610039      -0.01383837       1.59028423      -2.30669962       0.95439916
Pb       6.14097096       1.61343611       6.53647201       0.15847532      -0.07198934       0.36714343       2.86612525      -1.79034829       1.01564102
I        9.49163332       1.16879061      13.65403248       0.04349311       0.09828039      -0.20351008      -2.36030297      -0.41988092      -1.95105169
I        3.18356111      14.37230055      12.39165682      -0.08754272       0.20409990       0.09731139       0.01549749       0.35055445       3.28042758
I        3.00716942       1.26213174       7.35573597       0.31695580      -0.03046330       0.00014721      -0.72409319      -1.15620190       0.68652670
I        9.44605976       1.67748946       6.56957972      -0.19967144       0.10279292      -0.05103589      -0.06694893       0.41572266      -0.47456342
I        6.11953765      11.07185556      13.29935652      -0.16206885      -0.02506764      -0.00866645      -0.45314298      -0.14003342      -0.76635972
I        6.99382816       4.65266119       0.52350996      -0.19701240      -0.07099001       0.03134046      -0.81623060      -1.70972221      -1.65447187
I        5.70654964       4.74504653       6.72014021       0.15732516      -0.00536507       0.01136414       0.26283822      -0.64132998       1.03169239
I        6.61504423      11.12865690       6.44781808      -0.14821210       0.03774660      -0.02944155       0.26696879      -1.48283162       0.39393650
I        6.16899173      14.53942862       3.41451650      -0.28587168      -0.07469503      -0.05715687      -0.01844501       0.97296643      -2.70932943
I        0.51953692       1.45216540       3.68811574       0.11550908      -0.09962179      -0.20960546       1.62525127      -0.03092942       2.34820164
I       24.77016924       1.85225763       9.78013613      -0.03530221       0.04311676       0.13778231       1.98872932      -0.36780466      -0.31171002
I        6.55815726       1.18482702       9.73656160       0.10128332       0.09349730       0.23447022      -0.01974150      -0.19472109      -1.68934210
H        2.05025497       3.87113920       3.58187491      -0.44778982      -0.61468997      -0.46513266      -0.20683960      -0.14399442       0.01130182
H        4.60771105      10.56223085       3.79870288       0.04812157      -0.61147263      -0.09777756       0.08589283      -0.02215204       0.00419010
H        3.36459760      10.19674044      11.00610659       0.34948436       0.39401943      -0.45022369       0.13468367       0.07370888       0.11768649
H        2.42013113       3.76848951       8.93789450       0.56509154       0.54224147       0.25931398       0.07533975       0.02068375      -0.02919915
H        3.50510387       3.66461193       1.66234316       0.09513666       0.44706603       0.67643709       0.15216889      -0.04517022       0.02830318
H        4.23482488      12.23293234       2.24569347      -0.48986948      -0.05249219       0.53940189       0.02303089       0.13244588      -0.02873465
H        9.50640560       3.84421804       7.97459588      -0.14349676       0.50541998       0.29004425      -0.07649571      -0.05591670      -0.09056663
H        0.84579247       4.26633793      10.58112773      -1.17235371      -1.14711150      -0.57480632      -0.05390673       0.06190853      -0.13854012
H       11.13323044      11.85000844       2.49757606      -0.17107771       0.14401514       0.04240539       0.07842794       0.04643897       0.12344794
H       10.53587109       5.83418987       4.36674625       0.03718044      -0.31343163      -0.34630122       0.10845168       0.07795673      -0.15019581
H        9.83943787       5.76893813       8.30919673      -0.01022652      -0.72695418      -0.40700064       0.08734462      -0.10916692       0.03041157
H        1.81271845       5.54136938      11.33763642      -0.21423348       0.06074330       0.11615231       0.06569204       0.13698554       0.02829652
H        8.79530919      12.75555548       3.08425672      -0.18842381      -0.06417782       0.04713635       0.03988470      -0.02255676       0.04035928
H        8.39976190       4.82001826       5.09951994       0.49623047      -0.63687378      -1.06306693      -0.15436137      -0.14533337      -0.06767085
H        9.87943046       6.24804940      10.72860478      -0.33878314      -0.39408225       0.09019009       0.08763560      -0.04178532       0.12914747
H        8.60303012      12.55053794       8.85259102       0.30094466       0.25120053      -0.71276517       0.06820312       0.24657158       0.14505113
H        2.40823014       5.43853384       5.14097620      -0.58285628       0.13590917       0.66326594      -0.01261347      -0.12618623      -0.13941335
H        7.74829010       3.68668766       3.93878906      -0.49411846      -0.80995465      -0.38551081       0.01186193       0.03874087      -0.17855771
H        5.17952579      10.20540094       9.54155926      -0.31969944       0.50510707      -0.19491275      -0.05854874      -0.01945301       0.04872847
H       10.19998202      12.00981750       7.99354363       0.25071839       0.50973320      -1.14039139      -0.15712344       0.12466781       0.01804752
C        2.87087566       4.55371133       3.40451588       0.22702599       0.09882564       0.19295418      -0.17350903      -0.27465608      -0.35187755
C        9.55957690       4.34429288       3.35820553       0.79186881       1.16642036       0.17862265       0.24045424       0.14669029       0.57920990
C        9.12160012       4.49497423       9.90621142      -0.56619270      -0.34994723       0.70255362      -0.71433508      -0.77834546      -0.25478452
C        9.91673550      11.26427481       9.76249731      -0.74512942      -0.69752025       0.89884490      -0.01449207      -0.21795885       0.32115097
N       10.87464024      11.15423169       3.20092386       2.03273848      -0.71407379      -0.30999775      -0.39526463       1.35607125       0.22085503
N       10.57439137       5.17149051       3.55283026      -0.80622093      -0.11797978       0.93655498       0.17099946      -0.02763432      -0.09160415
N        9.47067727       4.71169252       8.60884174       0.91130418       1.00976008      -0.04216079      -0.56390725      -0.32135577       0.37849651
N        1.66412290       4.86213915      10.52270892      -0.18479269       1.55770054       1.82659499       0.02481348       0.22994412      -0.91042188
N        8.72208994      11.92388218       3.69209055       1.20809900       0.37235972      -0.92548988      -0.48773470       0.56534354      -0.68019355
N        8.51293376       4.30458121       4.14411365      -0.83537194       1.72059345       1.95047295       0.11567739      -0.41615676      -0.16664343
N        4.42998600      10.89488548       9.31954265       0.19865259      -0.40910801       0.52675305      -0.17875747       0.18653745       0.40605380
N        9.53372475      12.00676405       8.74610062      -0.25353660      -0.25160151       1.16950756       0.27124440       0.46638210       0.05494606
Pb      -0.10518052       7.99519475      13.05412646      -0.17594280      -0.16976152       0.11103580      -0.89007608      -2.22653110      -0.84824345
Pb       6.30288811       7.71854533      13.02651500      -0.03186673       0.26931127      -0.00157463       2.18134682      -1.13112842       0.37202963
Pb       0.08165417       1.71171449       6.70867151      -0.20601731       0.01332311       0.17640663       2.12565814       3.13738424      -2.10831109
Pb       0.01833317       8.05897236       6.76851627      -0.07898924       0.05238447       0.05082632       0.51884982       0.12999800       0.90870700
I        2.98756816       7.62036019      12.38600059       0.05874902      -0.03613345       0.06558079       1.31206142      -0.36779629       0.81405538
I        9.26850878       8.25601621      13.79662043       0.25758572       0.15382874      -0.24046779      -0.57947109       0.87196218       0.23195510
I        9.42508097       7.65391146       6.08285430       0.11262327      -0.05132625       0.02136633      -1.97571260       0.57260754      -2.05346553
I        3.18197327       7.93625449       7.20048415      -0.12524214       0.17815629       0.04508683       0.25505325       1.60203652       1.16246725
I       -0.17294792       4.85456842      13.47132644       0.05243790      -0.23311368      -0.07743564       0.30903249      -1.70540018       1.73849660
I        0.49096615      11.23584350       0.24410997      -0.14025673      -0.09773656       0.08215842       1.54811171       0.49247691       0.84619665
I       25.00230063      11.22380644       6.82631178       0.10937973      -0.00645133      -0.10048632       1.12853315       0.36114426       0.03629781
I        0.30120987       4.92233019       6.67222556      -0.05931965      -0.16354481       0.04627097       0.96655987      -1.58322617      -0.12031588
I       13.02236152       8.17572484       3.56943792       0.05162618       0.08705489      -0.05297611      -0.50087474      -0.73682136       1.31753427
I        5.70956721       7.81648136       3.46906937       0.02459686      -0.11602079       0.25879821      -0.46917631       1.55727726      -0.93579174
I        6.86881372       8.19535642       9.90799816      -0.01174830      -0.03355349      -0.23853160       0.02432459      -1.51018504       0.41176100
I       24.41180861       7.92630207       9.79153715      -0.03344206      -0.10734227      -0.03062743      -0.82990359      -1.26086748      -1.59666973
H        9.35655237      10.20354813      17.13852447       0.53487694       1.04115910      -0.96954056      -0.06472216      -0.06291506      -0.05788951
H        9.33497002       3.67889197      15.12460939       0.61721751      -0.53335133      -0.63635332      -0.03132787      -0.03188970      -0.12988063
H        8.39089330       3.52864771      22.75269376       0.03636249      -0.04450681       0.44927838      -0.01497049       0.13540631       0.04223826
H       10.64832070      10.59960805      22.37225805      -0.01731525       0.30667607      -0.27284570       0.09315197       0.01550753       0.13323511
H       11.41080573      10.40147607      16.04065927      -0.68933245       0.61324297      -0.27538432      -0.04746097       0.13928461       0.01398042
H       11.26697504       5.13114810      15.65907541       0.12638836      -0.15933720      -0.58056122       0.04291888      -0.09762237      -0.25321985
H        1.31522135      11.45172991      23.39768234       1.35195928       0.20452011      -0.88871389       0.04749729       0.04422038       0.02957285
H        9.12965822      10.47251583      24.18658223       0.44113797      -0.51951801       0.46970061       0.15848033      -0.05069656      -0.02545102
H        4.40136627       4.90227550      14.80251432       0.59815504       0.90663492       0.22801066       0.21611816      -0.04070316      -0.14160374
H        2.53723493      12.78084039      15.67766613      -0.11317237      -0.21288256       0.16065887       0.15019752       0.12899091       0.15204377
H        1.89986882      12.32818173      21.87517484       0.14160467      -0.86008615       0.74447604       0.01740732       0.07492356      -0.10181034
H        8.10456696      11.73454405      23.68186969       0.64827968      -0.58535713      -0.53474089      -0.09138715      -0.04706857       0.05968159
H        3.57504348       6.14338942      16.86434457       0.21202775       0.50195926       0.31100409      -0.10201413       0.04348004      -0.14271268
H        1.59087961      11.43237004      17.56760903       1.74280988      -1.88573830       0.14932823       0.13825835       0.09219090       0.00803615
H        4.36727088      11.49726413      21.14006155       0.04247209       0.12501553      -0.18617968      -0.01161352      -0.00496070       0.13518018
H        3.84006091       5.78969032      23.23000907       0.44408456       1.47004730       0.68686043       0.10465762      -0.00223508      -0.07979839
H        7.73072046      11.75505578      16.87832726      -0.71631566      -0.04576658       0.53282912      -0.07901555       0.09631244       0.15310045
H        2.81112055      10.21181024      18.22164367      -0.08654647      -1.08551267       1.22256974      -0.00993868       0.12931723      -0.04959975
H        8.68922746       5.15928551      24.49305612       0.92437271       0.08906797      -1.33538965       0.35958969      -0.24373198       0.21030691
H        4.46049320       4.95365079      21.72458598      -0.73985874       0.22428621       0.53218958      -0.09464104       0.07292064      -0.25312637
C        9.56914548      11.09495203      16.44070574      -1.98361695      -1.55798096       1.90770997      -0.31067051       0.58517500       0.10066313
C        3.44269780      11.09683389      16.51601645       0.15890864       1.19856125       0.22323141       0.66121584      -0.46711584       0.14496403
C        3.20929331      10.90646883      22.76946455      -1.18945944      -0.49386932       0.55555419      -0.51254253      -0.18168027      -0.37546618
C        2.49716575       4.57375184      22.37235449       1.19043433      -1.13626834      -1.91989315       0.02952113       0.15476755       0.06299256
N        3.54918641       4.38710504      15.01390964      -0.86005432      -1.75948176      -1.67338954      -0.52798105       0.07154310      -0.10522036
N        3.29601636      12.08301819      15.63136725       0.74013915      -0.17175834      -1.27409393      -0.17113379       0.73632322       0.61127945
N        2.07794873      11.60431157      22.65096842      -0.48067682       0.48008015      -0.10496453      -0.16762574       0.66647156       0.10063593
N        8.98143235      11.17139467      23.48707937      -0.79225941       0.80638199       0.43102017       0.83733825      -0.34805106       0.06858380
N        2.79516357       5.48195158      16.94575262       0.79538449       0.32073097      -0.05287426       0.47144139      -0.15235232      -0.54250856
N        2.56093717      10.87287361      17.53633722      -1.92430365       2.71054798      -1.03760948       0.34311088       0.13007205       0.29730214
N        9.18950594       5.32018361      23.55114335      -0.67755440      -0.10297505       0.10255138      -0.02301294       1.07737770      -0.80407400
N        3.70467565       5.17286162      22.43283172       0.21705181      -1.62605334      -1.05032782      -0.23151701      -0.07299304      -0.20802572
Pb       6.40280768       1.34509286       0.37479076       0.28961738       0.01663720      -0.31407682      -0.87035495       1.94582758      -1.19969660
Pb       0.19717224       1.47554698       0.36397337      -0.20499068       0.40093501      -0.01343800       1.82266948      -1.36940328      -0.99600582
Pb       6.11280325       7.97654663      19.33913992       0.09221350      -0.08610039      -0.01383837       1.59028423      -2.30669962       0.95439916
Pb       5.96724122       1.60858287      19.17013096       0.15847532      -0.07198934       0.36714343       2.86612525      -1.79034829       1.01564102
I        9.66536306       1.17364385       1.02037353       0.04349311       0.09828039      -0.20351008      -2.36030297      -0.41988092      -1.95105169
I        3.00983137      14.36744731      25.02531577      -0.08754272       0.20409990       0.09731139       0.01549749       0.35055445       3.28042758
I        2.83343968       1.25727850      19.98939492       0.31695580      -0.03046330       0.00014721      -0.72409319      -1.15620190       0.68652670
I        9.27233002       1.67263622      19.20323867      -0.19967144       0.10279292      -0.05103589      -0.06694893       0.41572266      -0.47456342
I        6.29326739      11.07670880       0.66569757      -0.16206885      -0.02506764      -0.00866645      -0.45314298      -0.14003342      -0.76635972
I        6.82009842       4.64780795      13.15716891      -0.19701240      -0.07099001       0.03134046      -0.81623060      -1.70972221      -1.65447187
I        5.53281990       4.74019329      19.35379916       0.15732516      -0.00536507       0.01136414       0.26283822      -0.64132998       1.03169239
I        6.44131449      11.12380366      19.08147703      -0.14821210       0.03774660      -0.02944155       0.26696879      -1.48283162       0.39393650
I        5.99526199      14.53457538      16.04817545      -0.28587168      -0.07469503      -0.05715687      -0.01844501       0.97296643      -2.70932943
I        0.34580718       1.44731216      16.32177469       0.11550908      -0.09962179      -0.20960546       1.62525127      -0.03092942       2.34820164
I       24.59643951       1.84740439      22.41379508      -0.03530221       0.04311676       0.13778231       1.98872932      -0.36780466      -0.31171002
I        6.38442752       1.17997378      22.37022055       0.10128332       0.09349730       0.23447022      -0.01974150      -0.19472109      -1.68934210
H        1.87652523       3.86628596      16.21553386      -0.44778982      -0.61468997      -0.46513266      -0.20683960      -0.14399442       0.01130182
H        4.43398131      10.55737761      16.43236183       0.04812157      -0.61147263      -0.09777756       0.08589283      -0.02215204       0.00419010
H        3.19086786      10.19188720      23.63976554       0.34948436       0.39401943      -0.45022369       0.13468367       0.07370888       0.11768649
H        2.24640139       3.76363627      21.57155345       0.56509154       0.54224147       0.25931398       0.07533975       0.02068375      -0.02919915
H        3.33137413       3.65975869      14.29600211       0.09513666       0.44706603       0.67643709       0.15216889      -0.04517022       0.02830318
H        4.06109514      12.22807910      14.87935242      -0.48986948      -0.05249219       0.53940189       0.02303089       0.13244588      -0.02873465
H        9.33267586       3.83936480      20.60825483      -0.14349676       0.50541998       0.29004425      -0.07649571      -0.05591670      -0.09056663
H        0.67206273       4.26148469      23.21478668      -1.17235371      -1.14711150      -0.57480632      -0.05390673       0.06190853      -0.13854012
H       10.95950070      11.84515520      15.13123501      -0.17107771       0.14401514       0.04240539       0.07842794       0.04643897       0.12344794
H       10.36214135       5.82933663      17.00040520       0.03718044      -0.31343163      -0.34630122       0.10845168       0.07795673      -0.15019581
H        9.66570813       5.76408489      20.94285568      -0.01022652      -0.72695418      -0.40700064       0.08734462      -0.10916692       0.03041157
H        1.63898871       5.53651614      23.97129537      -0.21423348       0.06074330       0.11615231       0.06569204       0.13698554       0.02829652
H        8.62157945      12.75070224      15.71791567      -0.18842381      -0.06417782       0.04713635       0.03988470      -0.02255676       0.04035928
H        8.22603216       4.81516502      17.73317889       0.49623047      -0.63687378      -1.06306693      -0.15436137      -0.14533337      -0.06767085
H        9.70570072       6.24319616      23.36226373      -0.33878314      -0.39408225       0.09019009       0.08763560      -0.04178532       0.12914747
H        8.42930038      12.54568470      21.48624997       0.30094466       0.25120053      -0.71276517       0.06820312       0.24657158       0.14505113
H        2.23450040       5.43368060      17.77463515      -0.58285628       0.13590917       0.66326594      -0.01261347      -0.12618623      -0.13941335
H        7.57456036       3.68183442      16.57244801      -0.49411846      -0.80995465      -0.38551081       0.01186193       0.03874087      -0.17855771
H        5.00579605      10.20054770      22.17521821      -0.31969944       0.50510707      -0.19491275      -0.05854874      -0.01945301       0.04872847
H       10.02625228      12.00496426      20.62720258       0.25071839       0.50973320      -1.14039139      -0.15712344       0.12466781       0.01804752
C        2.69714592       4.54885809      16.03817483       0.22702599       0.09882564       0.19295418      -0.17350903      -0.27465608      -0.35187755
C        9.38584716       4.33943964      15.99186448       0.79186881       1.16642036       0.17862265       0.24045424       0.14669029       0.57920990
C        8.94787038       4.49012099      22.53987037      -0.56619270      -0.34994723       0.70255362      -0.71433508      -0.77834546      -0.25478452
C        9.74300576      11.25942157      22.39615626      -0.74512942      -0.69752025       0.89884490      -0.01449207      -0.21795885       0.32115097
N       10.70091050      11.14937845      15.83458281       2.03273848      -0.71407379      -0.30999775      -0.39526463       1.35607125       0.22085503
N       10.40066163       5.16663727      16.18648921      -0.80622093      -0.11797978       0.93655498       0.17099946      -0.02763432      -0.09160415
N        9.29694753       4.70683928      21.24250069       0.91130418       1.00976008      -0.04216079      -0.56390725      -0.32135577       0.37849651
N        1.49039316       4.85728591      23.15636787      -0.18479269       1.55770054       1.82659499       0.02481348       0.22994412      -0.91042188
N        8.54836020      11.91902894      16.32574950       1.20809900       0.37235972      -0.92548988      -0.48773470       0.56534354      -0.68019355
N        8.33920402       4.29972797      16.77777260      -0.83537194       1.72059345       1.95047295       0.11567739      -0.41615676      -0.16664343
N        4.25625626      10.89003224      21.95320160       0.19865259      -0.40910801       0.52675305      -0.17875747       0.18653745       0.40605380
N        9.35999501      12.00191081      21.37975957      -0.25353660      -0.25160151       1.16950756       0.27124440       0.46638210       0.05494606
Pb       0.06854922       8.00004799       0.42046751      -0.17594280      -0.16976152       0.11103580      -0.89007608      -2.22653110      -0.84824345
Pb       6.47661785       7.72339857       0.39285605      -0.03186673       0.26931127      -0.00157463       2.18134682      -1.13112842       0.37202963
Pb      -0.09207557       1.70686125      19.34233046      -0.20601731       0.01332311       0.17640663       2.12565814       3.13738424      -2.10831109
Pb      -0.15539657       8.05411912      19.40217522      -0.07898924       0.05238447       0.05082632       0.51884982       0.12999800       0.90870700
I        2.81383842       7.61550695      25.01965954       0.05874902      -0.03613345       0.06558079       1.31206142      -0.36779629       0.81405538
I        9.44223852       8.26086945       1.16296148       0.25758572       0.15382874      -0.24046779      -0.57947109       0.87196218       0.23195510
I        9.25135123       7.64905822      18.71651325       0.11262327      -0.05132625       0.02136633      -1.97571260       0.57260754      -2.05346553
I        3.00824353       7.93140125      19.83414310      -0.12524214       0.17815629       0.04508683       0.25505325       1.60203652       1.16246725
I        0.00078182       4.85942166       0.83766749       0.05243790      -0.23311368      -0.07743564       0.30903249      -1.70540018       1.73849660
I        0.31723641      11.23099026      12.87776892      -0.14025673      -0.09773656       0.08215842       1.54811171       0.49247691       0.84619665
I       24.82857090      11.21895320      19.45997073       0.10937973      -0.00645133      -0.10048632       1.12853315       0.36114426       0.03629781
I        0.12748013       4.91747695      19.30588451      -0.05931965      -0.16354481       0.04627097       0.96655987      -1.58322617      -0.12031588
I       12.84863178       8.17087160      16.20309687       0.05162618       0.08705489      -0.05297611      -0.50087474      -0.73682136       1.31753427
I        5.53583747       7.81162812      16.10272832       0.02459686      -0.11602079       0.25879821      -0.46917631       1.55727726      -0.93579174