768
Lattice="25.244031463055336 -0.051139010145229986 -0.15563925591508607 -0.008975214029691772 25.575374942549175 -0.11406019386377196 -0.3474594723078396 -0.009706484009668169 25.26731789926129" Properties=species:S:1:pos:R:3:forces:R:3:momenta:R:3 pbc="T T T"
H        9.55870438      10.29001281       4.74700652      -0.47243955      -0.26447910      -0.06335154       0.07772061       0.13571516      -0.11643473
H       10.01194423       3.36372678       2.23999885      -0.26341954      -0.65636599      -0.08599440      -0.08323052      -0.08437604       0.07543300
H        8.54428903       3.58943629       9.43348288      -0.26086720      -0.44982716      -0.10573144       0.05408914      -0.09755024      -0.06675738
H       10.67099769       9.65762866       9.34800009      -0.24158760       0.64287393      -0.03400157       0.09761581      -0.15286551      -0.01298981
H       11.39754788       9.95964937       3.43335399      -0.04444462       0.50641270      -0.17068338       0.05348673       0.05822947       0.00546667
H       11.41276204       5.01878848       2.69960182       0.04697128       0.20613500       0.28498713      -0.08184527      -0.14589436      -0.04210240
H        1.44259101      11.43995379      10.06707630       0.49758258      -0.01860840      -0.14001556       0.11690155      -0.04487512      -0.03251334
H        9.66204125       9.71826907      11.51918359       0.03834498       0.32474276      -0.84267390       0.22260146      -0.10460080       0.11997458
H        4.37065856       4.64543936       1.84617212      -0.15496454      -0.51763988      -0.46867624      -0.20880559      -0.18556933      -0.04520982
H        3.17806520      12.29223389       2.38532727      -0.49163757       0.37965691       0.52486357      -0.14984925      -0.06112361       0.19902197
H        2.46660531      12.12541185       8.77019259      -0.04092944       0.13989078       0.08318816       0.07944642       0.07592938      -0.06093461
H        8.71508974      11.15577217      11.17876295       0.69767449      -0.46405167      -0.36490208       0.04273731      -0.27627494       0.19447820
H        4.21325342       5.50221477       4.19405306      -0.06470272       0.24681442       0.08610529       0.34583413       0.03477427      -0.08918144
H        2.58338279      11.51456654       4.82506525      -0.31324779       0.32865667      -0.11954331      -0.17206659      -0.07808654       0.14298022
H        4.73113344      11.15509602       8.38514035      -0.08209521      -0.00566321       0.60923338      -0.07039030      -0.02263039       0.10810236
H        3.76070584       5.58024018      10.21101435      -0.12635785      -0.14214937      -0.02021834      -0.02513655       0.01947200      -0.09031307
H        7.77389551      11.65123656       4.02270831       1.01020687       0.14677447      -0.89123813       0.11873920      -0.03016924      -0.05470728
H        3.10983396       9.83088161       5.17209469       0.09342031      -0.47039159       0.67796730       0.02159258       0.12207463       0.03659036
H        8.78486661       5.07307497      11.27092907       0.22551748      -0.23187989      -0.43645985       0.01855694      -0.13846970       0.00827068
H        4.45119523       4.86259872       8.74507321      -0.04708198      -0.09554568       0.14705433      -0.02209553       0.03688078      -0.13737428
C        9.60187327      10.82245468       3.73242490      -0.62223123       1.37888647       0.25515575      -0.42716079      -0.10383807      -0.18022224
C        3.68706909      10.47374160       3.37801275       0.05811071       0.21174807      -0.88417016      -0.42922256       0.67224312      -0.54363769
C        3.38977739      10.73435940       9.98673701       1.06907983       0.05342439      -0.84075314       0.22732356       0.52752997      -0.22742470
C        2.70959074       3.99210663       9.39557527       0.18116766       0.10528351       0.20017725       0.18184751      -0.75813137      -0.27987498
N        3.51749291       4.06372335       1.98803785       0.10054076       1.19728550       1.04872355      -0.58323557       0.05095630      -0.43520703
N        3.70462787      11.41487584       2.42573521      -0.14559919      -0.32375285       0.12033137      -0.29638133      -0.80838930      -0.42836262
N        2.37978446      11.49767916       9.60615029      -0.55884874      -0.52346607       0.34815812       0.34993989       0.75668443       0.26026969
N        9.44102460      10.47311992      10.82545277      -0.45190272       0.21885787       0.26747356      -0.33300066       0.61622289       0.09864618
N        3.32198384       4.92562110       4.20029337      -0.12299358      -0.03128944       0.63510311       0.45339894       0.47466585      -0.43427848
N        3.09130987      10.63439363       4.53609666       0.46360459      -0.30192702      -0.24668856       0.13811718       0.26564003      -0.17489924
N        9.43974380       5.12361926      10.46966408       0.46307960       0.68157619       0.58785893       0.43426863      -0.15675642      -0.15546026
N        3.72980030       4.82777450       9.51103386       0.00506666      -0.06832244      -0.26069572       0.76282394       0.00002387       0.17742692
Pb       6.25381909       1.28631991      12.64828375      -0.21479329       0.18850220       0.33028076       1.57585781      -2.80136587       2.32554711
Pb      -0.13637381       1.20946216      12.89698231       0.30262799       0.16812082      -0.16784967      -0.60487461       0.43730966       1.59028033
Pb       6.62060636       7.75857539       6.63941096      -0.29947429       0.04609577      -0.04944021       1.15947193      -2.88335094      -0.72108750
Pb       6.34695120       1.36632891       6.55614549       0.09912208       0.11825965      -0.13857272      -0.52757565      -0.12241423       1.40612184
I        9.40618923       0.96249839      13.24822959       0.18178355      -0.05667982       0.06270073       2.07369297       0.52374484       2.71820071
I        3.17900469      14.22384707      12.05243806      -0.24294987      -0.06207603       0.15580840       0.83744161       1.26322842       0.29840090
I        3.04430468       0.80094768       7.01790705       0.43940134       0.10520407      -0.01976480       0.45100989      -1.12741769      -0.98255732
I        9.44079438       1.51272551       6.11091312       0.17542584       0.04346536       0.06237480      -0.56019356       0.50898314       2.34625725
I        6.25274891      10.87483618      12.91169805       0.06064488      -0.17445626      -0.05879214      -0.93774411      -0.71979411       0.25763215
I        6.82019407       4.44586742       0.01011202      -0.05822192       0.10420199       0.01861980       0.87389700      -0.51226176      -0.48671332
I        6.34429133       4.63294349       6.82902122      -0.08570750      -0.05486736       0.03347526       1.31991597      -0.45585920      -0.67324753
I        6.68183397      11.08946525       6.32682744      -0.06943154      -0.34731191       0.01207242       1.49741514      -1.12954673      -0.61272432
I        5.95560957      14.40266847       3.40571747      -0.05948782      -0.18789110      -0.22082528      -1.53087671       0.88865820      -0.31460517
I        0.80748849       0.70150401       3.38009944      -0.02745727       0.23230647       0.03694383       1.28653695      -1.32612570      -0.59872469
I       24.67390243       1.17483622       9.60715045      -0.01452324       0.00877961      -0.29548371      -0.68048901      -0.96824359       0.57100903
I        7.05720011       1.03761907       9.78505582       0.01538903      -0.01656311      -0.21395681       0.86436537      -0.93123725       0.33938777
H        1.97663446       3.56246445       3.31418908       0.29348906       0.50007536       0.05859636      -0.20784278      -0.02001247       0.05240121
H        4.23046736       9.48894921       3.09110607      -0.33997800       0.20809925       0.65541654       0.05232027       0.12997186      -0.03623052
H        3.32433501       9.97783711      10.75851835      -0.49978541       0.13811426       0.63202108      -0.02596194      -0.24711870       0.07346306
H        2.75786472       3.23859553       8.57364324      -0.14757972       0.55128667       0.29146586      -0.01335364       0.07442306       0.01943828
H        3.08714629       3.48810800       1.18867857       0.21774667       0.04738883       0.42219807       0.00260424       0.09666052       0.14068504
H        4.20301905      11.16162519       1.57430650       0.63509749      -0.10556036      -0.61929228      -0.07157039      -0.20148820      -0.06642942
H        9.86853438       3.95949575       7.49548004       0.15809142      -0.02373675       0.29333345      -0.10585430       0.07515958      -0.31478786
H        0.89942059       3.24249915      10.03322495       1.03277589       0.72821658       0.26930338       0.03522516       0.03423712       0.05206094
H       10.98491107      11.18324637       2.17193248      -0.11487456      -0.27202679       0.33046817       0.06314737       0.12461019       0.05319995
H       10.33808985       5.76221648       3.97745619       0.51056837      -0.54913282      -0.50677952       0.23358962       0.12574724      -0.26523111
H       10.83522138       5.20291733       8.31577014      -0.23013581      -0.00599696       0.11698680       0.14906425      -0.19190605       0.20392821
H        1.53725534       4.48037391      11.16429168       0.44504801      -0.74429922      -1.09562489      -0.02980248       0.09133494       0.17209872
H        8.55352453      12.20594158       2.44816951       0.33415904      -0.53246329       0.33325454      -0.13267497      -0.01410761      -0.10149181
H        8.23074683       4.67009962       4.24526441      -0.47335071       0.27308630       0.61804527       0.14775961      -0.11703009      -0.04398999
H       10.13839412       5.90890679      10.49647761      -0.68533610      -0.84135643      -0.06227284       0.01532614       0.11310192      -0.04048903
H        9.00271276      12.18724685       8.79725019       0.54728514      -0.52545320       0.08677311       0.06589574       0.05645976      -0.07299292
H        2.66727521       4.88874474       5.00937964       0.53704445       0.34012635      -0.13150615      -0.10385693      -0.08474721      -0.02411463
H        7.82741334       3.19495839       3.39532473      -0.12592511      -0.28998291      -0.23111614       0.12826124      -0.06228191      -0.10022703
H        5.31611201      10.08919993       9.72214177      -0.18068077      -0.03043145      -0.02888138      -0.03518806       0.08739712      -0.10488036
H       10.28947756      11.42975188       7.82598401      -0.13428974      -0.08427249      -0.09015039       0.03580101      -0.08043972      -0.01857659
C        2.91461441       4.19586136       3.18619422      -0.64278668      -1.74528274      -1.77016585      -0.58602458      -0.22385886      -0.46724363
C        9.72082047       4.04948384       3.05282850      -2.51278787      -1.46724917      -0.59911420       0.49847581       0.27649763       0.30277330
C        9.32179056       4.34105904       9.41617152      -0.10923260       1.33607005       1.03388628      -0.28216507      -0.72116834      -0.39650500
C        9.96890120      10.50464883       9.59235672      -0.31346575      -0.39782784       0.79319898       0.48819814       1.00009769       0.02691832
N       10.76994172      10.74927623       3.14636939       1.03915960      -0.71069896      -0.92478006      -0.99362219      -0.00215396      -0.09098935
N       10.60922986       4.92310777       3.35593314       1.48365783       2.17709860       0.66182200       0.34932858      -0.21781159       0.06004962
N       10.06101322       4.52341673       8.35536650       0.52257155      -0.63524287      -1.48526382      -0.07611252      -0.11274724       0.58461982
N        1.67103622       3.94331442      10.23486707      -1.14016358      -0.15020400       0.30937588      -0.71216823       0.81824799       0.37240812
N        8.57801911      11.58426918       3.31265113      -1.00195306      -0.50304273       0.98029910      -0.18367383      -0.69722409      -0.05764801
N        8.48012925       3.96444928       3.57060401       1.48837831       0.51605732      -0.33359804       0.22382655      -0.42525630      -0.41384255
N        4.59997237      10.77196283       9.42771403      -0.28041602      -0.06497785      -0.44132394       0.09757981       0.17451538      -0.17508508
N        9.68429413      11.40151808       8.65765768      -0.25504979       0.32073896       0.19932925      -0.25736608      -0.56282046      -0.54419920
Pb       0.18526470       7.72302436      12.76805612      -0.11487418       0.03846935       0.32068688      -0.60180527       0.16741918      -2.04880350
Pb       6.34319776       7.67089375      13.01955193       0.25272542      -0.13198612      -0.24907350       1.45334258      -3.01449034      -1.73485545
Pb       0.16604453       1.19135757       6.45043670      -0.45882539       0.10524186       0.11558100      -1.10655447       1.93331862       0.46679942
Pb       0.20312838       7.60312611       6.54294119       0.19833007      -0.03771844      -0.17872835      -1.02642363      -2.16450348       0.13290573
I        3.27114467       7.30399580      12.40133192       0.14914429       0.01106659      -0.21088085      -1.54363396       1.94893399       1.78754631
I        9.65505965       7.58839714      13.19059459      -0.23547821       0.18811343       0.07178087      -0.06199507      -1.81219248       0.49290707
I        9.60653981       7.32506886       5.78847674       0.09827767       0.06363603       0.02995148      -0.86733128       0.92636631       0.16358795
I        3.28849314       7.86324531       7.11854320       0.13504011       0.09987842      -0.11729667      -0.32157276      -0.49902595       0.33665057
I       24.97539456       4.53342373      12.50391204      -0.16773081      -0.24150810       0.49400702      -2.32503086       0.14714057       0.23049433
I        0.48634935      10.95941456       0.06148812       0.00879073      -0.08814209      -0.07945860      -1.00713152       0.95484758       0.81256299
I       -0.04042935      10.75111168       6.50279682      -0.17305581       0.06022880       0.13773158      -0.28952847      -0.25894058       0.13972630
I        0.76737274       4.33656268       6.27715552      -0.33786060       0.04316911       0.23755259       2.33720366      -1.73294415      -1.05799513
I       13.32280619       7.77242755       3.26135251      -0.08592015       0.06340249       0.10639620       0.79812537      -1.63724482       1.40765097
I        5.97861156       7.21151279       3.36595751       0.03156619       0.05210258       0.00708060      -0.03267697       1.14835424      -1.12981925
I        6.87972772       7.74282709       9.62094764      -0.01540086       0.12735960       0.33945749       2.69725415       0.64464598      -1.82833164
I       24.79633951       7.50320438       9.54168063       0.01062530      -0.12918349      -0.23886651      -2.14256111       0.12688224       0.35877124
H        9.38497464      10.28515957      17.38066547      -0.47243955      -0.26447910      -0.06335154       0.07772061       0.13571516      -0.11643473
H        9.83821449       3.35887354      14.87365780      -0.26341954      -0.65636599      -0.08599440      -0.08323052      -0.08437604       0.07543300
H        8.37055929       3.58458305      22.06714183      -0.26086720      -0.44982716      -0.10573144       0.05408914      -0.09755024      -0.06675738
H       10.49726795       9.65277542      21.98165904      -0.24158760       0.64287393      -0.03400157       0.09761581      -0.15286551      -0.01298981
H       11.22381814       9.95479613      16.06701294      -0.04444462       0.50641270      -0.17068338       0.05348673       0.05822947       0.00546667
H       11.23903230       5.01393524      15.33326077       0.04697128       0.20613500       0.28498713      -0.08184527      -0.14589436      -0.04210240
H        1.26886127      11.43510055      22.70073525       0.49758258      -0.01860840      -0.14001556       0.11690155      -0.04487512      -0.03251334
H        9.48831151       9.71341583      24.15284254       0.03834498       0.32474276      -0.84267390       0.22260146      -0.10460080       0.11997458
H        4.19692882       4.64058612      14.47983107      -0.15496454      -0.51763988      -0.46867624      -0.20880559      -0.18556933      -0.04520982
H        3.00433546      12.28738065      15.01898622      -0.49163757       0.37965691       0.52486357      -0.14984925      -0.06112361       0.19902197
H        2.29287557      12.12055861      21.40385154      -0.04092944       0.13989078       0.08318816       0.07944642       0.07592938      -0.06093461
H        8.54136000      11.15091893      23.81242190       0.69767449      -0.46405167      -0.36490208       0.04273731      -0.27627494       0.19447820
H        4.03952368       5.49736153      16.82771201      -0.06470272       0.24681442       0.08610529       0.34583413       0.03477427      -0.08918144
H        2.40965305      11.50971330      17.45872420      -0.31324779       0.32865667      -0.11954331      -0.17206659      -0.07808654       0.14298022
H        4.55740370      11.15024278      21.01879930      -0.08209521      -0.00566321       0.60923338      -0.07039030      -0.02263039       0.10810236
H        3.58697610       5.57538694      22.84467330      -0.12635785      -0.14214937      -0.02021834      -0.02513655       0.01947200      -0.09031307
H        7.60016577      11.64638332      16.65636726       1.01020687       0.14677447      -0.89123813       0.11873920      -0.03016924      -0.05470728
H        2.93610422       9.82602837      17.80575364       0.09342031      -0.47039159       0.67796730       0.02159258       0.12207463       0.03659036
H        8.61113687       5.06822173      23.90458802       0.22551748      -0.23187989      -0.43645985       0.01855694      -0.13846970       0.00827068
H        4.27746549       4.85774548      21.37873216      -0.04708198      -0.09554568       0.14705433      -0.02209553       0.03688078      -0.13737428
C        9.42814353      10.81760144      16.36608385      -0.62223123       1.37888647       0.25515575      -0.42716079      -0.10383807      -0.18022224
C        3.51333935      10.46888836      16.01167170       0.05811071       0.21174807      -0.88417016      -0.42922256       0.67224312      -0.54363769
C        3.21604765      10.72950616      22.62039596       1.06907983       0.05342439      -0.84075314       0.22732356       0.52752997      -0.22742470
C        2.53586100       3.98725339      22.02923422       0.18116766       0.10528351       0.20017725       0.18184751      -0.75813137      -0.27987498
N        3.34376317       4.05887011      14.62169680       0.10054076       1.19728550       1.04872355      -0.58323557       0.05095630      -0.43520703
N        3.53089813      11.41002260      15.05939416      -0.14559919      -0.32375285       0.12033137      -0.29638133      -0.80838930      -0.42836262
N        2.20605472      11.49282592      22.23980924      -0.55884874      -0.52346607       0.34815812       0.34993989       0.75668443       0.26026969
N        9.26729486      10.46826668      23.45911172      -0.45190272       0.21885787       0.26747356      -0.33300066       0.61622289       0.09864618
N        3.14825410       4.92076786      16.83395232      -0.12299358      -0.03128944       0.63510311       0.45339894       0.47466585      -0.43427848
N        2.91758013      10.62954039      17.16975561       0.46360459      -0.30192702      -0.24668856       0.13811718       0.26564003      -0.17489924
N        9.26601406       5.11876602      23.10332303       0.46307960       0.68157619       0.58785893       0.43426863      -0.15675642      -0.15546026
N        3.55607056       4.82292126      22.14469281       0.00506666      -0.06832244      -0.26069572       0.76282394       0.00002387       0.17742692
Pb       6.42754883       1.29117315       0.01462480      -0.21479329       0.18850220       0.33028076       1.57585781      -2.80136587       2.32554711
Pb       0.03735593       1.21431540       0.26332336       0.30262799       0.16812082      -0.16784967      -0.60487461       0.43730966       1.59028033
Pb       6.44687662       7.75372215      19.27306991      -0.29947429       0.04609577      -0.04944021       1.15947193      -2.88335094      -0.72108750
Pb       6.17322146       1.36147567      19.18980444       0.09912208       0.11825965      -0.13857272      -0.52757565      -0.12241423       1.40612184
I        9.57991897       0.96735163       0.61457064       0.18178355      -0.05667982       0.06270073       2.07369297       0.52374484       2.71820071
I        3.00527495      14.21899383      24.68609701      -0.24294987      -0.06207603       0.15580840       0.83744161       1.26322842       0.29840090
I        2.87057494       0.79609444      19.65156600       0.43940134       0.10520407      -0.01976480       0.45100989      -1.12741769      -0.98255732
I        9.26706464       1.50787227      18.74457207       0.17542584       0.04346536       0.06237480      -0.56019356       0.50898314       2.34625725
I        6.42647865      10.87968942       0.27803910       0.06064488      -0.17445626      -0.05879214      -0.93774411      -0.71979411       0.25763215
I        6.64646433       4.44101418      12.64377097      -0.05822192       0.10420199       0.01861980       0.87389700      -0.51226176      -0.48671332
I        6.17056159       4.62809025      19.46268017      -0.08570750      -0.05486736       0.03347526       1.31991597      -0.45585920      -0.67324753
I        6.50810423      11.08461201      18.96048639      -0.06943154      -0.34731191       0.01207242       1.49741514      -1.12954673      -0.61272432
I        5.78187983      14.39781523      16.03937642      -0.05948782      -0.18789110      -0.22082528      -1.53087671       0.88865820      -0.31460517
I        0.63375875       0.69665077      16.01375839      -0.02745727       0.23230647       0.03694383       1.28653695      -1.32612570      -0.59872469
I       24.50017270       1.16998298      22.24080940      -0.01452324       0.00877961      -0.29548371      -0.68048901      -0.96824359       0.57100903
I        6.88347037       1.03276583      22.41871477       0.01538903      -0.01656311      -0.21395681       0.86436537      -0.93123725       0.33938777
H        1.80290472       3.55761121      15.94784803       0.29348906       0.50007536       0.05859636      -0.20784278      -0.02001247       0.05240121
H        4.05673762       9.48409597      15.72476502      -0.33997800       0.20809925       0.65541654       0.05232027       0.12997186      -0.03623052
H        3.15060527       9.97298387      23.39217730      -0.49978541       0.13811426       0.63202108      -0.02596194      -0.24711870       0.07346306
H        2.58413498       3.23374229      21.20730219      -0.14757972       0.55128667       0.29146586      -0.01335364       0.07442306       0.01943828
H        2.91341655       3.48325476      13.82233752       0.21774667       0.04738883       0.42219807       0.00260424       0.09666052       0.14068504
H        4.02928931      11.15677195      14.20796545       0.63509749      -0.10556036      -0.61929228      -0.07157039      -0.20148820      -0.06642942
H        9.69480464       3.95464251      20.12913899       0.15809142      -0.02373675       0.29333345      -0.10585430       0.07515958      -0.31478786
H        0.72569085       3.23764591      22.66688390       1.03277589       0.72821658       0.26930338       0.03522516       0.03423712       0.05206094
H       10.81118133      11.17839313      14.80559143      -0.11487456      -0.27202679       0.33046817       0.06314737       0.12461019       0.05319995
H       10.16436011       5.75736324      16.61111514       0.51056837      -0.54913282      -0.50677952       0.23358962       0.12574724      -0.26523111
H       10.66149164       5.19806409      20.94942909      -0.23013581      -0.00599696       0.11698680       0.14906425      -0.19190605       0.20392821
H        1.36352560       4.47552067      23.79795063       0.44504801      -0.74429922      -1.09562489      -0.02980248       0.09133494       0.17209872
H        8.37979479      12.20108834      15.08182846       0.33415904      -0.53246329       0.33325454      -0.13267497      -0.01410761      -0.10149181
H        8.05701709       4.66524638      16.87892336      -0.47335071       0.27308630       0.61804527       0.14775961      -0.11703009      -0.04398999
H        9.96466438       5.90405355      23.13013656      -0.68533610      -0.84135643      -0.06227284       0.01532614       0.11310192      -0.04048903
H        8.82898302      12.18239361      21.43090914       0.54728514      -0.52545320       0.08677311       0.06589574       0.05645976      -0.07299292
H        2.49354547       4.88389150      17.64303859       0.53704445       0.34012635      -0.13150615      -0.10385693      -0.08474721      -0.02411463
H        7.65368360       3.19010515      16.02898368      -0.12592511      -0.28998291      -0.23111614       0.12826124      -0.06228191      -0.10022703
H        5.14238227      10.08434669      22.35580072      -0.18068077      -0.03043145      -0.02888138      -0.03518806       0.08739712      -0.10488036
H       10.11574782      11.42489864      20.45964296      -0.13428974      -0.08427249      -0.09015039       0.03580101      -0.08043972      -0.01857659
C        2.74088467       4.19100812      15.81985317      -0.64278668      -1.74528274      -1.77016585      -0.58602458      -0.22385886      -0.46724363
C        9.54709073       4.04463060      15.68648745      -2.51278787      -1.46724917      -0.59911420       0.49847581       0.27649763       0.30277330
C        9.14806082       4.33620580      22.04983047      -0.10923260       1.33607005       1.03388628      -0.28216507      -0.72116834      -0.39650500
C        9.79517146      10.49979559      22.22601567      -0.31346575      -0.39782784       0.79319898       0.48819814       1.00009769       0.02691832
N       10.59621198      10.74442299      15.78002834       1.03915960      -0.71069896      -0.92478006      -0.99362219      -0.00215396      -0.09098935
N       10.43550012       4.91825453      15.98959209       1.48365783       2.17709860       0.66182200       0.34932858      -0.21781159       0.06004962
N        9.88728348       4.51856349      20.98902545       0.52257155      -0.63524287      -1.48526382      -0.07611252      -0.11274724       0.58461982
N        1.49730648       3.93846118      22.86852602      -1.14016358      -0.15020400       0.30937588      -0.71216823       0.81824799       0.37240812
N        8.40428937      11.57941594      15.94631008      -1.00195306      -0.50304273       0.98029910      -0.18367383      -0.69722409      -0.05764801
N        8.30639951       3.95959604      16.20426296       1.48837831       0.51605732      -0.33359804       0.22382655      -0.42525630      -0.41384255
N        4.42624263      10.76710959      22.06137298      -0.28041602      -0.06497785      -0.44132394       0.09757981       0.17451538      -0.17508508
N        9.51056439      11.39666484      21.29131663      -0.25504979       0.32073896       0.19932925      -0.25736608      -0.56282046      -0.54419920
Pb       0.35899444       7.72787760       0.13439717      -0.11487418       0.03846935       0.32068688      -0.60180527       0.16741918      -2.04880350
Pb       6.51692750       7.67574699       0.38589298       0.25272542      -0.13198612      -0.24907350       1.45334258      -3.01449034      -1.73485545
Pb      -0.00768521       1.18650433      19.08409565      -0.45882539       0.10524186       0.11558100      -1.10655447       1.93331862       0.46679942
Pb       0.02939864       7.59827287      19.17660014       0.19833007      -0.03771844      -0.17872835      -1.02642363      -2.16450348       0.13290573
I        3.09741493       7.29914256      25.03499087       0.14914429       0.01106659      -0.21088085      -1.54363396       1.94893399       1.78754631
I        9.82878939       7.59325038       0.55693564      -0.23547821       0.18811343       0.07178087      -0.06199507      -1.81219248       0.49290707
I        9.43281007       7.32021562      18.42213569       0.09827767       0.06363603       0.02995148      -0.86733128       0.92636631       0.16358795
I        3.11476340       7.85839207      19.75220215       0.13504011       0.09987842      -0.11729667      -0.32157276      -0.49902595       0.33665057
I       25.14912430       4.53827697      -0.12974691      -0.16773081      -0.24150810       0.49400702      -2.32503086       0.14714057       0.23049433
I        0.31261961      10.95456132      12.69514707       0.00879073      -0.08814209      -0.07945860      -1.00713152       0.95484758       0.81256299
I       -0.21415909      10.74625844      19.13645577      -0.17305581       0.06022880       0.13773158      -0.28952847      -0.25894058       0.13972630
I        0.59364300       4.33170944      18.91081447      -0.33786060       0.04316911       0.23755259       2.33720366      -1.73294415      -1.05799513
I       13.14907645       7.76757431      15.89501146      -0.08592015       0.06340249       0.10639620       0.79812537      -1.63724482       1.40765097
I        5.80488182       7.20665955      15.99961646       0.03156619       0.05210258       0.00708060      -0.03267697       1.14835424      -1.12981925