768
Lattice="38.994998665037166 0.07106821782705662 0.35547318029268 0.20366633889610405 23.235525993811105 -0.050934670340891476 0.6633844787472418 -0.16287480069770385 18.246656201326342" Properties=species:S:1:pos:R:3:forces:R:3:momenta:R:3 energy=-3649.9989442773135 stress="0.0 0.0 0.0 0.0 0.0 0.0 0.0 0.0 0.0" pbc="T T T"
H        8.08346342       0.36929690       4.63974531       0.68143767      -0.50259268      -0.24852852       0.08316882      -0.07315269       0.13479915
H       12.99417740      12.38513277       3.27699307      -0.27666553      -0.02089005      -0.09228940       0.03395495      -0.13005231       0.35577533
H        3.13455154       6.17684347       4.95922343      -0.47754387      -0.14210514       0.38281060      -0.25394439      -0.15975677      -0.11850355
H       17.41655555       6.41147010       2.33622559       0.11750237      -0.26640251       0.09068004      -0.14307488      -0.10310277      -0.11261202
H        6.92948477      -0.43186366       9.81295618       0.34941469      -0.23390482       0.09989965      -0.07351677      -0.08247073       0.02981163
H       12.62252946       9.92233673       3.58528879       0.22298220       0.21843817      -0.05927250       0.06897593       0.18291726       0.07185124
H        4.67584325       5.23591746       8.02988490       0.47401350       0.85048604       0.33141214       0.14118782      -0.10467335       0.01245743
H       16.12514228       6.84612494       4.13680689      -0.37705358       0.35258196       0.45374652      -0.16122637      -0.18211631      -0.25034062
H        5.49608355       1.17781339       5.84672328      -0.33413683       0.55492678       0.26616972       0.04975030      -0.01327803       0.17605265
H       13.86562626       9.37965985       2.42191829       1.34828719      -0.96115137      -0.43766212       0.00264026       0.03975188      -0.02374840
H        5.82867781       6.63287594       8.28581571       0.40688158       0.30522993      -0.12699500      -0.04182585      -0.00651812      -0.12385922
H       15.29015495       5.26657612       4.22022709      -0.31983966      -0.26887366       0.04092735      -0.06477525      -0.13660741      -0.22264080
H        6.50850951       2.89127769       4.58305068       0.00043034       0.16319522      -0.01108092       0.14674450       0.01061022      -0.09122640
H       15.03656405      11.21896159       1.16717296      -0.62110505       0.26608961       0.34889865      -0.15113562      -0.01511024      -0.03502989
H        4.82061401       8.62443628       4.91992719      -0.01805600       0.08623466       0.06070669       0.03451755       0.06232745      -0.08129622
H       15.91536308       3.82496975       2.20011574       0.31897275       0.11477884       0.02589369      -0.10150064      -0.03822914      -0.00088031
H        8.02001394       2.52959649       3.73844152       0.29227956       0.17826189      -0.21164440      -0.16146728      -0.12126292      -0.05357392
H       14.45407920      12.98612209       1.55385718       0.15395082      -0.59776395       0.17261245       0.10191073       0.02464471       0.03437183
H        3.45704377       8.32996071       6.00743600      -0.53024735      -0.07661312       0.26708921       0.09830202      -0.08227895       0.08138946
H       17.79054156       4.22839054       5.88266783       0.07125844      -0.31931605      -0.00000331       0.06969650      -0.03493242       0.06445152
C        7.26964134       1.02121018       4.86841873      -0.20460836       1.49898444      -0.06677410       0.43809855       0.05543506       0.09678223
C       13.56474453      11.53356424       2.68051054       1.04003603      -0.30458612      -0.42997818      -0.06569152      -0.55332190      -0.59594625
C        3.91150721       6.86490670       4.65304803       0.49248042      -1.91014833      -1.52573016       0.58423377       0.29884870      -0.02888969
C       16.70851859       5.61793787       2.68762166       0.36994509       1.27884762       0.24265434      -0.30466775       0.70332203      -1.16560461
N        6.33162630       0.61158659       5.67010683      -0.45026347      -0.59305624       0.14639740       0.01183745      -0.27527587       0.21890325
N       13.39920030      10.20011647       2.96768978      -1.72591753       1.20401330       0.39789633      -0.41088093      -0.22905748       0.29194481
N        4.96239870       6.14756472       8.51890852      -1.84099906      -0.98121139       0.47018170      -0.68567399       0.53964303      -0.22555344
N       15.96908398       5.90563241       3.77874728       0.36097696       0.40338903      -0.24636299      -0.04861970      -0.24078617       0.17445473
N        7.29220489       2.26652107       4.39527068      -0.26168504      -0.87894886       0.12046410       0.13336439       0.26628346      -0.26074563
N       14.41924890      11.92643386       1.73210422      -0.33950495       0.07130033       0.28537107       0.48687391      -0.87103129      -0.51380613
N        4.08249335       7.98564427       5.26877080       0.62382312       1.59431797       0.39436694      -0.76146233       0.31412135       0.91197735
N       16.63645629       4.53232864       1.98471728      -0.35685799      -1.88759713      -0.51936546      -0.19229186      -0.15750925       0.18667934
Pb       1.80340482       2.19817980       2.22075502       0.09461543       0.17883758       0.11121223      -0.83772304      -3.58737861      -2.34076684
Pb      18.99942511      10.11108769       5.14362848       0.00837407      -0.02990536      -0.05919219       0.33152052       2.43417047      -0.02103289
Pb       9.24804543       7.93947486       2.82318769      -0.09054872      -0.21464800      -0.09202433      -2.21075626       0.49609708       1.81376827
Pb      11.35503900       4.25615874       4.65682015       0.09904947      -0.00208103       0.06870731       1.53498500       0.17668955      -1.53207504
I        0.88635338       4.23599460       4.58780422       0.02201470      -0.07026434      -0.21843923      -2.35046617       0.08339350       0.31689411
I        0.76086879       8.27498021       2.45547149      -0.20754419      -0.19431929       0.29596553       2.34371951      -0.81121520       1.67867907
I       10.30948171       9.92735539       4.95821648       0.23767843       0.21812444       0.03003596       1.36898643      -2.18658359      -0.73324205
I       10.23225904       2.25309288       2.45079102       0.09922683      -0.07157079      -0.06072534       0.30636600       0.22309893      -0.45681370
I       17.78752012       0.92153926       3.08816281       0.07282584      -0.31276373      -0.12584960       0.15232458       0.49126018       2.12278027
I        2.81263158      11.75968729       4.46029489      -0.03382587      -0.02052431       0.09254181       4.06904607       2.12266106      -0.38363780
I       12.21920699       6.34957591       2.45679249       0.07685184       0.23571688      -0.19707228       1.43672012       0.50113817      -0.84757332
I        8.55459176       5.78605184       5.26670696      -0.17500843       0.14741484      -0.04787755      -0.25325790      -0.70616291      -0.52368171
I        4.69176390       3.56594816       1.78405286      -0.32325684      -0.22947262       0.01384739       2.78007259      -0.23637096       0.00083689
I       16.09206946       8.88266035       5.56410939       0.04869755       0.10798903      -0.02734555      -1.16382708      -0.63613524       0.94101461
I        6.44190640       9.36137160       2.84325127       0.04298811       0.07557126       0.02705431      -0.38153631      -0.87962933       0.87177565
I       14.17290188       2.93942740       4.44061036       0.13524914      -0.20041813       0.07546892       0.85188819       0.56758234      -1.74260587
H        8.51655061       0.54122036       8.33880224      -0.40957535       0.34611632       0.22391788       0.11990580       0.01219893      -0.03038269
H       12.68892625      11.91993501       7.78491392       0.91525766      -0.37493922      -0.44305609      -0.02262326      -0.01180064      -0.09033973
H        2.98967482       6.19663994       9.38977160       0.21689578      -0.04562472      -0.48368324       0.01894763      -0.10135396       0.11269435
H       18.03873908       6.35977667       6.85913487      -0.05325178      -0.82613765      -0.14487311       0.00888322       0.00926262      -0.18540413
H        6.30834838      -0.32169977       6.08131889       0.35999895      -0.66490667      -0.02112174       0.05883860       0.13294115      -0.01864159
H       14.03737857      12.85649354       5.93742809      -0.13467506       0.20163358      -0.18616451       0.07097419      -0.02028022       0.07174861
H        4.56659784       5.52904815       3.18949204      -0.09727775      -0.05655617      -0.07329082      -0.14468602       0.16195993       0.09450356
H       16.49890439       7.26431268       8.17872497      -0.21295377      -0.83078206      -0.13635710      -0.05912580      -0.08361241      -0.00300229
H        6.09929407       1.11515261      10.08357913       0.62929018      -0.26934221      -0.25098108       0.12538209       0.21597021      -0.13493377
H       14.91433473      11.33372754       5.67250375       0.25187439      -0.30832080      -0.08703492       0.08766083      -0.13055840      -0.05703894
H        5.37085835       7.13968131       3.24621677      -0.11976177      -0.43560838      -0.14031528      -0.02893382       0.11316167      -0.07914616
H       15.51168747       5.79327340       8.23955132      -0.78128639      -0.43545990       0.16987473       0.01338441      -0.16516008      -0.00206716
H        6.95567591       3.05842805       8.93764318      -0.23087054       0.79476585      -0.32304591       0.06837422       0.04584460       0.06635128
H       14.50225534       9.53507278       7.32159411       0.53918526      -0.67559153      -0.14118499       0.11735340       0.03943770       0.21135342
H        4.94174872       8.45269478       9.90362650       0.71273055       0.26287878      -0.63432351      -0.00539258      -0.11616092      -0.14168035
H       16.16036875       3.96228370       6.62600463       0.51700664       0.11093451      -0.03261107       0.08053542      -0.15321258       0.08535374
H        8.35766217       2.82273260       7.78877313       0.44599745       0.31083047      -0.27786961       0.01392707      -0.06566059       0.28074980
H       13.16444553       9.78566180       8.56474950       0.22652084       0.00885958      -0.21039741       0.13959267       0.02509724       0.02538789
H        3.25318221       8.29292760      10.31644828      -0.34313036      -0.41597901       0.14826446      -0.10421907      -0.14070192      -0.11348691
H       17.39027100       4.25418676       1.35148041       0.01868415       0.22175673      -0.17773268      -0.07458748      -0.06293752      -0.16337853
C        7.72106340       1.19269676       8.80914171       1.08772647      -0.56132177      -0.90898517       0.11055191      -0.14197480      -0.32175359
C       13.52352060      11.33081117       7.24490990      -0.41828152      -0.19138920       0.22268494       0.39925638      -0.30090286       0.03175937
C        3.95777226       6.72877037       9.21301383       0.58461803      -0.40319401      -0.35125391       0.23552091       0.00227506       0.33702404
C       17.18312470       5.68705198       7.08447471       0.41240959       1.43439430      -0.26026035      -0.23157424      -0.12754561       0.27849181
N        6.91026994       0.60015390       9.65153065      -1.25608624       0.87679363       0.34902892       0.18017089      -0.35275120       0.23094541
N       14.15445367      11.84640487       6.13423807      -0.80871181      -0.37992130       1.11113968      -0.59284882      -1.17785523      -1.11219947
N        4.64927869       6.46951382       3.58584781       0.02526419       1.00568991       0.80309732      -0.12906128       0.62377734       0.58478131
N       16.29004421       6.29119396       7.83840479       0.46292825       1.25114612       0.79519584      -0.30279750       0.23948331      -0.51568048
N        7.66614995       2.46978188       8.43188311      -0.77305486      -1.16313846       1.21315978       0.35482664      -0.31127953       0.63086556
N       13.76271862      10.10722955       7.74947578      -0.69809106       1.60036638      -0.16973090       0.23709882       0.15924643       0.34827505
N        4.04352804       7.89936539       9.78622721      -0.14436717       0.47629604       0.67879737       0.38151937      -0.66620816      -0.20873783
N       17.07256390       4.49772895       6.56289518      -0.40729259      -0.40319655      -0.19626955      -0.15116571       0.40782447       0.15273741
Pb       1.70145414       1.95205222       6.75652108      -0.24638705       0.32945067       0.32486493       1.77957944      -1.28507814       2.63057582
Pb      19.24284325      10.17541162       9.86203285       0.12582025       0.08942679       0.04931186       0.96023350      -1.21980202      -2.26826877
Pb       9.81023991       8.01340040       7.44045707      -0.26965226      -0.13574631       0.19118382      -0.24261239       0.49842788       3.20701517
Pb      11.73096605       4.21549373       9.09126247      -0.01495524      -0.08945501       0.21207755       1.38190679       0.25421353      -0.07375710
I        0.74959496       4.11649903       9.09703852      -0.04084403      -0.08566748       0.12823993       0.39793119      -1.15746819       1.47527165
I        0.99881742       8.27655839       7.19974054      -0.01550224      -0.20198939      -0.09098825       1.01442081      -0.71731221      -1.42565307
I       10.79752490      10.10428223       9.75762583      -0.08469897      -0.14608203      -0.09420940       1.61317788       0.47088368      -2.82601500
I       10.79134735       2.04108261       6.90723051       0.02361391       0.02768817       0.13420811       3.28879493       2.52811470      -1.28299905
I       18.45064491       0.87280104       7.62791343      -0.10963636      -0.12794978      -0.16167660      -0.72869094       1.53419846       1.48406242
I        2.87172040      11.45555702       9.14912300       0.00585946       0.17859939       0.13499862      -0.64027238       0.36453521      -1.11395512
I       12.63489549       6.43408373       6.87615182       0.05354953      -0.00151866       0.04619267       0.73166990       0.50552859       0.75243591
I        8.75675566       5.64696955       9.58657512       0.10270311       0.22174839       0.06077167      -1.02681172       0.28627607      -1.39621173
I        4.47279293       3.32852583       6.44339145       0.03457761       0.24751615      -0.00607167       1.15113338      -0.62771687      -0.42488405
I       16.43693134       9.11885057      10.27697805      -0.05554393      -0.18021805      -0.14487820       0.80089111      -0.99369725       1.35639816
I        6.86258474       9.13362466       7.74492980       0.03936653      -0.08419464      -0.10265704       0.82593623      -0.29519039       2.53587118
I       14.70214933       3.25759828       8.91603711      -0.02068749      -0.24859980       0.10640845      -0.66397613      -0.23641322      -1.00332114
H        8.86423625       0.38903868      13.41656415      -0.85297966       0.54403504       0.17066914       0.14463434       0.10450488       0.13699742
H       12.43445218      11.57345848      12.43936463       0.27520424      -0.43347968       0.47933883       0.05574241      -0.01403376      -0.06540480
H        3.20711072       6.31240462      13.84537887      -0.58614311      -0.26289300       0.31973257       0.12418845       0.05066619      -0.01809741
H       18.59012963       5.85280772      11.79140311      -0.62527573       0.13966533       0.36572458       0.07377148       0.02601151      -0.16402738
H        6.71756112      -0.17608688       1.53466718      -0.58262719       0.95164170      -0.35062308      -0.16898835       0.04339429       0.13315674
H       13.25227945       9.56871284      13.53941499       1.12474440       0.22577317      -1.09874537       0.01135388       0.00480038      -0.16281304
H        4.56523409       5.54187027      -1.37955915       0.03457846       0.13666401       0.38154369       0.22293577      -0.19020294       0.13761112
H       16.69895280       6.97599484      13.03073443       0.14149632      -0.49812493      -0.41303117       0.00745164      -0.12744604      -0.15858695
H        5.99494565       0.95214010      14.44660881       0.85593105      -0.29059205      -0.30805250       0.11755928       0.33009424      -0.08494565
H       14.73006263       9.45371438      12.57262046       1.49825330      -0.65576799      -0.54404929      -0.03891036      -0.06123358       0.07618602
H        5.35960236       7.08218308      -1.15397412       0.74460333       0.50855598      -0.02601524       0.00974411      -0.06298417       0.06999733
H       15.52834312       5.65428353      12.65873079       0.06385549      -0.17176346       0.01586772      -0.05033293       0.05936707       0.01310402
H        7.07961731       2.86077822      13.23300451       0.15919566      -0.67596276      -0.22088400      -0.01477091      -0.21047048      -0.09983170
H       15.12686295      11.50619278      11.00136191      -0.20787976       0.04452672       0.11349079      -0.10020551       0.01163718       0.00209759
H        4.82169417       8.87067184      13.71974273      -0.70660746      -0.51784387       0.12881543       0.08031741      -0.07245643      -0.11368402
H       16.37386977       3.79569414      11.16911867       0.20198392      -0.10539190      -0.05796616       0.01086988       0.02130481       0.06662204
H        8.57967987       2.48150702      12.38205330      -0.28635963      -0.27993536       0.51162987      -0.00318563       0.02140613      -0.00536289
H       13.81701800      12.77697604      10.92299373       0.10198661      -0.85817452       0.40402825      -0.09931081      -0.26446806      -0.07723619
H        3.38322498       8.44552929      14.72915799      -0.53351800       0.41593103       0.49229723       0.17899837      -0.07220628      -0.00666313
H       18.02775141       4.20454590      15.08811086      -0.16319758      -0.24654646      -0.06365424      -0.04578913       0.22910902      -0.06985479
C        7.89518397       0.97377538      13.56163935       0.46431124      -0.59029094      -0.32188730      -0.53862980      -0.14776025       0.30514895
C       13.47358266      11.14140047      12.24779949       0.45239315       0.31429268      -1.31153936      -0.16473369       0.41725957      -0.49732553
C        3.98586058       6.97460591      13.49448190       0.11061055       1.76615200       0.86932289       0.49081996       0.10322202       0.17998982
C       17.49186775       5.43338562      11.85747242       0.16040391       1.21562358       0.98384770      -0.13155312      -0.00061664       0.79328443
N        6.92278388       0.44378824      14.28046331      -1.10819184       0.69977396       0.53023575       0.35151595       0.60820757      -0.65565578
N       13.89541502       9.95605396      12.75708215      -3.48069425       0.54949965       2.36227294       0.13826290       0.60761790      -0.71952389
N        4.68677113       6.40940077      -0.79745918      -0.73804531      -0.72942722      -0.25592687      -0.17100873       0.07519192      -0.15372265
N       16.51168430       6.06702458      12.54663616       0.65303277       0.36064205      -0.53755644       0.29699165       0.45796600      -0.12183448
N        7.78638355       2.14633032      12.96909175       0.37196120       0.87553098      -0.24234395       0.12653999      -0.56435638      -0.44311841
N       14.17411811      11.84692842      11.33826659       0.20131082       0.63950049      -0.42231517      -0.00424321       0.11003561      -0.23048958
N        4.05860871       8.21391877      14.01207707       1.38797212      -1.33284896      -1.24843376      -0.65361802      -0.20281572      -0.30472132
N       17.35016746       4.28504525      11.26268049       0.08202836      -0.57873579      -0.58753369       0.08788282       0.00606572       0.00579568
Pb       1.94731014       1.99844463      11.34892863      -0.21930950       0.47067570      -0.19260052       0.58691365       1.56746045      -4.58445309
Pb      19.36432187      10.17788628      14.37999698       0.25493115       0.07171731       0.05942834      -0.50416248      -1.81260319       1.80268834
Pb       9.94644302       7.77769771      11.95760541      -0.51665080       0.18805054      -0.26323834       0.03041303      -2.67570799      -0.37527349
Pb      12.00458846       4.27863942      13.85497574      -0.34681518      -0.38892512       0.02029711      -0.19877587       0.04955685      -1.93801503
I        1.12972495       4.18266077      13.67550589       0.00728319      -0.23250320       0.13511070      -0.47792523      -1.24958996       0.05810291
I        1.04365615       7.94372130      11.71932856      -0.07531483       0.02549945      -0.03065748      -2.80821702       0.18093394      -0.27675816
I       10.61465692       9.85189111      14.24030081       0.21818812       0.17628167       0.03899042      -0.58800217      -0.95079510       1.45666016
I       10.99418325       2.09188482      11.48463041       0.05173444       0.31123448      -0.04565323      -0.01185942      -0.96896726       1.42559341
I       18.41924300       0.57681121      12.16352224       0.13470215       0.31802491      -0.08227895       0.47902557      -2.63454071      -0.74115366
I        3.10546274      11.67013617      13.76094133       0.09845612       0.08522059      -0.12933711       0.74136869      -1.22241928      -2.21269628
I       12.73802005       6.28875690      11.68189166       0.15505087       0.25028141      -0.39035998      -0.86628332      -3.17912416       1.29286368
I        8.87856230       5.73374094      14.12156950      -0.05277358      -0.14023137       0.07943589      -0.96487803      -0.68776841      -0.35196434
I        4.76162828       3.34147720      10.81483863       0.00510540      -0.14791526       0.12679179      -1.25568528       1.50864676       1.07268145
I       16.58508616       8.86937269      14.79625851      -0.00506420       0.08128738       0.03410600      -1.51648911      -0.81178639       0.42092828
I        6.98756006       9.23786588      12.21070065       0.14704561      -0.00016914      -0.25591031      -1.40615554      -0.32492612      -0.84282834
I       14.83625518       3.18078281      13.49472864      -0.04612749      -0.23270862       0.02474885       1.40554995      -0.03038806      -1.35956487
H        8.26400064       0.55333845      -0.01260408       0.28417743      -0.24439786       0.15510392       0.10640084      -0.05888007      -0.11595383
H       12.79889358      11.52016426      17.21537654       0.76268624      -0.26709210      -0.17261770      -0.22865971      -0.06063142       0.18133448
H        2.79291277       6.15234296       0.12733382       0.98036581       0.26072337      -0.24098804      -0.03335615      -0.15200933       0.02181061
H       18.33488216       6.16233576      16.32532047       0.42386188      -0.01955526      -0.34360520      -0.09750644       0.03255493      -0.15908976
H        6.99025372      -0.45926283      14.76594841       0.42232765      -0.30791267      -0.09043138       0.03401173       0.22090377      -0.00103351
H       14.53988237      12.65718493      15.78957916      -0.47300341       0.05180303       0.12476431      -0.02418858       0.18423634      -0.30246024
H        4.65176970       5.51799074      12.30425526       0.06678598      -0.48240239      -0.39469863       0.04151104      -0.04694168      -0.05961088
H       16.74252505       6.86971377      17.90244271       0.23673491      -0.10180989      -0.27276963       0.12786112       0.20980500       0.00899407
H        5.67040987       1.30599723       1.29864442       0.12479873      -0.17265941      -0.23857144       0.20547490       0.10945172       0.11688257
H       15.38437779      11.16067007      15.69076063       0.55448978      -0.31114888      -0.24989831      -0.07269879      -0.22276599       0.04124508
H        5.52830890       7.07763600      12.14097844      -0.12626068      -0.13164029       0.15574759      -0.07499143       0.01975320       0.06116314
H       15.82910127       5.37108914      17.61680530       0.02881445       0.42600899      -0.16681060       0.01989609      -0.01495530      -0.01176805
H        6.43587329       2.90642301      -0.47807819       0.21806805      -0.09767546      -0.01362109       0.02876877       0.07544687      -0.00152011
H       14.78230193       9.21950126      16.99638411       0.11309734      -0.07107913      -0.09564491       0.20166577       0.06232191      -0.19412786
H        4.28975313       8.75208213       0.52121918       0.27323267      -0.16307717      -0.29904444       0.07482651       0.01601866      -0.04297545
H       16.36232729       3.91774140      15.68934903      -0.24526554      -0.42700734       0.01524886       0.03314111      -0.03776679      -0.20409619
H        8.07422408       2.50590620      -1.12916272      -0.35557603       0.15047247       0.11259049       0.09334494      -0.04535622      -0.23428508
H       13.13974797       9.27846273      17.72018808       0.04272279       0.00349052       0.32300385       0.01265883      -0.01356239      -0.08393366
H        2.70390882       8.20133601       1.06207385       0.06621150      -0.05563410       0.15019793       0.23243961       0.11423823      -0.01996169
H       18.20137632       3.97175818      10.75154819      -0.41087331      -0.23077130       0.04209135      -0.01134791       0.10034722       0.42383717
C        7.37709704       1.15661912       0.17469229      -0.34807434       0.52716914      -0.86785528      -0.00170479      -0.70109936       0.08056945
C       13.76657512      11.02844872      16.88829753      -0.53783958       0.37148204      -0.56433785       0.65433862       0.00702294       0.64065915
C        3.70122242       6.81028330      -0.02309916      -1.21718740      -0.38165962      -0.14257453      -0.55984043       0.52185182       1.60103577
C       17.42765898       5.55220019      16.42189651       0.06708972       1.22166266       0.29744032       0.07751954       0.40889633      -0.26248076
N        6.42941839       0.69938129       0.94086414       0.22795933      -1.61201375       1.47198874      -0.46308242      -0.30702989       0.87031194
N       14.58027312      11.66288403      16.04403515      -0.21214310       0.15537632       0.54066121      -0.16144152       0.08910106       0.08429279
N        4.77813268       6.49320633      12.57660238       0.65724396       0.29415696      -0.21290418       1.07972444      -0.12712223      -0.29265836
N       16.57999593       6.01620133      17.30203279      -1.03877563      -0.97299945       0.82903445      -0.26528735      -0.71534307      -0.01028898
N        7.26418573       2.27778467      -0.52300396       0.44475668       0.27930327      -0.33741282       0.52736118      -0.85016169      -0.89428928
N       13.96779318       9.77344267      17.28653806      -0.22160644       0.34792941      -0.16329605      -0.31324529      -0.86340156       0.37415168
N        3.59298413       7.98945240       0.55530873      -0.00643023       0.40139930       0.41207501      -0.14648032      -0.30859632       0.61298280
N       17.22121439       4.48607557      15.65564231       0.78434816      -0.15118448      -0.28634760      -0.44874868       0.28171556       0.21780583
Pb       2.30535156       2.01602764      15.94556448      -0.58781584       0.27909656      -0.09167777      -2.62308831      -0.69195616      -0.00809207
Pb      19.00694170      10.44772727       0.58443519       0.30386362      -0.54675868       0.16232388       0.97209348       0.25264244       0.46038914
Pb       9.77131408       7.78354454      16.50617770      -0.00196360      -0.03782191       0.09253134      -2.72040897      -0.41107889       0.74513679
Pb      11.78758725       4.12828689      18.37689980       0.15478696      -0.17190927      -0.17824739      -1.76013835       0.01839983      -0.68072756
I        0.56510910       4.28741394       0.01348365       0.19054366      -0.19674549       0.14223293      -1.94715067       0.39033909       0.49464339
I        1.31963471       8.11413465      16.18697092      -0.21921393      -0.18656638       0.15088704       1.62331580       2.09617938       0.49166086
I       10.20717152      10.00884835       0.57321824      -0.05545897      -0.04679577      -0.04857222       0.58352685      -0.09507957       1.51939414
I       11.01591292       1.95303894      15.95400796      -0.01761418       0.19717591       0.18560252       1.43735274      -0.27700378       1.39120813
I       18.57761996       0.82520873      16.41616328       0.06252677      -0.26799931      -0.11112084       0.75316033       0.04726513       2.69956220
I        3.25132231      11.45835343      18.11320622      -0.05590929       0.17934349       0.24650002       0.05083661      -2.04246955      -0.79420547
I       12.81929551       6.37839843      16.14750789       0.06048276       0.00106168       0.06438947       0.30634446      -1.28083805       0.11438839
I        8.18698495       5.76460961       0.51409231      -0.04893365       0.05567550       0.00863472       1.73684762       0.70941611      -0.70327312
I        5.06309288       3.28551347      15.48357844       0.04649689       0.08781882      -0.06044898      -0.75661284      -0.01774748      -1.43164031
I       16.21936203       8.96291140       1.14333198      -0.01310470      -0.04149019      -0.11465853      -1.67558529       1.31442542       0.80030952