768
Lattice="38.994998665037166 0.07106821782705662 0.35547318029268 0.20366633889610405 23.235525993811105 -0.050934670340891476 0.6633844787472418 -0.16287480069770385 18.246656201326342" Properties=species:S:1:pos:R:3:forces:R:3:momenta:R:3 energy=-3640.4666796763872 stress="0.0 0.0 0.0 0.0 0.0 0.0 0.0 0.0 0.0" pbc="T T T"
H        8.27008453       0.65937706       3.90125336      -0.51738590      -0.11746959       0.16834331       0.15640396       0.26708546       0.16420252
H       13.03455161      12.28167155       2.92837336      -0.00874813      -0.04791638       0.03788068       0.17102093      -0.48390070      -0.16149914
H        3.41829451       6.30677123       5.09172123      -0.28940143      -0.33181887      -0.05794244       0.12578079      -0.00524084       0.12864029
H       17.99450074       6.46892999       2.63100031      -0.77509671      -0.33240763      -0.29307824       0.00802467       0.07086726      -0.01954087
H        7.18360766      -0.62198478      10.88129787      -0.68603446      -1.56603790       0.74763472      -0.22416399       0.01181150      -0.21972654
H       13.14736368      10.17495177       3.95130942       0.24433944       0.14818957      -0.52422753      -0.07187669       0.17459825       0.19328943
H        4.64146999       5.22985526       8.25664700       0.55331793       1.03615730      -0.15043534       0.04656783       0.04983049       0.05397746
H       16.33373753       6.73691232       4.38117894       0.38543091       1.50327181       0.21249711      -0.12356203       0.12520174       0.07530799
H        6.19251025       1.34102857       6.26868037       1.47918728      -0.78286617      -0.80808923       0.16485452      -0.18254200       0.05336589
H       14.40998266       9.55248062       2.71407088      -1.30294784       1.44992385       0.43293446      -0.03385545       0.00531395      -0.18158579
H        5.65813222       6.80457091       8.18526590      -0.19266024      -0.45457641      -0.10713009       0.05170659       0.06064000       0.15725510
H       15.67448621       5.15557585       4.21515715       0.52023324       0.15798398      -0.71887020       0.03526810       0.00762694       0.09302097
H        6.86676239       3.26334651       4.59319637      -0.62084843       0.43511588       0.20918649      -0.06782194      -0.27199019       0.06070347
H       15.21274387      11.21676111       1.18301280       1.19456693      -0.98675632      -0.57460218      -0.23301744      -0.01234117      -0.15823243
H        4.94026721       8.89575523       4.88412007      -0.78154100      -0.68767708       0.41085742       0.06646982       0.04900991       0.00975665
H       16.58768313       3.76812808       2.21436490       0.22661652       0.50334013      -0.06664187      -0.18070772       0.17483208       0.01064377
H        8.09664043       2.76082819       3.29716790      -0.69906476      -0.11843306       0.72401172      -0.27175734       0.00820320      -0.12623727
H       14.52978999      12.81530265       1.04410486      -0.23789633      -1.09085054       0.71866956       0.14536724      -0.01281773       0.18813092
H        3.57687782       8.38038347       5.98611635      -0.52275446       0.43205536       0.56849214      -0.10216173      -0.16398041       0.01946334
H       18.00754812       4.24694119       5.76024036       0.21714163      -0.23509240      -0.37371485       0.08415158       0.06259923       0.04800700
C        7.51718672       1.29772118       4.51118340       1.37512150      -1.84608968       0.59445947       0.57964463       1.06828582       0.15424216
C       13.75088489      11.51926079       2.54365760      -0.34766218       2.09086077      -0.93152465       0.08950071       0.09425524       0.57666888
C        4.19252663       6.97413038       4.71331175       0.92748815       0.39329441       0.01216718      -0.03178925       0.22720031       0.36630203
C       17.18316240       5.69281942       2.76566937       0.06881940       0.34015585       1.08750010      -1.15020766       0.52465423       0.47792516
N        6.90095323       0.76812945       5.59366645      -2.00003978      -0.17547259       1.37130579       0.01808082      -0.11736687       0.14782276
N       13.77821406      10.37400562       3.10240287       0.84323248      -3.54980064       1.02468421      -0.83260116       0.27067075       0.17154194
N        4.81352325       6.27147804       8.46468994      -0.66118739       0.35740563       1.18387875       0.13082617       1.12249370       0.77350340
N       16.30272866       5.91731480       3.77706730      -0.29882523      -1.81984444      -0.24872920      -0.25423230      -0.44729308       0.59014313
N        7.47789825       2.54070251       4.17211110       0.59155020       1.58542238      -1.73407546       0.11109469      -0.51975922       0.45215087
N       14.52344463      11.85065606       1.49997606      -0.73119488       1.82837765      -0.32695252       0.88423099      -0.88861098      -1.29294338
N        4.29416668       8.13900956       5.33016455       1.19732645       0.23405142      -1.19395947       0.60898588       1.61334972       0.92872957
N       17.24612450       4.56915470       2.07233941       0.89811252      -0.72755766      -1.30554165       0.05577333       0.00685419       0.08824849
Pb       1.70428070       1.93407106       2.43447185      -0.08860286       0.68009138      -0.18974006       1.69231543      -2.34307253      -0.80281614
Pb      19.08242194      10.04099693       5.01936015      -0.18586097       0.38666949       0.00306828       0.87575780      -1.20232318      -2.35353974
Pb       9.51048834       8.05733646       2.65011575      -0.29738270      -0.03449723      -0.35747290      -1.49411825      -0.55851416       1.18761120
Pb      11.70778292       4.31989903       4.57579478      -0.27300386      -0.03946151      -0.01742196       0.59765745       1.91121564      -4.48711045
I        0.77861280       4.24979082       4.70639862      -0.15174092       0.09297278      -0.38628463      -1.80096352       5.13927275      -0.82877157
I        0.63930426       8.01703212       2.08443954      -0.20695203       0.04417262       0.53907463      -1.26692102      -0.19994252      -1.30129871
I       10.59835061       9.73472275       4.99179889       0.20013248       0.43037841       0.19805875      -0.23128344       1.31678003      -2.59974680
I       10.36915953       2.42218346       2.36159707       0.21174843      -0.11450555      -0.20406175      -0.10110010      -0.01060975       0.86142153
I       18.09747759       0.61096129       2.66477581       0.15431861       0.09948074       0.18886984       0.70156402       0.74396165      -0.34610178
I        2.99008569      11.64751499       4.52685751      -0.00563514      -0.07649967       0.02806796      -1.18044314      -0.31821786       0.82132144
I       12.37440335       6.58751923       2.27288257       0.39078251       0.05695916       0.27641245       1.71331121      -3.45768854      -0.10133246
I        8.50629496       5.67944076       4.38476166       0.25989231       0.05591287       0.81952651       0.68324220      -4.49593543      -1.80233515
I        4.50455220       3.57589022       1.97425072      -0.27475507      -0.23447290       0.01813267       2.16593782       4.78478808      -1.10192955
I       16.00648184       9.09513648       5.42346488       0.40549527      -0.22826905      -0.05804341      -0.13692455      -0.92028588       0.14446889
I        6.70111718       9.45592258       2.97147419      -0.01187885       0.07812482      -0.18787190      -3.00835044       0.98604920       2.71277249
I       14.54425242       2.93654717       4.28934967      -0.14133404       0.08667921      -0.09596784      -0.68885792       1.75584289      -0.39581681
H        8.26559294       0.04014716       8.93073566      -0.81980696       0.32535088       0.33826602      -0.38159308      -0.09194379      -0.14397644
H       12.55203150      12.10793363       7.16454937      -0.19307718      -0.44733387      -0.24353022      -0.09062811      -0.23644606      -0.14136744
H        3.15964966       6.04553088       9.53098717      -0.32818306       0.34341621       0.73720576      -0.17122692      -0.04747219      -0.16050556
H       17.74754976       6.34349016       6.87083859       1.35757000       0.75900020      -0.38025710      -0.04735922      -0.15362179       0.35931383
H        7.02851953      -0.26278155       5.82903334       0.00449516       0.93052720      -0.49391150       0.01721649      -0.01247500      -0.12204798
H       14.14747225      12.82126690       5.65445819       0.01949216      -0.33432340       0.35087841       0.02121482       0.04334276      -0.18486109
H        4.83456384       5.60065048       3.37898664      -0.06979565      -0.17226453      -0.04938731      -0.07401673      -0.09802090       0.16794456
H       15.93848722       6.79493083       8.32609201       0.02014646      -0.36394242      -0.34504750       0.05281244       0.09647744      -0.18030396
H        6.04389997       0.75143110      10.96314744      -0.30548605       0.43265942       0.17872603      -0.15998886       0.24863256      -0.17456576
H       15.24519749      11.46949007       6.07225631       0.72030222      -0.75974504      -0.56624760       0.21650788       0.23095143       0.02576294
H        5.82412375       7.04353763       3.35721358      -0.57194622       0.25458439       0.39296789       0.02728407      -0.04151035      -0.23799089
H       15.25623371       5.15347593       8.00881848      -0.40314243      -0.14814493       0.20873953       0.19872373       0.41810145      -0.13176763
H        6.68963708       2.66774123       9.37338690       0.40928553      -1.05076236      -0.05780169      -0.12041848       0.02410852      -0.19603680
H       14.32832769       9.68858377       7.62187977      -0.49392842       0.05818282       0.21177476       0.19870380       0.07252591       0.29724449
H        4.79983227       8.56310332       9.83315918       0.28956087       0.20758116      -0.12229365       0.06585523      -0.03548089      -0.11734353
H       16.29814898       3.78155301       6.26700666       0.79117147       0.04076628      -0.23043874       0.00698107       0.17943447       0.13923902
H        7.89400712       2.24509676       8.08738296       0.11896291      -0.54649285       0.14075543       0.27956041       0.07129253       0.11803374
H       12.65411278      10.06973068       8.27156374       0.39091817      -0.19510879      -0.04274187       0.01216499       0.04399227       0.21439940
H        3.32950661       8.22686123      10.62390848      -1.28104347       0.08834819       0.77560866       0.09687238      -0.04010995       0.20374064
H       17.96749264       4.49682375       1.22189986      -1.06225861       0.39138363       1.20475666       0.41670801       0.03122854       0.38457075
C        7.45790859       0.68393687       9.41970682       1.53797442       1.64916624      -1.38248225       0.99542160      -0.72823226      -0.10175044
C       13.40132238      11.42407082       6.98482434       0.25300308       1.17165834       0.13544921       0.44381515      -0.53727393       0.42982452
C        3.98285451       6.75839920       9.39794804       0.33320987      -0.75912689      -1.43568732      -0.13232140      -0.28794164       0.05250438
C       17.01254351       5.57453611       6.96507473      -2.74679554      -0.04002288       2.12813201      -0.13110502      -0.20573555      -0.19566460
N        6.82356030       0.26260501      10.52051607       0.33073535       0.05837879      -0.22913824      -0.42496873      -0.17269569       0.09001183
N       14.32174854      11.92441044       6.17558342      -1.02455889       0.57809535       0.57118706      -0.96082457      -0.60698509      -1.09163167
N        4.99666688       6.54279874       3.75144855      -0.11363380      -0.23214832      -0.00387659       1.05554866       0.86023271       0.23705617
N       15.97933549       5.86785873       7.83260120       2.10489339      -0.65439620      -1.85823513       0.13388292       0.18340812       0.35213678
N        7.28053945       1.87873646       8.84902838      -0.54716768       0.78149466       0.14743466       0.02398176      -0.96765914      -0.05018189
N       13.48223445      10.30228867       7.68923777       0.16738399       0.08296486      -0.40093436       0.31472655      -0.79451513      -1.33893528
N        4.00807351       7.94032539       9.96450022       1.42930554      -0.60043667      -0.91504572       0.59160672      -0.20254969      -0.78998623
N       17.14097343       4.42547256       6.29297484      -1.24073608       0.63828279       0.95558660      -0.17874304       0.89675103      -0.17421767
Pb       1.60550140       2.15457468       6.67475603       0.16998243       0.03793237       0.47313334      -0.77274643      -0.66992470      -1.50721972
Pb      18.88015457      10.02643188       9.34335845       0.51392645       0.21839452      -0.07978831      -2.80309275      -0.44425578      -1.82863101
Pb       9.58344475       7.64003134       7.23284980      -0.29680247       0.05781751      -0.16039064      -1.70165024       1.92356196      -0.98838375
Pb      11.42273347       4.12228871       9.10412149       0.05247061       0.14500963       0.09095166      -2.75275796      -1.23705998      -1.39632746
I        1.06022409       4.31913620       9.07515666      -0.22263517      -0.41085723       0.14475385       1.36860475      -1.15293328       2.08708743
I        1.13825384       8.00969718       7.18361819      -0.12876415      -0.08467726      -0.29299446      -3.82264311       2.12125531       1.79331292
I       10.42202152       9.68467067       9.62502895       0.22223560       0.12218907      -0.38623636       3.76927303      -0.00939130      -0.63312361
I       10.48823639       2.27762570       6.84495019      -0.12520373      -0.04649709      -0.07451256      -0.66165057       1.17374666      -0.69590261
I       18.53631532       0.95256835       7.51768258      -0.24557514      -0.16701399      -0.19676550       1.24272654      -0.75074502      -1.69274278
I        3.01013329      11.55974705       9.08770378      -0.04957623      -0.06482314       0.29754935      -1.72931514      -1.07462574       1.30286587
I       12.70482447       6.22423475       6.89371506      -0.10068832       0.20582270       0.16263415      -0.55945490       0.12304412       0.47309450
I        8.42649391       5.74798963       9.53796745       0.14155489      -0.24742720       0.05462021      -1.01251678       0.52768364       0.66614700
I        4.52403503       3.37055969       6.70316265       0.03139401      -0.23774501      -0.33181228       0.68139305       1.62139614       2.69075507
I       16.01527236       9.08752822       9.49678497      -0.11726227      -0.34781648       0.10495100       0.85453978       1.55733331       2.47831288
I        6.92267623       9.19743852       7.88462395       0.10304257       0.00984441      -0.26277629       4.24428454       1.02593556      -1.48699581
I       14.27187385       2.81649881       8.61828664       0.01643035      -0.00505051       0.20152734       1.35649220       0.33775091      -1.62338825
H        8.40445574       0.23156165      13.31989281      -0.22642214      -0.28464974       0.17379577       0.02983667      -0.22040176      -0.02814298
H       12.90729730      12.29630737      12.09635630       0.67447608      -0.11129497       0.53129555      -0.04050124       0.11036531       0.03965887
H        2.88149800       5.91001243      13.38015964       0.85103402      -0.00674658       0.32542880       0.00856271       0.15326125       0.15914600
H       18.28523241       5.89738816      11.12192085      -0.29342293      -0.37276009      -0.32528820      -0.21741124       0.06897080       0.09639925
H        5.80888282      -0.35431049       0.77185670      -0.31473413      -0.30410886       0.40478358       0.22520800      -0.07346472      -0.00875403
H       12.92308347      10.09318313      12.93976106      -0.15423234      -0.08873049       0.04102008      -0.05496858       0.07823129      -0.41840353
H        5.03207620       5.60140844      -1.30044660      -0.12181380      -0.13943101      -0.00451903       0.15555563       0.14831378      -0.20987542
H       16.28774694       6.93735115      12.02777348       0.37850220      -0.42778514      -0.32156121      -0.14795312       0.05502062      -0.18853040
H        5.77100616       0.58678118      14.82008782      -0.22538240       0.53414565      -0.28247128       0.29608933      -0.14298230       0.05634343
H       14.35027994       9.65086540      11.92739396      -0.41965540       0.01002989       0.15267922      -0.13346386      -0.15665033       0.26820515
H        5.67876323       7.31348986      -0.72531973      -0.43573071      -0.83373579      -0.65279377       0.06238393      -0.04334866       0.08499138
H       15.19989604       5.57629596      11.76488404       0.56932169       0.08667227      -0.19432556       0.01019329       0.03634749       0.25601587
H        6.95970404       2.90916794      14.01941893       0.31796924      -1.00944690      -0.11279882       0.11717589       0.11410187      -0.05518003
H       15.09925904      11.32517522      10.21622156       0.51233922      -0.37809048       0.13236592      -0.04601310      -0.04851425       0.08112602
H        4.79587869       8.25425294      14.21160468      -0.75271526      -0.81577459       0.17067790      -0.01727155      -0.10290759       0.00357334
H       16.48849761       3.44079452      10.36099073       0.43567243       0.72243041      -0.00002258      -0.03650035      -0.24018995       0.13390107
H        8.31615739       2.50382328      12.94022581      -0.00449513       0.01327334       0.23258307      -0.24751862       0.22355840       0.04264426
H       14.43941382      12.98548399      10.48796415       0.07448951      -1.03994623       0.42843331       0.10700796      -0.22869538      -0.20397778
H        2.99636095       7.97159389      14.54085620      -0.40364274       0.00015622       0.38662043       0.40943941       0.09096139      -0.15377503
H       18.13369166       3.81339064      14.74662058       0.74961923      -0.73263976      -0.87914244      -0.09620940       0.32009531      -0.13804685
C        7.54385872       0.79253489      13.73357765      -0.61332233       0.20357505      -0.41329924      -0.32913580      -0.25404983      -0.07758273
C       13.72567869      11.59281085      11.83320634      -1.14405500       0.29838581      -1.95090932      -0.39809246       0.04131241       0.01271843
C        3.95575483       6.44827563      13.52668925      -0.44537406       2.29712588      -0.14390690      -0.15775022       0.19494077       0.00276503
C       17.25910414       5.33822061      11.06399754       0.62919325      -0.50449697      -0.09327616      -0.09962114       0.84297824      -0.04390874
N        6.52567184       0.10502186      14.30844499       0.57341817      -0.94778332       0.86351751      -0.83603715       1.14785228       0.59892175
N       13.61864557      10.32256899      12.20842107       1.28168318      -0.13803916       0.14156135      -0.17384975      -0.82853394      -0.42213800
N        4.86690822       6.52419829      -0.81162000       0.06539719       1.24314254       1.41014175       0.01243948      -0.60645834      -0.08095529
N       16.20055876       5.98379770      11.63274158      -0.96968015      -0.43990643       0.14927208      -0.62925658      -0.36447437       1.02875561
N        7.54549009       2.11760419      13.50620851       0.16361202       1.70737198      -0.45901038      -0.22142036      -0.46608066      -0.64428309
N       14.49794831      11.97828656      10.80011250      -0.77261291       1.25579234       0.40385123      -0.21738852      -0.68340367      -0.02603986
N        3.89744079       7.64010057      14.13018192       1.65968597      -0.24735547      -0.82897645      -0.48451876       0.01121767      -0.21894228
N       17.33554569       4.10950437      10.50471546      -0.55559240       1.49989742       0.71950101       0.27949117       0.40474744      -1.28431246
Pb       1.87399122       2.03954248      11.37713373       0.03649064       0.03059807      -0.17098231       5.44780006       1.01384177      -0.98071619
Pb      19.17159647      10.20455659      13.72080479       0.36903750      -0.22925874       0.00079475      -3.19123067      -0.17750399      -4.02900652
Pb       9.52934218       7.80336094      11.91719006      -0.08223463      -0.23772863       0.33058084      -3.15347503      -2.48137359       2.79906999
Pb      12.00093587       3.96196372      13.44053677      -0.62393659       0.29158695       0.40424735      -0.24549956       0.86221989      -3.38795105
I        1.16421064       3.93326921      13.93714165      -0.20688675       0.17205904      -0.16371123       0.70327136       3.72376715      -0.58855695
I        0.94809869       7.66241313      11.58155488      -0.12838013       0.21074780       0.09567164      -3.05686059      -2.73614912       0.60458229
I       10.79338748      10.11309912      14.01559272      -0.20025196      -0.00622140      -0.30377688      -0.52365530      -0.89621842       0.77545839
I       10.44627854       1.99178865      11.39124392       0.19065604      -0.01591527      -0.15275365       0.21121291      -0.37240362      -1.69958725
I       18.65872048       0.91777937      11.84360176      -0.29184481      -0.01279178       0.17689178       2.61176052       0.44591886       2.31104063
I        2.98712858      11.21728170      13.67010813      -0.01704662       0.12013787       0.03859819       1.00084703      -1.54988448      -1.92468372
I       12.49136170       6.39815814      11.39587677       0.24527737       0.04814847      -0.20847385       1.44259669       0.32595074       1.06731477
I        8.64890555       5.49322601      14.20656929       0.34558203       0.12728748      -0.27542740      -2.10530118       2.48834023       0.65201129
I        4.70435657       3.21185784      10.83113596       0.20688871      -0.01284385       0.19010409      -0.46952100      -2.97692937      -0.87068662
I       16.54357329       8.76479603      14.07185447      -0.24724124      -0.16816581      -0.11652462      -1.08514907      -2.96902709       1.67340387
I        6.72734402       8.99387142      12.07584083      -0.00275371       0.32937561       0.01166242      -1.07948886       0.51126606      -1.72755007
I       14.93346247       3.20640667      13.48198185      -0.17671480      -0.41241210      -0.17093021       1.01098611      -0.81908541       0.05880264
H        7.59100897       0.06277734      -0.55387793       0.08669648       0.26435676       0.02627628      -0.01571196       0.22095697      -0.12619406
H       13.31729624      11.90890463      16.25843777       0.04106792      -0.81352731      -0.14523155       0.07648076      -0.06773424       0.03532581
H        3.02828798       6.06199880       0.11960930      -0.87174368      -0.95286127       0.38420524       0.10880609      -0.14420568      -0.17562249
H       18.45854454       5.99404885      15.39880971       0.25279588       0.24716127      -0.08075075       0.01789068       0.00122742      -0.10714948
H        6.65645313      -0.89394679      14.53984915       0.02223138      -0.14784696       0.04191545       0.03532510      -0.11931509      -0.04595351
H       14.73999608      12.87185699      14.62782184       0.26624499      -1.20295775       0.56049748       0.15778650      -0.16479467       0.10133699
H        4.88659645       5.00897536      12.58506673       0.48407814       0.29312246      -0.45863187       0.09423269       0.07877357      -0.11207803
H       17.06983931       7.03214992      16.94614006      -0.19536104      -0.37090975       0.17749162      -0.09974859      -0.00299115       0.25063147
H        5.26439613       1.39062622       0.90532047      -0.63653431       0.52020249       0.35367639       0.14885253       0.15297066       0.00311581
H       15.66601953      11.34055763      14.65874532       1.54718514      -0.46279522      -0.89614931      -0.08966375      -0.09569524       0.02807544
H        5.95073381       6.41848480      12.65903940       0.30314793       0.71270253       0.40975302       0.16781741       0.22099316      -0.02581558
H       16.13481497       5.52176268      17.23456826      -0.99708607      -0.53302674       0.26446627      -0.07309823      -0.20603716      -0.25388119
H        6.90853665       3.23525207      -0.01993433      -0.50777872       0.06838095       0.08143878      -0.06145054       0.13784658       0.12642632
H       15.17432876       9.43213275      16.00651621      -0.76096547       1.00817171      -0.21142609      -0.17748282       0.18871051       0.07957740
H        4.34051806       8.70096171       0.26120063       0.18985313       0.58364488       0.25794160      -0.01291091      -0.29344843       0.10380198
H       16.56454208       3.69754543      15.68022172       0.28494701      -0.57996938      -0.37229297      -0.17768864       0.01908064      -0.06235731
H        8.16022424       2.54014256      -1.09348645       0.26553389      -0.32224536       0.27453874      -0.17262614      -0.11573826       0.08319257
H       13.73262021       9.63393986      16.97669204      -0.50851893       0.02628477       0.15473602       0.16011929       0.05481146      -0.10431515
H        2.85429935       8.22528202       1.13155535      -0.14661798       0.08782651       0.04943161      -0.11474669       0.00544771      -0.02731551
H       18.22183048       3.94909043       9.98155263       0.11157613      -0.35260916       0.07705652      -0.04672243      -0.00294197      -0.05407556
C        7.00127042       0.99403370      -0.16287782      -0.74127803       0.43571574      -0.44209354      -0.52118256       0.02778017       0.23157726
C       14.12954009      11.26286776      15.83446310       0.02068791       1.73801302       0.22527173       0.14649548       0.17677577       0.97871394
C        3.81106628       6.77228975       0.00297047       1.10437579       1.38407068      -1.21349284      -0.38351399       0.15903775      -0.55293160
C       17.60402032       5.43278652      15.79409358       0.07314630      -0.73668109      -0.48916314       0.12242970       0.33634224      -0.82990108
N        5.87105803       0.64877114       0.50994565       1.59095119      -0.45327784      -0.75623070      -0.35549547      -0.23934250      -1.07077926
N       14.96407015      11.91332617      15.03871395      -1.35235171       1.34538829      -0.21178746      -0.97874852      -1.03853032       0.04629501
N        5.03978469       5.99354269      12.88223323      -1.14867255      -2.10759091       0.24972007       0.16973198      -0.92358006      -1.08885881
N       16.83639189       6.03952847      16.68789142       1.10798000       0.97156275      -0.33966637       0.49227225      -0.97380600       0.02610249
N        7.37560076       2.33420102      -0.45370037       0.39921631      -0.12363923      -0.06475990       0.53089094       0.32707559      -0.49038700
N       14.32358469      10.02306161      16.21608268       0.59074570      -1.66755708       0.74800120      -0.12440980      -0.14233356       0.75277487
N        3.64884644       8.00722623       0.52676994       0.40210927      -1.46274434      -0.43069345       0.42338145      -0.05941991       0.14742185
N       17.42479500       4.18791519      15.33258012      -1.12934616       1.68195051       1.74161759       0.31668570      -0.26891958       1.08417918
Pb       2.33097935       1.86559667      15.94596855      -0.56811420       0.14302399       0.27164149      -1.38481658       4.36137220      -2.03396598
Pb      19.07862109      10.18051485       0.31255551      -0.11221816       0.10666653       0.04182848       0.20833352       0.37020183      -1.69923098
Pb       9.95041405       7.94062365      16.10257976      -0.40147499      -0.12690531       0.20302267      -0.09476500       0.44624172       3.30922818
Pb      12.16946225       4.44829972      18.47496487      -0.42352059      -0.25561970      -0.50920651      -2.21765338       0.95259791      -2.09517573
I        0.53208330       4.03976449       0.15830144       0.20913102      -0.19456235      -0.03395278      -0.67974589       1.88242235      -1.54549164
I        1.12575925       7.92586991      15.85670461      -0.49538585      -0.02351675       0.50406324       0.55246128       2.33136197      -0.67948424
I       10.65698867       9.79752521       0.21718608       0.05546816       0.40243033      -0.22432132       0.11324884       0.49547478      -1.12822958
I       11.12823396       2.30454370      16.01716693       0.03572246      -0.16761966       0.16861281       0.25266609      -2.85074276      -1.37313912
I       18.68203569       0.64910885      16.47196572      -0.10981871       0.16801357      -0.10342671      -2.02535796      -2.92060499       0.34659515
I        3.26888164      11.17961597      18.01808101      -0.17303628       0.13777220       0.18176301      -1.34108995      -0.40163738      -2.22593102
I       12.58139435       6.24916689      15.75378558       0.46630050       0.17532248       0.08627921       0.83256994       1.42347680       2.27900740
I        8.23481296       6.22571252       0.23405394       0.27015575      -0.48964218       0.03377864      -1.21722271       0.02015242      -1.46663109
I        5.00435820       3.24880671      15.65761832       0.28622444      -0.01541441      -0.00581443      -0.24312333       0.89924584      -0.59909699
I       16.30509360       8.76506368       0.87638321      -0.14540394       0.13089867      -0.13960652      -2.66667077       1.76566555      -0.00200296