768
Lattice="38.994998665037166 0.07106821782705662 0.35547318029268 0.20366633889610405 23.235525993811105 -0.050934670340891476 0.6633844787472418 -0.16287480069770385 18.246656201326342" Properties=species:S:1:pos:R:3:forces:R:3:momenta:R:3 pbc="T T T"
H        7.72270373       1.34875850       3.86521927      -0.87168664       0.58342671       0.71963391       0.02793587       0.12484398      -0.22241035
H       11.88137563      12.83473643       2.96878426       0.08979867      -0.30885172      -0.02895428      -0.09428430      -0.09654991      -0.05438465
H        2.17319222       6.82999167       5.00976919       0.05778568       0.43820723       0.33306174       0.02732855       0.08044699      -0.08507307
H       17.05100809       7.21392495       2.37800543      -0.07924453      -0.34462769      -0.62344344       0.00401011      -0.09554152      -0.01934976
H        6.02356846       0.28080826      10.22879213       0.09762658      -0.04407167       0.05293010      -0.05583108       0.17667939       0.10857065
H       12.14120848      10.70788153       4.00599335      -0.57082171      -0.28679715       0.22962212      -0.00794259      -0.03273619       0.06702905
H        4.33471111       6.13553642       7.74615718      -0.24682985      -0.87878279      -0.17439787      -0.04184331      -0.09889995      -0.03845813
H       14.97358637       8.01106899       3.20652095       0.30618060      -0.11927077      -0.14180635       0.05536829      -0.07124601       0.08301537
H        5.36896833       1.84460520       5.70739504       0.14976424      -0.65377431       0.19315531      -0.08097109       0.06499498       0.14461793
H       13.73988545      10.47169964       3.22060470      -0.80664343       0.17579577       0.36667253       0.04549822      -0.00056107       0.28119197
H        4.90594200       7.85517137       7.65914823      -0.46683114      -0.59883031       0.35143703      -0.03104548      -0.05210835       0.07960357
H       14.23747370       6.46881560       3.13930477      -0.46086816      -0.60847347       0.06185915       0.07540943       0.14873951      -0.06771119
H        5.81651480       3.66548281       4.12548982       0.23139785      -0.00830892       0.03751442       0.05593466      -0.07915841      -0.16609894
H       14.50677429      12.29008777       1.52306018      -0.78138436       0.01716072       0.62994594       0.00071586       0.14053017       0.02802191
H        3.81311650       9.40008350       5.17304072      -0.26085807      -0.23346274       0.08162011      -0.07017344       0.23764902       0.18770884
H       15.94969053       4.35041961       2.40558687      -0.23928082      -0.14751231      -0.21055143       0.17465823      -0.07444675       0.04236927
H        7.31966291       3.50401151       3.21150196       0.15862388      -0.09377310      -0.14031498      -0.06280832       0.16186535       0.10853370
H       13.51955482      13.74076779       1.68680462      -0.11513844      -0.35069119      -0.10605775       0.11287189       0.13243561      -0.05576567
H        2.29310047       8.97804517       6.05095670       0.92919733      -0.24537884      -0.60636524       0.19467740      -0.20078046       0.24694939
H       17.15700648       5.01788600       5.41495158       0.57026551      -0.06780338      -0.19547115      -0.22011216      -0.06040709      -0.21177106
C        6.84687958       1.91072890       4.36642353       2.46005733      -1.36102814      -1.47690174       0.31774453       0.43296159      -1.01849315
C       12.74204006      12.18345595       2.73853879       0.39078394       0.42168492       0.10639968       0.60705240      -0.14165352       0.31224951
C        2.98751913       7.54000618       4.78403198      -0.41945394       0.03778463       0.03246143      -0.46581155      -1.04732909       0.11449265
C       16.21579466       6.45831293       2.41186819       1.36191431       1.13505993       0.56887792       0.55754450       0.69161430      -0.17208772
N        6.14100280       1.28983612       5.27609667      -0.88507107       0.18968292       0.88362444      -0.01497445      -0.30499260      -0.37506086
N       12.83430779      11.00804193       3.33553126       1.64381459       0.19849053      -1.23173419      -0.04072443       0.18041951       0.72958939
N        4.32457412       7.05337087       8.16495451       0.68490661       2.05195374      -0.12882948      -0.85129552       0.16323855      -0.07256945
N       15.04346229       7.01452589       2.89034664      -0.78910668       0.29869751       0.57357553      -0.11576346      -0.25791508       0.25389185
N        6.64579659       3.10367468       3.87131475      -0.86850890       0.94984528       0.05719600      -0.09327948       0.37638539       0.41654319
N       13.62498740      12.72351366       1.91023894       0.16411988      -0.18121179      -0.06215491       0.48832462      -0.07266938      -0.31329059
N        3.08353494       8.71013496       5.41055261      -0.91530400      -0.25369480       0.37712235       0.21016795       0.49634033      -0.61333309
N       16.57128978       5.13578634       2.14356146       0.58764151      -0.78138881      -0.72104544      -0.57673424       0.28961021      -0.25533994
Pb       1.14680140       2.81460553       2.15062371       0.25755445       0.02451250      -0.07224335       1.09585739       3.69442255       0.58292820
Pb      18.68707070      10.61604292       4.96907545      -0.07232957       0.52999096       0.29076429       2.79038516      -2.09747948      -2.07445863
Pb       8.60859870       8.68983887       2.64325585      -0.28812433      -0.07246580      -0.22324572      -1.03627665      -2.82913790       0.87557088
Pb      10.82544629       5.11096691       4.47356174       0.00756627      -0.05288887       0.20870815       2.17334092      -2.79364405       0.30418054
I       39.05359565       4.81656585       4.78508178       0.17086878       0.17242152       0.15576670      -1.41661217      -0.45019456      -0.86020290
I       39.10469527       8.73982743       2.85843171      -0.16468358      -0.12845606       0.02431957      -0.04218928      -0.60434055       2.73969458
I        9.62170758      10.60022858       4.90028320       0.26884116       0.41849639      -0.12113932      -1.35289076       0.77522525       0.89225679
I        9.84076880       3.05937553       2.35417903      -0.10846824      -0.04072571      -0.16081164       1.48094576       0.85843452      -2.19954313
I       17.73078529       1.44089479       2.78114532      -0.11803627      -0.06847842       0.14670414       0.62543661      -0.80877270      -0.86134235
I        2.32659455      12.25104070       4.32009692      -0.27145879      -0.03298716       0.15965242      -1.83426781      -1.00248024      -1.53116650
I       11.56987254       7.25743019       2.19406042       0.22637945       0.17858718       0.03996008       0.26234805      -0.03151306      -0.13147801
I        7.87754819       6.43122019       4.91645975      -0.06026794       0.13824217      -0.08602820       0.60365917      -0.36143205       0.58095318
I        4.08612897       4.23266886       1.73957362      -0.42866207       0.15679442       0.13098114      -1.97836607       1.23060437      -1.22287279
I       15.66603460       9.69099744       5.17762620       0.21784557       0.04216739      -0.09062330       1.30873770       0.05294013       1.89864413
I        5.75514983       9.97915851       2.78176648       0.03053342      -0.05399695       0.03018191       2.29564188       0.10541223      -0.67344097
I       13.61540140       3.67471702       4.24603061       0.29755776       0.22806803       0.07077376       0.39858293       0.33955742      -2.23586342
H        7.63453101       1.06505930       8.82002647       0.43164974      -0.21414310      -0.47083575      -0.11597376       0.13052496       0.03177667
H       12.10851130      12.34963158       7.62457106       0.45047538      -0.85180261      -0.24483618       0.09843384      -0.05630219       0.10934153
H        2.76617614       6.56209759       9.44878768       0.14754647       0.48331731       0.16222149      -0.01709156      -0.01806473       0.12068790
H       17.62418920       6.76032437       7.00277313      -0.38808188       0.05880286       0.53664549       0.12715938       0.12299318      -0.00754543
H        6.43970132       0.35432123       5.65641009      -0.43137538       0.33484686      -0.13371526      -0.15723720       0.04348109      -0.00129735
H       13.71189584      13.54563953       6.29476998      -0.50473391       0.26768400       0.06631522      -0.02874162       0.03572316      -0.03054450
H        3.77913201       6.19240662       3.40753118      -0.14057113       0.48670703       0.26269491      -0.04756270      -0.05445736      -0.08487682
H       15.97355638       7.43093528       8.60239630      -0.07336760      -0.51819401      -0.37705808      -0.01349591       0.01391523      -0.06560881
H        5.29792017       1.90406299      10.41468303       0.01781671      -0.12096490      -0.19851019      -0.01041362      -0.07773854      -0.03803797
H       14.77185927      12.17559398       6.16276162      -0.14403592       0.02295294       0.21144945      -0.02451100       0.04944881       0.00395013
H        4.50446825       7.78413158       3.53393926       1.25678931       0.64920424      -0.59960446      -0.07504106      -0.01510038       0.18479386
H       14.87100748       6.05267225       8.11643726      -0.02633694      -0.09853798      -0.09124980      -0.17051332       0.10240989      -0.04351840
H        6.28621880       3.80505149       9.02597232       0.53086387      -0.74322444      -0.18522920       0.04657934       0.12741005      -0.08551414
H       14.19684814      10.15777161       7.67387690       1.20395783      -1.08646718      -0.52650994      -0.12603680       0.24855396       0.00442343
H        3.85994627       9.46740403       9.03994323       0.25283914       0.23889957       0.19515578       0.01280529      -0.09405551       0.05625259
H       15.48950512       4.71054942       5.88146796      -0.50959218      -0.63488950       0.17341600       0.01517993      -0.04838803       0.28048360
H        7.75557897       3.21576457       8.12196231      -0.52286883       0.23127884       0.12897888       0.16495146       0.00325848      -0.06435889
H       12.56854956      10.11706761       8.35037878       0.06715080       0.34994882      -0.20062123       0.00748392       0.00122557      -0.16939453
H        2.58447614       8.85858990      10.21885033      -0.00883096       0.09031607       0.00894504       0.09756363      -0.14203503      -0.09016746
H       17.55332071       4.85130683       1.74038924      -0.78505502       0.26838333       0.58406092       0.10654571      -0.18513861       0.03246627
C        6.85772097       1.75566568       9.11820352       0.07430450      -0.02852026       0.08664626      -0.16482104       0.67407354      -0.17146249
C       13.04593527      11.80128249       7.31052480      -0.19338519       3.01911520      -0.37316839       0.49787736      -0.32169347      -0.54384163
C        3.42590382       7.41651839       9.06198885      -0.02189754      -1.01778123      -0.02853396      -0.80094719      -0.11717099      -0.29184819
C       16.63032836       6.21029925       7.06628378       0.65036368       0.55857437      -1.05578207      -0.09175514      -0.43846137      -0.14602721
N        5.99147774       1.27270977       9.94816590      -0.87500673      -0.16513329       0.82347450       0.09531718       0.05248879       0.87887990
N       13.89622706      12.57884035       6.57266481       0.17203863      -1.49056033       0.33847262      -0.83105084      -0.19082176       0.88775327
N        3.80048853       7.14611547       3.83220093      -0.41025452      -0.89051781       0.07792607      -0.40458831      -0.25156878       0.08273498
N       15.72936387       6.60394907       7.93028705       0.28510742       0.64095421       0.64269636      -0.32178431       0.21948228       0.02849338
N        6.88675267       2.98748427       8.65756918       0.60959453       0.85503367      -0.42331993      -0.59587679       0.57783211      -0.74795407
N       13.28161964      10.60039259       7.76018462      -1.36102211      -0.12359343       0.79162469       0.15336312      -0.29551942      -0.19595553
N        3.32322306       8.65250972       9.53726703      -0.19860959      -0.34041352      -0.38532367      -0.37742590      -0.03707101       0.35533839
N       16.43706481       5.22966171       6.10068880      -0.61150392       0.01074523       0.41602812       0.07234755      -0.16023132       0.38908961
Pb       1.26687558       2.75095540       6.69403333      -0.09562644      -0.16629901       0.05553065       1.51602717      -0.48959884      -1.01046600
Pb      18.78932014      10.75375560       9.62393437       0.16639478       0.43863886      -0.14066550       3.87351689      -0.26806548       1.79738799
Pb       9.07187080       8.63288262       7.18857193      -0.48372587      -0.17974204       0.13232887       1.27783106       1.72908247      -2.20943756
Pb      11.05659415       5.01144702       9.05578629      -0.15120138      -0.09860754       0.00992174       0.33915718      -1.23205600      -0.39680828
I       39.25508828       4.86707871       9.40284720       0.18324782      -0.04226741      -0.02245820       0.51173433      -0.68554756       0.98142975
I       38.97446807       8.65754535       7.61447230       0.17696507      -0.04538812      -0.32500484      -0.25323555      -1.07739022       0.27345134
I        9.91286119      10.69336509       9.34937971       0.21177419       0.01809109       0.20145709      -1.37272200       1.05434189      -1.38102998
I       10.18782445       2.89096945       6.73802857      -0.25997721       0.01895055       0.16697465       0.47798240       2.11407130       2.26601156
I       17.79604976       1.36839489       7.37787892       0.04256340      -0.26154237      -0.18992824      -0.17146176      -1.02538207      -0.35657099
I        2.45722286      12.21572734       9.07522236      -0.18388128      -0.06044867      -0.26134596       0.44059223      -0.45773875      -0.27777856
I       11.93359865       7.22986414       6.92605812       0.18312398      -0.03085636      -0.17292805       0.98088120      -0.28190090       0.25440767
I        7.97212387       6.51105556       9.39269417       0.05548336      -0.13004660       0.10296154       2.52811047      -0.91342921      -0.53395368
I        4.03331046       4.09501615       6.32175739       0.11834412      -0.05123233      -0.05698076      -1.83232120      -1.00348753       2.13859819
I       15.83064046       9.81910612       9.63022388      -0.00799052      -0.12247064       0.19756642      -0.80600656       0.83446772       0.38293310
I        6.15945319       9.98526217       7.36439854      -0.02857114       0.05752379      -0.08036340       0.89756486      -0.26261634       0.07330430
I       13.90856139       3.86354533       9.08417189       0.05714560       0.04433835      -0.14192182      -1.02779391      -1.21154921      -1.62127740
H        8.05439597       1.26732110      12.98854737      -0.87168664       0.58342671       0.71963391       0.02793587       0.12484398      -0.22241035
H       12.21306787      12.75329903      12.09211236       0.08979867      -0.30885172      -0.02895428      -0.09428430      -0.09654991      -0.05438465
H        2.50488446       6.74855427      14.13309729       0.05778568       0.43820723       0.33306174       0.02732855       0.08044699      -0.08507307
H       17.38270033       7.13248755      11.50133353      -0.07924453      -0.34462769      -0.62344344       0.00401011      -0.09554152      -0.01934976
H        5.69187622       0.36224566       1.10546403       0.09762658      -0.04407167       0.05293010      -0.05583108       0.17667939       0.10857065
H       12.47290072      10.62644413      13.12932145      -0.57082171      -0.28679715       0.22962212      -0.00794259      -0.03273619       0.06702905
H        4.66640335       6.05409902      16.86948528      -0.24682985      -0.87878279      -0.17439787      -0.04184331      -0.09889995      -0.03845813
H       15.30527861       7.92963159      12.32984905       0.30618060      -0.11927077      -0.14180635       0.05536829      -0.07124601       0.08301537
H        5.70066057       1.76316780      14.83072314       0.14976424      -0.65377431       0.19315531      -0.08097109       0.06499498       0.14461793
H       14.07157769      10.39026224      12.34393280      -0.80664343       0.17579577       0.36667253       0.04549822      -0.00056107       0.28119197
H        5.23763424       7.77373397      16.78247633      -0.46683114      -0.59883031       0.35143703      -0.03104548      -0.05210835       0.07960357
H       14.56916594       6.38737820      12.26263287      -0.46086816      -0.60847347       0.06185915       0.07540943       0.14873951      -0.06771119
H        6.14820704       3.58404541      13.24881792       0.23139785      -0.00830892       0.03751442       0.05593466      -0.07915841      -0.16609894
H       14.83846653      12.20865037      10.64638828      -0.78138436       0.01716072       0.62994594       0.00071586       0.14053017       0.02802191
H        4.14480874       9.31864610      14.29636882      -0.26085807      -0.23346274       0.08162011      -0.07017344       0.23764902       0.18770884
H       16.28138277       4.26898221      11.52891497      -0.23928082      -0.14751231      -0.21055143       0.17465823      -0.07444675       0.04236927
H        7.65135515       3.42257411      12.33483006       0.15862388      -0.09377310      -0.14031498      -0.06280832       0.16186535       0.10853370
H       13.85124706      13.65933039      10.81013272      -0.11513844      -0.35069119      -0.10605775       0.11287189       0.13243561      -0.05576567
H        2.62479271       8.89660777      15.17428480       0.92919733      -0.24537884      -0.60636524       0.19467740      -0.20078046       0.24694939
H       17.48869872       4.93644860      14.53827968       0.57026551      -0.06780338      -0.19547115      -0.22011216      -0.06040709      -0.21177106
C        7.17857182       1.82929150      13.48975163       2.46005733      -1.36102814      -1.47690174       0.31774453       0.43296159      -1.01849315
C       13.07373230      12.10201855      11.86186689       0.39078394       0.42168492       0.10639968       0.60705240      -0.14165352       0.31224951
C        3.31921137       7.45856878      13.90736008      -0.41945394       0.03778463       0.03246143      -0.46581155      -1.04732909       0.11449265
C       16.54748690       6.37687553      11.53519629       1.36191431       1.13505993       0.56887792       0.55754450       0.69161430      -0.17208772
N        6.47269504       1.20839872      14.39942477      -0.88507107       0.18968292       0.88362444      -0.01497445      -0.30499260      -0.37506086
N       13.16600003      10.92660453      12.45885936       1.64381459       0.19849053      -1.23173419      -0.04072443       0.18041951       0.72958939
N        4.65626636       6.97193347      17.28828261       0.68490661       2.05195374      -0.12882948      -0.85129552       0.16323855      -0.07256945
N       15.37515453       6.93308849      12.01367474      -0.78910668       0.29869751       0.57357553      -0.11576346      -0.25791508       0.25389185
N        6.97748883       3.02223728      12.99464285      -0.86850890       0.94984528       0.05719600      -0.09327948       0.37638539       0.41654319
N       13.95667964      12.64207626      11.03356704       0.16411988      -0.18121179      -0.06215491       0.48832462      -0.07266938      -0.31329059
N        3.41522718       8.62869756      14.53388071      -0.91530400      -0.25369480       0.37712235       0.21016795       0.49634033      -0.61333309
N       16.90298202       5.05434894      11.26688956       0.58764151      -0.78138881      -0.72104544      -0.57673424       0.28961021      -0.25533994
Pb       1.47849364       2.73316813      11.27395181       0.25755445       0.02451250      -0.07224335       1.09585739       3.69442255       0.58292820
Pb      19.01876294      10.53460552      14.09240355      -0.07232957       0.52999096       0.29076429       2.79038516      -2.09747948      -2.07445863
Pb       8.94029094       8.60840147      11.76658395      -0.28812433      -0.07246580      -0.22324572      -1.03627665      -2.82913790       0.87557088
Pb      11.15713853       5.02952951      13.59688984       0.00756627      -0.05288887       0.20870815       2.17334092      -2.79364405       0.30418054
I       39.38528788       4.73512845      13.90840988       0.17086878       0.17242152       0.15576670      -1.41661217      -0.45019456      -0.86020290
I       39.43638750       8.65839003      11.98175981      -0.16468358      -0.12845606       0.02431957      -0.04218928      -0.60434055       2.73969458
I        9.95339982      10.51879118      14.02361130       0.26884116       0.41849639      -0.12113932      -1.35289076       0.77522525       0.89225679
I       10.17246104       2.97793813      11.47750713      -0.10846824      -0.04072571      -0.16081164       1.48094576       0.85843452      -2.19954313
I       18.06247753       1.35945739      11.90447342      -0.11803627      -0.06847842       0.14670414       0.62543661      -0.80877270      -0.86134235
I        2.65828679      12.16960330      13.44342502      -0.27145879      -0.03298716       0.15965242      -1.83426781      -1.00248024      -1.53116650
I       11.90156478       7.17599279      11.31738852       0.22637945       0.17858718       0.03996008       0.26234805      -0.03151306      -0.13147801
I        8.20924043       6.34978279      14.03978785      -0.06026794       0.13824217      -0.08602820       0.60365917      -0.36143205       0.58095318
I        4.41782121       4.15123146      10.86290172      -0.42866207       0.15679442       0.13098114      -1.97836607       1.23060437      -1.22287279
I       15.99772684       9.60956004      14.30095430       0.21784557       0.04216739      -0.09062330       1.30873770       0.05294013       1.89864413
I        6.08684207       9.89772111      11.90509458       0.03053342      -0.05399695       0.03018191       2.29564188       0.10541223      -0.67344097
I       13.94709364       3.59327962      13.36935871       0.29755776       0.22806803       0.07077376       0.39858293       0.33955742      -2.23586342
H        7.96622325       0.98362190      17.94335457       0.43164974      -0.21414310      -0.47083575      -0.11597376       0.13052496       0.03177667
H       12.44020354      12.26819418      16.74789916       0.45047538      -0.85180261      -0.24483618       0.09843384      -0.05630219       0.10934153
H        2.43448390       6.64353499       0.32545958       0.14754647       0.48331731       0.16222149      -0.01709156      -0.01806473       0.12068790
H       17.95588144       6.67888697      16.12610123      -0.38808188       0.05880286       0.53664549       0.12715938       0.12299318      -0.00754543
H        6.77139356       0.27288383      14.77973819      -0.43137538       0.33484686      -0.13371526      -0.15723720       0.04348109      -0.00129735
H       14.04358808      13.46420213      15.41809808      -0.50473391       0.26768400       0.06631522      -0.02874162       0.03572316      -0.03054450
H        4.11082425       6.11096922      12.53085928      -0.14057113       0.48670703       0.26269491      -0.04756270      -0.05445736      -0.08487682
H       16.30524862       7.34949788      17.72572440      -0.07336760      -0.51819401      -0.37705808      -0.01349591       0.01391523      -0.06560881
H        4.96622793       1.98550039       1.29135493       0.01781671      -0.12096490      -0.19851019      -0.01041362      -0.07773854      -0.03803797
H       15.10355151      12.09415658      15.28608972      -0.14403592       0.02295294       0.21144945      -0.02451100       0.04944881       0.00395013
H        4.83616049       7.70269418      12.65726736       1.25678931       0.64920424      -0.59960446      -0.07504106      -0.01510038       0.18479386
H       15.20269972       5.97123485      17.23976536      -0.02633694      -0.09853798      -0.09124980      -0.17051332       0.10240989      -0.04351840
H        6.61791104       3.72361409      18.14930042       0.53086387      -0.74322444      -0.18522920       0.04657934       0.12741005      -0.08551414
H       14.52854038      10.07633421      16.79720500       1.20395783      -1.08646718      -0.52650994      -0.12603680       0.24855396       0.00442343
H        4.19163851       9.38596663      18.16327133       0.25283914       0.23889957       0.19515578       0.01280529      -0.09405551       0.05625259
H       15.82119736       4.62911202      15.00479606      -0.50959218      -0.63488950       0.17341600       0.01517993      -0.04838803       0.28048360
H        8.08727121       3.13432717      17.24529041      -0.52286883       0.23127884       0.12897888       0.16495146       0.00325848      -0.06435889
H       12.90024180      10.03563021      17.47370688       0.06715080       0.34994882      -0.20062123       0.00748392       0.00122557      -0.16939453
H        2.25278390       8.94002730       1.09552223      -0.00883096       0.09031607       0.00894504       0.09756363      -0.14203503      -0.09016746
H       17.88501295       4.76986943      10.86371734      -0.78505502       0.26838333       0.58406092       0.10654571      -0.18513861       0.03246627
C        7.18941321       1.67422828      18.24153162       0.07430450      -0.02852026       0.08664626      -0.16482104       0.67407354      -0.17146249
C       13.37762751      11.71984509      16.43385290      -0.19338519       3.01911520      -0.37316839       0.49787736      -0.32169347      -0.54384163
C        3.75759606       7.33508099      18.18531695      -0.02189754      -1.01778123      -0.02853396      -0.80094719      -0.11717099      -0.29184819
C       16.96202060       6.12886185      16.18961188       0.65036368       0.55857437      -1.05578207      -0.09175514      -0.43846137      -0.14602721
N        5.65978550       1.35414717       0.82483780      -0.87500673      -0.16513329       0.82347450       0.09531718       0.05248879       0.87887990
N       14.22791930      12.49740295      15.69599291       0.17203863      -1.49056033       0.33847262      -0.83105084      -0.19082176       0.88775327
N        4.13218077       7.06467807      12.95552903      -0.41025452      -0.89051781       0.07792607      -0.40458831      -0.25156878       0.08273498
N       16.06105611       6.52251167      17.05361515       0.28510742       0.64095421       0.64269636      -0.32178431       0.21948228       0.02849338
N        7.21844491       2.90604687      17.78089728       0.60959453       0.85503367      -0.42331993      -0.59587679       0.57783211      -0.74795407
N       13.61331188      10.51895519      16.88351272      -1.36102211      -0.12359343       0.79162469       0.15336312      -0.29551942      -0.19595553
N        2.99153082       8.73394712       0.41393893      -0.19860959      -0.34041352      -0.38532367      -0.37742590      -0.03707101       0.35533839
N       16.76875705       5.14822431      15.22401690      -0.61150392       0.01074523       0.41602812       0.07234755      -0.16023132       0.38908961
Pb       1.59856782       2.66951800      15.81736143      -0.09562644      -0.16629901       0.05553065       1.51602717      -0.48959884      -1.01046600
Pb      18.45762790      10.83519300       0.50060627       0.16639478       0.43863886      -0.14066550       3.87351689      -0.26806548       1.79738799
Pb       9.40356304       8.55144522      16.31190003      -0.48372587      -0.17974204       0.13232887       1.27783106       1.72908247      -2.20943756
Pb      11.38828639       4.93000962      18.17911439      -0.15120138      -0.09860754       0.00992174       0.33915718      -1.23205600      -0.39680828
I       39.58678051       4.78564131      18.52617530       0.18324782      -0.04226741      -0.02245820       0.51173433      -0.68554756       0.98142975
I       39.30616030       8.57610795      16.73780040       0.17696507      -0.04538812      -0.32500484      -0.25323555      -1.07739022       0.27345134
I        9.58116895      10.77480249       0.22605161       0.21177419       0.01809109       0.20145709      -1.37272200       1.05434189      -1.38102998
I       10.51951669       2.80953205      15.86135667      -0.25997721       0.01895055       0.16697465       0.47798240       2.11407130       2.26601156
I       18.12774200       1.28695749      16.50120702       0.04256340      -0.26154237      -0.18992824      -0.17146176      -1.02538207      -0.35657099
I        2.78891510      12.13428994      18.19855046      -0.18388128      -0.06044867      -0.26134596       0.44059223      -0.45773875      -0.27777856
I       12.26529089       7.14842674      16.04938622       0.18312398      -0.03085636      -0.17292805       0.98088120      -0.28190090       0.25440767
I        7.64043163       6.59249296       0.26936607       0.05548336      -0.13004660       0.10296154       2.52811047      -0.91342921      -0.53395368
I        4.36500270       4.01357875      15.44508549       0.11834412      -0.05123233      -0.05698076      -1.83232120      -1.00348753       2.13859819
I       15.49894822       9.90054352       0.50689578      -0.00799052      -0.12247064       0.19756642      -0.80600656       0.83446772       0.38293310