768
Lattice="31.52003920688824 -1.0395494997101957 0.3212732111417801 -0.9162685860741572 30.3547437254124 0.028757121508259497 0.35595936046071336 -0.14720492652102254 17.2635365134837" Properties=species:S:1:pos:R:3:forces:R:3:momenta:R:3 energy=-3646.3369178214098 stress="0.0 0.0 0.0 0.0 0.0 0.0 0.0 0.0 0.0" pbc="T T T"
H        1.81632239       2.63579046       6.72844311      -0.22454535       0.16741890       0.46332249       0.07768809      -0.15448190      -0.19376840
H        4.02865721       2.14469581       5.98774314      -0.28347705       0.07400832       0.13731632       0.09458517      -0.12132758       0.00947402
H        3.59671375       2.48312760       4.32808815       0.09232887      -0.12234105      -0.16158303      -0.00061644      -0.02742836      -0.14895052
H        1.20472574       3.06634676       3.85235079       0.37582075       0.09454951      -0.93868394      -0.03447570      -0.06003529      -0.19707036
H        0.09775909       3.18604621       5.14840629      -0.20914830       0.27353942       0.50603710       0.06252374       0.03061336      -0.11715711
H        6.45629724       6.19460420       2.02875369      -0.14609104      -0.60817926      -0.15917415      -0.07473832      -0.11643547      -0.09641454
H        5.79558736       6.69880503      -0.06370143      -0.07447943       0.86798695      -0.44208466       0.06866825      -0.04641500       0.07047507
H        5.51133056       5.03735714      -0.68641842       0.17992925       0.79784533       1.13530871      -0.09800305       0.06609931       0.05985357
H        6.04737569       3.34372741       0.99517539      -0.06651989      -0.45789435      -0.26438955       0.01396864      -0.10200658       0.12229103
H        6.36729707       3.74688050       2.64835430       0.11600303       0.43613469       0.03040159       0.16246217      -0.16863291      -0.01178013
C        2.04711458       2.73151107       5.66256613       0.61218821      -0.51855262       0.77268409      -0.49065482      -0.08384470      -0.65075090
C        6.17714400       5.34000230       1.32661338      -0.01477767       1.04418992       0.09767187       0.21095995       0.44369472       0.58611984
N        3.27822673       2.38738494       5.31125184      -0.23667012       0.33580534      -0.39237455       0.10921136      -0.16048811       0.28187629
N        1.09852711       3.12738473       4.85321032      -0.34950239      -0.30096930      -0.17457797      -0.15808085      -0.45174599       0.08768792
N        5.83134110       5.70827836       0.11724304      -0.13294510      -1.36343197      -0.72732227       0.59465387      -0.04456986       0.40009702
N        6.22663117       4.08002086       1.68723933       0.12772316      -0.70367787       0.51612586      -0.12732280      -0.54865234       0.29619576
Pb       3.70385221       0.13595562       1.13415066      -0.05907179      -0.04814741      -0.10842284       1.48534634      -1.23006887      -0.98488740
Pb      31.23004210      -0.48679380       1.62469169       0.31087310      -0.31340731      -0.13928510       0.14690135       0.70848440       0.63778441
I        5.97945012       0.99804712       3.47509000      -0.07906366      -0.12209916       0.16621157       2.46087429      -0.45536025      -0.63511051
I        1.51114802       6.79035386       2.96096186       0.02817433       0.01076541      -0.01680579       0.88390907      -0.18665081      -1.29346760
I        5.76531453       1.54757616       7.89822171      -0.08682533       0.00682652      -0.41638308       0.72673041       1.14501557       1.88650004
I        1.83408772       6.25705525       7.22019860       0.07592085      -0.19347142       0.20926470      -0.32827530      -1.02026648       1.15156858
I        5.84841427       5.13199600       5.24026305      -0.19544989      -0.11023244      -0.03002264      -1.75387678       1.39113635       0.08544777
I        2.02724157       2.90710833       1.29077341      -0.02090170       0.09462929       0.00251978      -1.31554703       1.15085535      -0.65258720
H        1.61358954      11.73782952       0.42399426      -0.23296884       0.32819314      -0.10937181       0.00182923      -0.04383062      -0.16250036
H        1.08967228      12.20284043       2.62075220      -0.02355399      -0.42669606       0.28781195      -0.10440488       0.13869231       0.05440114
H        1.17989349      10.52878079       3.17885831      -0.00683509      -0.09434653       0.08685034      -0.18555915      -0.19570502      -0.15002301
H        1.75139381       8.80280798       1.17865854      -0.04469294       0.75007830       0.07423254      -0.08322215      -0.05875568      -0.11802107
H        1.99589536       9.56378088      -0.39311870      -0.12050489       0.90594178       1.54320468       0.03183419       0.28687872      -0.04406768
H        5.04060847      11.35032672       6.49360295      -0.11606045       0.97959523      -0.55648059       0.09554248      -0.19781912      -0.06218844
H        3.39476477      13.20977457       6.35937209       0.28230101      -0.23577977      -0.36254323       0.12415310       0.11308456       0.00350404
H        4.37753211      14.04969954       5.16765057       0.05499600      -0.19207197       0.04479702       0.04409004       0.21121675      -0.03539885
H        6.64389727      13.18177632       4.67550575      -0.04423240       0.18633526      -0.16220973      -0.07279575       0.04097296      -0.02936686
H       13.06901443      14.36104106       5.34849297       0.27238282      -0.81672813       0.07362917       0.00107737       0.12543506       0.18303990
C        1.51101291      10.91730758       1.14899157       0.67055879      -1.12050037      -0.67783992       0.40606448       0.32482274       0.06380561
C        5.15699824      12.27947217       5.84083382       1.21695147      -0.50249277       0.18450806       0.28679209      -0.01699349      -0.24474542
N        1.17750530      11.19400930       2.40081711      -0.15834642       0.82673370      -0.19138513      -0.53952334      -0.38715535      -0.05217238
N        1.82814749       9.72288347       0.65013137      -0.10891455      -1.20224056      -1.24962450       0.37830800       0.09178806      -0.08396389
N        4.20752406      13.17845170       5.70092123      -0.42858065       0.27062371       0.32808730      -0.13494820      -0.69424949      -0.28413488
N        6.35480385      12.37978730       5.24094057      -0.60945417      -0.29715132       0.59671860       0.61121624      -0.54088779      -0.19940994
Pb       3.68769215       7.81268212       5.20753805       0.23121041      -0.21821738      -0.25512395       1.80776908       1.25374020       1.72906871
Pb      31.15586956       6.70747596       5.78027322       0.03032329      -0.27916336      -0.08618893       5.32225044       2.60935662      -2.68758851
I        5.58300679       9.06657248       7.41194582      -0.03926731       0.04116301       0.19533357      -0.15029785       0.36844356      -0.04480958
I        1.32181776      13.85125140       7.83284838      -0.17911978       0.11630065       0.09901069      -1.04855011      -1.22880198       1.05842122
I        5.99799709       9.11672456       3.14669770      -0.20303936      -0.13779657      -0.09994089       1.47006333       0.45492822      -0.11560521
I        1.04598664      14.47019628       3.83290694      -0.15974646       0.04449657      -0.21236938      -0.53993681      -0.94078352      -0.44181807
I        4.91890164      12.41281731       1.12645580      -0.04413630       0.06868108      -0.06538118      -1.84479632      -0.42037713       0.84401693
I        1.84340100      10.23927290       5.62390775      -0.15112176       0.07950996       0.17750390      -0.23692693       1.19750208      -0.49098243
H        9.45399142       3.55678960       4.28331731       0.08525070      -0.31271790       0.17626077       0.20327104       0.08681765       0.00986641
H        9.53232046       4.30478119       6.44780108      -0.23876885       0.20193778       0.35463921       0.08481433      -0.04281668      -0.09705156
H        9.54013282       2.73185624       7.23116876      -0.16187114      -0.00106757      -0.33726596      -0.13183721      -0.10021569       0.08928475
H        9.55103241       0.78324469       5.50304799       0.04254429       0.17045617       0.12740837      -0.04410822      -0.06809858       0.02665069
H        9.43389373       1.20295919       3.80961416       0.20012212       0.34069028       0.44324334      -0.04767938       0.16989701       0.07091306
H       13.49613555       6.43232606       1.28928719       0.12356242       0.65765788       0.54060305       0.06981448      -0.24344425      -0.18245111
H       15.38048971       5.15021981       1.64222267       0.22388037      -0.04765237      -0.15144575      -0.04918824       0.11020186       0.17600880
H       14.85644755       3.87179930       0.56756223      -0.11256538      -0.41427333      -0.08230522      -0.05749462      -0.21335982      -0.22053930
H       12.55229043       4.02789632      -0.10196385      -0.49035163       0.09319381      -0.25240654      -0.03686146      -0.06459020       0.05061152
H       11.67188780       5.61965035       0.08172580      -0.10246104      -0.02941250      -0.07821634      -0.04637117       0.00310255      -0.10851618
C        9.49769157       2.80611649       5.09496537      -0.52710859       0.82534118       1.56820637       0.51360287      -0.07929163       0.53915244
C       13.55680276       5.43720980       0.87271751      -0.86797050       0.41099915       0.13132935      -0.33045520      -0.48949565      -0.14418176
N        9.38924151       3.27356647       6.34485601       0.67113695      -0.15327222      -1.33949558       0.17667348       0.61879407       0.79473231
N        9.57249345       1.54157367       4.80577836      -0.04546867      -1.17143134      -0.96308678      -0.06885250      -0.00487857       0.66359579
N       14.65730492       4.75902071       1.02180731       1.07727661       0.03929952       0.43433730      -0.47658542       0.06111457       0.76284457
N       12.49049503       5.00645238       0.26359404       0.17029400      -0.87919349      -0.36090674       0.69475250      -0.50089987      -0.11208164
Pb      11.66425174      -0.00870738       0.88069785      -0.22645019       0.11510622      -0.15002823       0.57706651      -1.75433523      -0.88310854
Pb       7.63485951      -0.20337683       1.03240669       0.29367678      -0.06736994      -0.11963734      -1.22595689      -2.16572188       1.14789355
I       13.47365164       1.31510367       3.14737528      -0.04640836       0.00585375       0.03170600       0.14243482      -0.96190876       2.23221528
I        9.72672373       6.31103636       3.35190733       0.01435914      -0.06848963      -0.17788122       0.70759476      -0.27128030      -0.05776880
I       13.70087151       1.34954447       7.46147071       0.12887603       0.05822659       0.38738018      -0.25229550      -0.49608756       0.32455739
I        9.54027081       6.45834482       7.78774776      -0.05297605       0.13134080       0.01734569       0.68983809      -0.04275831      -2.07485032
I       13.16632051       4.60306407       5.46598154       0.15802668       0.10298537      -0.04687378      -1.27052136      -2.19158992      -0.95129479
I        9.60321814       2.47852668       1.19196869      -0.01546533      -0.15580496       0.11144363      -0.63674859      -0.01185236      -1.76894114
H        9.33754072      10.34789662       2.62511314       0.21813525       0.20941163      -0.86129138      -0.07844578      -0.25115943      -0.05913078
H        7.62575427      10.50310816       0.87602526      -0.40046263       0.12567586       0.02416724       0.02134502      -0.16102597      -0.05866791
H        8.75237656      10.13465354      -0.41733477      -0.10882308      -0.06405368      -0.13643122       0.06077346      -0.11365848      -0.08250494
H       11.18283779       9.54958573       0.28390503      -0.61133700       0.17475832       0.41580551      -0.12639564       0.11098276       0.03983794
H       11.48577221       9.74472783       2.01500102      -0.04357088       0.06170433      -0.20613771       0.16391439       0.00150171       0.09363260
H       13.66000827      12.22297320       4.09724478      -0.11760607       0.54359447       0.29245227      -0.12212061      -0.25732545      -0.04556483
H       14.13243246      10.32580219       5.34829867      -0.13484829       0.70656116       0.19799611      -0.06247448      -0.03450902      -0.01177210
H       13.98623275      11.16736075       6.89946010      -0.18472140       0.16661191      -0.81811618      -0.05513725       0.03744876      -0.15182770
H       13.29745487      13.51272511       6.87595385       0.08295733      -0.20615379      -0.28624801      -0.09814491       0.16755098       0.02473418
H        7.11738859      11.70990079       5.46907266      -0.25219348       0.00952670      -0.15389647      -0.16959646       0.06012602      -0.10388487
C        9.56327483      10.20044790       1.52352884      -0.49598463      -0.83440799      -0.65070219       0.52139161       0.02230355       0.13948314
C       13.64451419      12.32902727       5.20245987       0.01577776       0.03848554       0.63526433       0.22192579       0.48623153      -0.59816368
N        8.55014685      10.22096831       0.58214874       1.13484997       0.09372762       1.00208045      -0.09526147       0.44552758       0.50622549
N       10.79902542       9.81038451       1.22448116       0.29200330       0.14232293       0.37983203       0.04708998       0.09163970      -0.07131188
N       13.89962039      11.21827613       5.86313039       0.40839196      -0.82742430       0.46883006       1.31003711       0.02102994      -1.08228269
N       13.39659223      13.47089246       5.83623578      -0.36819206       0.24998512      -0.48655047       1.12993786       1.08884723       0.50045738
Pb      11.66500702       7.50612118       5.62125608      -0.22616630       0.02075156      -0.01164689      -0.37296167       1.00506864       2.63128347
Pb       7.66139844       7.62165762       5.25879426       0.32827065       0.26263983       0.22510889      -0.08321568       1.16557478      -0.59832030
I       13.69577166       8.31340939       8.01047923       0.16370086      -0.04372995      -0.13368997       0.73136693       0.42202883       0.02894890
I        9.17779854      13.78671282       7.51253020       0.22929775       0.19876134       0.12541631      -1.01620190      -0.67341761       1.01324751
I       13.75417849       8.56432843       3.32744589       0.00533485       0.05238989       0.12734936       0.88153069      -1.53986318      -0.58668206
I        9.19360891      13.43043959       3.26113001      -0.00945312       0.01236446      -0.33024866       1.99531140      -0.86644192       1.27600585
I       13.28268026      12.51269053       1.22080978      -0.09067266      -0.25280977      -0.15181957      -0.10545911      -0.07824095       2.61842514
I        9.80977860      10.22886721       5.51795901      -0.05235278      -0.19727773       0.09563217      -0.92326596      -0.33274794       0.00207036
H        1.90526411       3.20178330      15.72756679      -0.70190046       0.45005994       1.43604296      -0.02299603       0.34603234      -0.02528796
H        3.85963841       2.19723630      14.98117847      -0.76717441       0.36874094      -0.18710019       0.04401127       0.05647346       0.13247389
H        3.30500159       2.05452955      13.32229120      -0.49377232       0.17422504       0.51226440      -0.07268550      -0.13945007       0.07109625
H        0.87498258       2.86385101      12.79060445       0.13607529      -0.08476520       1.28546268       0.05669412       0.16190555      -0.05996251
H        0.01786690       3.67964483      14.15779777       0.72921375      -0.37326731       0.54442885      -0.10070825       0.24586894      -0.06793797
H        5.63267624       5.99546951      10.86412614       0.00947104       0.23477901       0.20130900       0.09512240       0.27349553      -0.03152055
H        5.17796112       6.79697763       8.70332035       0.11715434       0.45299008      -0.22558277      -0.00498181      -0.10610573      -0.06520985
H        5.44961463       5.24070067       7.92925226       0.01640127       0.29758777       0.35751596      -0.22222978      -0.10727123      -0.01408076
H        5.75399294       3.36837224       9.35245003       0.13946002      -0.29993918      -0.46438700       0.14021204      -0.05577291      -0.08601484
H        5.96705340       3.59885340      11.06439801       0.17573396       0.15752879       0.46731072      -0.02844177       0.04797747      -0.14145561
C        1.95658275       2.95457231      14.66769838      -2.19050632       0.01056585      -0.74098685       0.39739934       0.33673752      -0.21924176
C        5.62947511       5.32959136       9.99499324       0.10767680      -0.48661596      -0.21106586       0.24333776       0.19299166      -0.42079451
N        3.07256499       2.41481290      14.31197713       3.03353066      -1.04435940      -1.37633543      -0.13068935      -0.21169539      -0.09788364
N        0.85811436       3.06879556      13.86191329       0.32760242       0.38161053      -1.64359434      -0.72014369      -0.69426903       0.02999388
N        5.40529641       5.80573467       8.80535444      -0.44402367       0.33606415      -1.01448394      -0.84721342       0.16574736       0.24333782
N        5.88742061       4.04494336      10.12661620       0.02955184      -0.77603807       1.16071460      -0.11916597       0.10432010       0.06910543
Pb       3.76801642       0.03266321       9.96823339       0.07415500      -0.12342698       0.06657633       1.04587284      -3.12555620      -2.95882592
Pb      31.34603742      -0.69598934      10.14723580       0.29779260       0.02034968       0.14158029      -0.07929192       1.14490671      -1.22531337
I        6.11617895       0.79851512      12.32303620      -0.16901082       0.01608770      -0.12478078       1.19811710      -0.30066834       0.64029111
I        1.77536410       6.66901298      11.70252816      -0.01238466      -0.06877592       0.11042208      -0.29459916      -0.71564994       0.52829106
I        6.29058991       1.40699687      16.31952202      -0.27911212       0.03485601      -0.04183395      -0.51049552       1.99068741       0.77082828
I        2.22742988       6.24952824      16.12687563      -0.26594142       0.08614567      -0.04366531      -0.07329771       1.20510011      -1.24866438
I        5.81667064       4.80942338      13.86776424       0.05561804       0.05102434      -0.09454345       1.59288369      -1.32651473       0.23838627
I        2.02335217       2.71283864      10.12732992      -0.04047181       0.19056018       0.02016371       0.40537948      -0.04598314      -0.00363354
H        1.77748874      11.18872237       8.67964353      -0.03072085       0.35500758       0.09098295      -0.07874321      -0.10147864       0.02845377
H        1.27881377      11.96574386      10.93276563       0.12277265      -0.58729085      -0.28914697       0.02904631       0.09933279      -0.13890851
H        1.42318168      10.38227816      11.53882622       0.05162599      -0.96657643       1.14302810      -0.04705686       0.04540680       0.13791301
H        1.94801065       8.46811541       9.96552418      -0.19726709       0.55503669      -0.39153505      -0.01872647       0.06545617      -0.05564301
H        2.10566493       9.02581917       8.30188127       0.08280246      -0.42520477      -0.78240138      -0.02783830      -0.03143939       0.07803539
H        5.08484411      11.54510259      15.22425944       0.01417026      -0.27798275       0.07429477      -0.06163728      -0.19795077      -0.09157882
H        3.55801645      13.17156597      14.47976109       0.34677632      -0.00625978      -0.06455707       0.16394126      -0.04819108      -0.00112122
H        4.66089398      13.77181580      13.20436876      -0.19837402       0.23956851       0.06489041       0.01185653      -0.00163702      -0.00788463
H        6.85296435      12.50616533      12.94334717       0.34104026       0.14129731      -0.25627843       0.04608757       0.12408871       0.11830055
H       13.75783330      14.29237420      13.70051520      -0.17036542      -0.10481851       0.11582654       0.11077921       0.03005544      -0.20105626
C        1.72966659      10.50877341       9.54281351      -0.43452700      -0.37878171      -0.60259342      -0.35179387       0.49905399      -0.31606657
C        5.34817675      12.18090416      14.33760606       0.03712120      -0.32742407       0.43272203       0.10089421       0.19133020      -0.78630140
N        1.40710810      10.95177317      10.73037502      -0.05664384       2.13015284       0.13067080      -0.11755329      -0.31013298       0.57976145
N        1.89327132       9.24028897       9.26242336       0.44278288      -0.57520322       0.69478414      -0.63320673      -0.10575232       0.14930761
N        4.45645070      13.09722498      13.98312855       0.36961301       0.01691705      -0.39442666      -0.07357623       0.29366745       0.04648541
N        6.53012117      11.95223099      13.76640994      -1.12306090       0.47458446       0.27342532      -0.56257372       0.42214122       0.23584133
Pb       3.94321170       7.39640713      13.92036776       0.24250539       0.51839657      -0.05172170       0.20494111      -3.13399773      -0.54765824
Pb      31.42130750       6.71835199      14.58890627       0.18231371      -0.01988730      -0.01762557       0.29679587      -1.49432780      -1.54766833
I        5.87256940       8.77502831      16.27055934      -0.08955795       0.10067812      -0.39634910      -1.61992729      -1.86163543       1.73602046
I        1.58179627      14.18294332      16.40607025      -0.11160236      -0.02945969      -0.09468696      -0.43243956       0.26523059      -1.74202903
I        6.23900596       8.71258961      11.55222929      -0.23262251      -0.13013939       0.35200326      -1.42835009       1.54026189       2.34482755
I        1.04009947      14.25055226      12.28063673       0.04641520      -0.07877252       0.07089083      -0.28759334      -1.86933371       2.22613676
I        5.25856943      12.61139307      10.14886810      -0.10360520      -0.29001542      -0.12703868      -1.22965731      -1.89612491      -0.36882208
I        2.17054451      10.25612462      14.21273687      -0.02796633      -0.27658186       0.12903845       1.04939574      -0.26171077      -0.79993242
H        9.97179030       3.50486918      13.01522695      -0.16173541       0.29246742      -0.43591901      -0.06761395       0.20807430       0.14766939
H        9.80425362       4.01196566      15.30441944       0.11439936       0.20105857      -0.36564634      -0.05223497       0.05921086       0.14769355
H        9.72144821       2.35636585      15.72558224      -0.06695339      -0.39098419       0.31396609      -0.03464836       0.07309398      -0.00671243
H        9.71351302       0.56761226      13.76551104      -0.07191231       0.08216272       0.31129193       0.00495540       0.13064090       0.27890191
H        9.75237229       1.33564750      12.16330391      -0.00773722       0.35788337       1.03146395      -0.10372985       0.03313837      -0.05058932
H       13.30206100       5.96487591      10.57973952      -0.30680119       1.05688345      -0.05069194       0.06129650      -0.04085843      -0.10422289
H       15.35045622       4.99892182      10.27564016      -0.48316273      -0.14511288      -0.44058803      -0.24470714       0.07374486      -0.04541197
H       14.74142759       3.84775353       9.15388919       0.14095431      -1.42463195      -0.91362200       0.25957504       0.07763085       0.03915546
H       12.28862487       3.81595482       8.77735390       0.35950097      -0.32936077      -0.23308551       0.00454382      -0.16127089      -0.04493435
H       11.37494602       5.14055258       9.36890329       0.82650119      -0.29567202       0.22406272      -0.09717467      -0.18364910      -0.08276299
C        9.84115273       2.68351458      13.72384810       0.15141241      -0.65959621      -1.10984551      -0.06934378       0.06885382      -0.04310236
C       13.38690443       5.17209409       9.83385870      -0.65864212      -0.15052676       1.00428880       1.02261068       1.02426091       0.40136212
N        9.78761853       3.03312021      14.96940536      -0.05639694      -0.07146470       1.16205601      -0.34188337      -0.10995515      -0.00683899
N        9.76355495       1.44297635      13.21442203       0.08445919       0.33727188      -0.88896842      -0.45124785       0.01037952      -0.28467826
N       14.56650370       4.65955981       9.67441610       2.53296912       0.46746626       1.18738961      -0.38564537      -0.35426198      -0.05128962
N       12.29657549       4.64617994       9.35639782      -2.35121064       0.62860304      -0.89985759       0.15168114      -0.32887425       0.17649340
Pb      11.64019766      -0.27613275       9.53986258       0.02647906       0.21146123      -0.21288021       2.25711300      -1.86313272      -2.51570453
Pb       7.63056999      -0.36517649       9.71004046       0.10662532       0.01501155      -0.17089237       0.41149770      -0.54163942      -4.30724612
I       13.51366366       1.12669103      11.78589835      -0.09684144       0.06680880       0.30865285       1.34885822       0.65535746       1.01311318
I        9.70751549       6.13824767      11.81808560       0.23618709       0.02349785       0.04493549       0.46164153      -0.62403833      -0.32383121
I       14.27688448       1.58399980      16.21389531      -0.15976356      -0.09874229      -0.07747523      -1.30554004      -1.83085891       1.76242688
I        9.95495015       6.31573605      16.39800090      -0.20802879       0.04298187       0.03766428       1.42261882      -0.67983751       0.69181273
I       13.50870643       4.58628591      13.75921969      -0.17401281      -0.02744871      -0.02723762      -1.70591197       1.27448722       0.80630385
I        9.53750092       2.29190211       9.77000046       0.13822995      -0.04954036       0.03254810      -0.36666593       1.34435266      -0.99147511
H        9.19237762       9.85788116      11.08109509      -0.05321257      -0.07451227       0.71830843       0.01690614      -0.04037407       0.02091745
H        7.60328269      10.45216545       9.47642092       0.30491720      -0.08368087       0.12648088       0.01039683      -0.18021538      -0.05077677
H        8.81679125      10.44839369       8.18301065       0.13358528       0.07914723      -0.30843827      -0.08748034       0.23941796      -0.11604835
H       11.33553768      10.04756768       8.83985205      -0.11822897      -0.12693845      -0.40040337       0.15723990       0.11798536       0.04188206
H       11.45760267       9.59158005      10.52740869       0.04482285      -0.01674411      -0.16294760       0.13999152       0.04970255      -0.00325918
H       13.40158554      11.99359407      12.80520382      -0.15597185       0.29144115       1.67342839       0.04647850       0.02515005       0.01001287
H       13.62480697      10.14469890      14.32552791      -0.16197889       1.23031633       0.35950534       0.11532969      -0.07076209       0.24826708
H       13.84141082      11.24284360      15.73261060      -0.00906907       0.09302659       0.04388489       0.00258780       0.06646390       0.20115037
H       13.97940531      13.74985239      15.36840877      -0.06924408      -0.11471454      -0.55981536      -0.22036294      -0.17391580      -0.07401438
H        7.13769285      11.21228981      14.15667349       0.20732961      -0.16327023      -0.02621402      -0.19376735      -0.02980695      -0.06486295
C        9.54044868      10.01201843      10.05341132      -0.40943040       0.31045674      -0.80901569      -0.54008138       0.81732615      -0.19108154
C       13.53539651      12.20751584      13.93878656       0.75638956      -0.14831426      -1.80386390       0.05267772      -0.15432449       0.33101170
N        8.61375517      10.37976254       9.18549205      -0.26618324      -0.05913737      -0.10615615      -0.17777933       0.00111776       0.29202239
N       10.83883102       9.85614585       9.75394927       0.37864758      -0.08355837       0.97179533       0.29765386       0.28182410      -0.14784383
N       13.65739901      11.14915189      14.71413212      -0.00145220      -1.59710857      -0.15394421      -0.49499279       0.57811487      -0.63173297
N       13.73724838      13.48626902      14.37348560      -0.20318913       0.68421840       0.24691013       0.12390477      -0.15873047       0.74024712
Pb      11.85796671       7.26698513      14.05645742      -0.41666512       0.10715097      -0.17970591       0.15347705       0.40887002       2.34054341
Pb       7.82989287       7.44809288      13.90631546       0.11714066       0.16548542       0.10882382       0.18543137      -2.19377986      -2.84839814
I       13.85910881       8.29977233      16.36117060      -0.00865023      -0.05970226       0.23941459      -1.40073057      -1.08674203       0.37357544
I        9.62399087      13.63384529      15.93213065      -0.01883446       0.06971041       0.14398385       1.91062557      -0.41231905      -0.70116202
I       13.87450507       8.68191527      11.99977065       0.05407476      -0.02308511       0.03425691      -1.35675441       0.86828838      -1.90717067
I        9.31035283      13.56319041      11.88415399       0.10243016      -0.06193771      -0.15520940       0.28544536       0.37963910       0.46307785