768
Lattice="38.994998665037166 0.07106821782705662 0.35547318029268 0.20366633889610405 23.235525993811105 -0.050934670340891476 0.6633844787472418 -0.16287480069770385 18.246656201326342" Properties=species:S:1:pos:R:3:forces:R:3:momenta:R:3 pbc="T T T"
H        8.48665418      22.39901242       3.17078251       0.19333938       0.10751468      -0.11891987      -0.02673278      -0.02142740      -0.03520750
H       12.95816524      10.85419750       2.55817705       0.36503485      -0.10996717      -0.28247333      -0.11689073       0.04658650       0.04499671
H        3.26233780       5.29846700       4.14168280      -0.10051239      -0.52390097       0.10331820       0.03099174       0.12291902       0.04867105
H       18.17563223       5.41432726       1.42131030      -0.66837497      -0.84432204       0.53007406      -0.10793935       0.10597716      -0.02470347
H        7.31942288      21.70070686       9.44245843       0.12952007       0.04660436       0.01914905       0.09475722       0.00217254       0.11521698
H       13.23882456       8.52322630       3.11975555      -0.18267009       0.05975270       0.06643395      -0.03301940      -0.12811202      -0.18472285
H        5.13592257       4.45526391       7.33362894       0.34057836       0.30767883       0.00951962       0.15204615      -0.11114361       0.15328496
H       16.62701329       6.14429661       3.06903892      -0.25317579      -1.27837361      -0.66665383      -0.02037878       0.01818519       0.12653034
H        6.14783225       0.14874529       5.14297527      -0.21784790       0.32461333       0.00595518       0.02097690       0.01475933      -0.00792729
H       14.80845785       8.46543138       2.24324582      -0.64524525       0.26323355       0.23899412       0.04289908       0.20635265      -0.09371451
H        6.02534982       5.98814483       7.30213384       0.20548023       0.41491866      -0.14132144      -0.20581632      -0.06035030      -0.10307235
H       15.77718413       4.54887752       3.05755627      -0.23458783      -0.11011549       0.22981097      -0.16788031       0.10825110       0.02081689
H        7.15411768       2.06305795       4.02490737       0.68733820      -0.55245003      -0.11729709       0.00162961       0.16215091       0.07283846
H       15.56071112      10.24916437       1.26386594       1.30109536      -0.25379057      -0.92879121      -0.02064785       0.03650617       0.00568529
H        4.75585848       7.82092306       3.82463270       0.01802718       0.49213250       0.23729972       0.09680713      -0.14836539      -0.03547119
H       16.68797017       2.78465070       1.70047585       0.06233922      -0.33465260       0.04732566      -0.04648474      -0.02330798       0.05690721
H        8.50596623       1.59809047       2.93003732       0.78779631       0.39825843      -0.77506823       0.03658150      -0.11449017       0.04306668
H       14.72755150      11.82661776       1.09729871       0.17108407      -0.45415490       0.26211172      -0.28667498       0.00890057      -0.12445619
H        3.28365410       7.58437732       4.83751237       0.19422301      -0.50449391      -0.34334373       0.00108534      -0.34338246       0.05800288
H       18.19963769       2.86256279       5.16692990       0.07760372       0.57587156       0.33107350       0.01201360      -0.02854957      -0.04371492
C        7.83726012      23.18363540       3.68968086       0.37319699       0.52410351      -0.00731050      -0.17225217       0.09954452       0.28755553
C       13.85840472      10.29437649       2.22748367       0.24053904       0.26537721      -0.40101111       0.21609668      -0.03871681      -0.43238261
C        4.07740654       5.92677673       3.78574272      -1.23394543       0.90711692       1.46202809       0.17956279      -0.18409805      -0.25139071
C       17.41956754       4.66104855       1.84846254       0.34336133       1.87416301       0.30154348       0.12658700      -0.47981315      -0.54415532
N        6.98213593      22.73149232       4.55226645      -0.42543819      -1.22683840       0.84001612       0.33737095      -0.42135336       0.58728553
N       13.96473869       9.00725080       2.56617820       0.55281535      -0.25125157      -0.03679289       0.17682321      -0.21915351       0.13009733
N        5.24725252       5.43781735       7.65207452      -0.70934210      -1.55730372       0.01777941      -0.36789955      -0.25213383       1.19670274
N       16.49867884       5.16665923       2.67000829       1.30314193       0.88253858      -0.37096760       0.49916293      -0.00762698      -0.75393510
N        7.77609628       1.30629804       3.53524665      -1.31821753       0.03954487       0.51791530      -0.16448758       0.34156424       0.00189677
N       14.82465074      10.87656208       1.50043881      -2.02787186       0.64033721       1.08802581      -0.36348405      -0.33353161       0.14662352
N        4.03101061       7.19149973       4.22939088       0.87786212      -0.47734620      -1.00018968       0.47357454       0.11246039       0.04315473
N       17.46515786       3.39999441       1.45644435       1.15230263      -0.96915317      -1.52963272      -0.71883763       0.15115034       0.59805125
Pb       1.94052871       1.36537455       1.55983275       0.21034177       0.00564021       0.06647102       0.75328276       1.22989430       0.77141976
Pb      19.57516342       9.20677354       4.44884612       0.18746434       0.16043442      -0.09495196       1.62736043      -1.65520205      -1.39653505
Pb       9.44569207       6.84024315       2.16760737       0.28263097       0.26373178      -0.14404843      -0.66536940      -0.11709303      -0.38834600
Pb      11.89521370       3.50877411       3.93965764       0.02138275       0.14733807      -0.04676942      -1.00905898      -2.96226188      -0.37277999
I        1.09420460       3.61751522       3.82083099       0.04406759      -0.36725283      -0.01313112      -0.30774412       1.11581550       0.64093705
I        0.93642599       7.20044555       1.89412678       0.14852447      -0.11439304      -0.21075790      -0.58242261       0.30449565      -1.41987217
I       10.66362687       8.89528677       4.36726307       0.26530913       0.29790239      -0.15764078      -2.28534930       2.27441763       1.01179728
I       10.86176471       1.33086162       1.78412771       0.03505943      -0.10430756      -0.12199411       2.30703940       1.65874870       0.11748842
I       18.67287424      23.06597130       2.05489355      -0.08840836       0.05204186       0.11615476      -0.61229034       0.80732929       0.35931962
I        2.99009596      10.67091775       3.73751470      -0.00957761       0.16244521       0.04443732      -0.70684380      -0.77641938      -0.38612898
I       12.78683628       5.56180898       1.73716123      -0.30183812       0.17102775      -0.05357039       1.73768730       0.69235924      -0.21093089
I        8.66453070       4.83940116       4.44535763       0.00562979      -0.19952942       0.06375609       0.95217618       0.05410619       0.02834460
I        4.89366654       2.41198421       1.29639550      -0.03335085      -0.11862429      -0.16984114      -0.74366189       0.34754444      -0.74277831
I       16.79621545       7.86804318       4.81592512      -0.26993991       0.16699451       0.08876733       0.10826032       2.80826779      -0.51095446
I        6.69168899       8.55892596       2.21337326       0.14422081      -0.49737474      -0.04999155      -0.38190833       0.32774757      -0.44309222
I       14.81018000       2.49096328       3.88487232      -0.13278798      -0.48757240       0.07839988      -1.67335443       0.05873228       0.37417091
H        8.92428294      22.49110659       7.94096381       0.58470526      -0.12559066       0.05748069      -0.22067351       0.09345202       0.07131133
H       13.27929281      11.19711265       7.07446270      -0.76630909       0.36929421      -0.01264576      -0.29448953      -0.11604985      -0.01797808
H        3.57099662       5.26164050       8.78834225      -1.33600536      -1.12025018       0.36154097       0.20701388      -0.10747197      -0.10951442
H       18.40827173       5.30840855       5.84090333       0.85465130      -0.09455269      -0.71249113      -0.01583492       0.06951640      -0.03917136
H        6.96677527      21.70473074       4.79271838      -0.00090223       0.41008277      -0.31178587      -0.06100967       0.20895184      -0.02460184
H       14.79485725      11.84158532       5.41134317       0.18649681       0.25707527      -0.15238680      -0.30319058      -0.04146069      -0.17495675
H        4.93203109       4.33754215       2.80504014      -0.21954223       0.13587657      -0.08485419       0.12071754       0.06239796      -0.07002426
H       17.15016991       6.15489033       7.47857783      -0.13350143      -0.35543921       0.15117802       0.06775494       0.14476148      -0.03931103
H        6.33728092       0.03953112       9.60642292       0.02305582       0.11844853      -0.05599374       0.12301333       0.19584547      -0.16132703
H       15.47727189      10.15699016       5.31086746      -0.11923611       0.41670771      -0.08361706      -0.02695692       0.18683844      -0.02829778
H        5.62070859       5.95578948       2.43794568       0.73113841       0.61549254       0.20878086       0.01347165       0.04009880       0.35654394
H       16.29932170       4.51263361       7.91832608       1.19452165       1.00648975      -0.49576858      -0.03270728      -0.24714215      -0.10727882
H        7.19324355       1.84821879       8.03969731       0.10287645      -0.15835108       0.25874138       0.00684842      -0.00988447       0.11055142
H       14.60820499       8.47354297       6.73826238      -0.15214996       0.51150355      -0.26847834       0.02232653      -0.04763835      -0.13194762
H        4.99805019       7.87804416       8.59695699      -0.11438879      -0.22016735      -0.15882448       0.10813476      -0.02928550      -0.01928034
H       16.97846391       2.62535213       6.56230676      -0.17949178      -0.08403873      -0.10838314       0.01685070      -0.22218672       0.06920452
H        8.68384336       1.41901366       7.20630071      -0.01018876       0.10628511       0.16162524      -0.01047578      -0.19768606       0.16206951
H       13.16586054       8.81162164       7.64342574       0.56197168       0.87695280      -0.48312471      -0.10281448      -0.00694596      -0.11333235
H        3.56653155       7.43170413       9.49580269      -0.43040858       0.26836323       0.33124529       0.03748392       0.11390235      -0.08649834
H       18.21061113       3.05600225       0.75623099      -1.46971592       0.83680349       1.30251367       0.10249370       0.08981886      -0.07728450
C        7.98069369      -0.04501261       8.38343861      -0.93975271      -0.00862608       0.00223069      -0.07435501      -0.07226767      -0.32380735
C       13.96353161      10.46746997       6.61891979       0.08178766      -1.26829312       0.92301529       0.09042371       0.71341740      -0.39373665
C        4.32313005       5.90480939       8.45716734       1.73403392       1.42706531      -0.89346929      -0.08524396       0.37134109       0.06782402
C       17.74126206       4.55871441       6.32006456      -1.03378531       1.00945726       1.11480130      -0.10845745      -0.80500870       0.09296951
N        7.29643118      22.69700353       9.16418706      -0.04408477       0.13599346       0.00704671       0.18597390      -0.23991493      -0.66858573
N       14.81455927      10.86823794       5.72526234       0.86590192      -0.03213534      -0.72700131      -1.05508554      -0.13404848       0.75221894
N        4.95429756       5.38322358       2.99139274      -0.04433432      -0.45922826      -0.48973036       0.34099749      -0.40926331      -0.02339944
N       17.03242873       5.09997648       7.34506523      -0.86092569      -1.46837370      -0.09136215      -0.54586980       0.03712643      -0.64873029
N        7.97858841       1.19358003       7.93248936       0.11910549       0.12550296      -0.49441757      -0.01350818       0.32605488      -0.00499858
N       13.94995375       9.21967615       7.06209450      -0.45566555      -1.16933603       0.67190600       0.52765195      -0.81730798       0.10605011
N        4.27367090       7.18531775       8.81764889       0.26282529       0.33255685       0.57349794      -0.33866663       0.79956060       0.40075437
N       17.61710813       3.29903177       5.94931189       0.01478794      -0.78598365      -0.12101595       0.07221636      -0.09290013      -0.07890113
Pb       2.16086205       1.37434957       6.06054160       0.31476449       0.00859029      -0.24275533       1.01084178      -2.37419648       0.49522471
Pb      19.70811528       9.18846474       9.07374326       0.36120589       0.25905001      -0.28425184      -0.38312823       0.39119711       0.67419125
Pb       9.83187613       6.96696453       6.59372919       0.25630430      -0.01250830       0.27100395      -1.30413782       0.42769479       2.28471115
Pb      12.09821027       3.22219534       8.53981834      -0.00240040       0.49582858       0.18819413       0.93564320      -2.88364760       3.92436662
I        1.42125741       3.38395899       8.38546729      -0.23921738       0.02376669       0.10026485      -1.12598998       0.14950168      -0.08701121
I        1.29416212       7.20379967       6.46465594      -0.19065550      -0.01252403       0.01654081      -0.30003327      -0.11929578      -1.43315625
I       11.10166764       8.80331608       9.10863930      -0.28378538       0.05997627      -0.21541820      -0.97168009       0.60417314       1.87526207
I       11.09013224       1.47433831       6.28424902      -0.14940065      -0.43536261      -0.08387397      -0.43763224      -1.13890738      -0.65598205
I       19.06162868      23.10936681       6.47222757      -0.21411689       0.01370791       0.32159778      -0.61186829       0.52526950      -1.20091519
I        3.26872395      10.86883243       8.25602960      -0.06021269      -0.06689355       0.10792287      -0.70017945      -1.35982452       1.36310627
I       12.93976741       5.46759847       6.24131831      -0.04411048       0.11417836       0.14953482       3.47039720       1.13154918      -1.27578398
I        9.09055093       4.84996194       8.95611883      -0.24594793      -0.34786033      -0.06623353      -0.04815609      -0.68081063       1.84248871
I        5.22189053       2.49963777       5.54310653      -0.27945849       0.07448451       0.26543667      -1.45584272       1.21486364       1.54454024
I       17.00131586       7.97367813       9.29004149      -0.32178543       0.04005391       0.02994150       0.21098380      -0.13871377      -0.29547723
I        7.01302309       8.21875564       6.60464468      -0.02876536       0.11752253       0.08911442      -0.69036292      -0.01608302      -1.55979225
I       14.98027009       2.15716038       8.45273283       0.25193263      -0.15574298      -0.01116290      -0.35032596      -0.20394630       0.40655055
H        8.81834642      22.31757502      12.29411061       0.19333938       0.10751468      -0.11891987      -0.02673278      -0.02142740      -0.03520750
H       13.28985748      10.77276010      11.68150515       0.36503485      -0.10996717      -0.28247333      -0.11689073       0.04658650       0.04499671
H        3.59403004       5.21702960      13.26501090      -0.10051239      -0.52390097       0.10331820       0.03099174       0.12291902       0.04867105
H       18.50732447       5.33288986      10.54463840      -0.66837497      -0.84432204       0.53007406      -0.10793935       0.10597716      -0.02470347
H        6.98773064      21.78214426       0.31913033       0.12952007       0.04660436       0.01914905       0.09475722       0.00217254       0.11521698
H       13.57051680       8.44178890      12.24308365      -0.18267009       0.05975270       0.06643395      -0.03301940      -0.12811202      -0.18472285
H        5.46761481       4.37382651      16.45695704       0.34057836       0.30767883       0.00951962       0.15204615      -0.11114361       0.15328496
H       16.95870553       6.06285921      12.19236702      -0.25317579      -1.27837361      -0.66665383      -0.02037878       0.01818519       0.12653034
H        6.47952449       0.06730789      14.26630337      -0.21784790       0.32461333       0.00595518       0.02097690       0.01475933      -0.00792729
H       15.14015009       8.38399398      11.36657392      -0.64524525       0.26323355       0.23899412       0.04289908       0.20635265      -0.09371451
H        6.35704206       5.90670743      16.42546194       0.20548023       0.41491866      -0.14132144      -0.20581632      -0.06035030      -0.10307235
H       16.10887637       4.46744012      12.18088437      -0.23458783      -0.11011549       0.22981097      -0.16788031       0.10825110       0.02081689
H        7.48580992       1.98162055      13.14823547       0.68733820      -0.55245003      -0.11729709       0.00162961       0.16215091       0.07283846
H       15.89240336      10.16772697      10.38719404       1.30109536      -0.25379057      -0.92879121      -0.02064785       0.03650617       0.00568529
H        5.08755072       7.73948566      12.94796080       0.01802718       0.49213250       0.23729972       0.09680713      -0.14836539      -0.03547119
H       17.01966241       2.70321330      10.82380395       0.06233922      -0.33465260       0.04732566      -0.04648474      -0.02330798       0.05690721
H        8.83765847       1.51665307      12.05336542       0.78779631       0.39825843      -0.77506823       0.03658150      -0.11449017       0.04306668
H       15.05924374      11.74518036      10.22062681       0.17108407      -0.45415490       0.26211172      -0.28667498       0.00890057      -0.12445619
H        3.61534634       7.50293992      13.96084047       0.19422301      -0.50449391      -0.34334373       0.00108534      -0.34338246       0.05800288
H       18.53132993       2.78112539      14.29025800       0.07760372       0.57587156       0.33107350       0.01201360      -0.02854957      -0.04371492
C        8.16895236      23.10219800      12.81300896       0.37319699       0.52410351      -0.00731050      -0.17225217       0.09954452       0.28755553
C       14.19009696      10.21293909      11.35081177       0.24053904       0.26537721      -0.40101111       0.21609668      -0.03871681      -0.43238261
C        4.40909878       5.84533933      12.90907082      -1.23394543       0.90711692       1.46202809       0.17956279      -0.18409805      -0.25139071
C       17.75125978       4.57961115      10.97179064       0.34336133       1.87416301       0.30154348       0.12658700      -0.47981315      -0.54415532
N        7.31382817      22.65005492      13.67559455      -0.42543819      -1.22683840       0.84001612       0.33737095      -0.42135336       0.58728553
N       14.29643093       8.92581340      11.68950630       0.55281535      -0.25125157      -0.03679289       0.17682321      -0.21915351       0.13009733
N        5.57894476       5.35637995      16.77540262      -0.70934210      -1.55730372       0.01777941      -0.36789955      -0.25213383       1.19670274
N       16.83037108       5.08522183      11.79333639       1.30314193       0.88253858      -0.37096760       0.49916293      -0.00762698      -0.75393510
N        8.10778852       1.22486064      12.65857475      -1.31821753       0.03954487       0.51791530      -0.16448758       0.34156424       0.00189677
N       15.15634298      10.79512468      10.62376691      -2.02787186       0.64033721       1.08802581      -0.36348405      -0.33353161       0.14662352
N        4.36270285       7.11006233      13.35271898       0.87786212      -0.47734620      -1.00018968       0.47357454       0.11246039       0.04315473
N       17.79685010       3.31855701      10.57977245       1.15230263      -0.96915317      -1.52963272      -0.71883763       0.15115034       0.59805125
Pb       2.27222095       1.28393715      10.68316085       0.21034177       0.00564021       0.06647102       0.75328276       1.22989430       0.77141976
Pb      19.90685566       9.12533614      13.57217422       0.18746434       0.16043442      -0.09495196       1.62736043      -1.65520205      -1.39653505
Pb       9.77738431       6.75880575      11.29093547       0.28263097       0.26373178      -0.14404843      -0.66536940      -0.11709303      -0.38834600
Pb      12.22690594       3.42733671      13.06298574       0.02138275       0.14733807      -0.04676942      -1.00905898      -2.96226188      -0.37277999
I        1.42589684       3.53607782      12.94415909       0.04406759      -0.36725283      -0.01313112      -0.30774412       1.11581550       0.64093705
I        1.26811823       7.11900815      11.01745488       0.14852447      -0.11439304      -0.21075790      -0.58242261       0.30449565      -1.41987217
I       10.99531911       8.81384937      13.49059117       0.26530913       0.29790239      -0.15764078      -2.28534930       2.27441763       1.01179728
I       11.19345695       1.24942422      10.90745581       0.03505943      -0.10430756      -0.12199411       2.30703940       1.65874870       0.11748842
I       19.00456648      22.98453390      11.17822165      -0.08840836       0.05204186       0.11615476      -0.61229034       0.80732929       0.35931962
I        3.32178820      10.58948035      12.86084280      -0.00957761       0.16244521       0.04443732      -0.70684380      -0.77641938      -0.38612898
I       13.11852852       5.48037158      10.86048933      -0.30183812       0.17102775      -0.05357039       1.73768730       0.69235924      -0.21093089
I        8.99622294       4.75796376      13.56868573       0.00562979      -0.19952942       0.06375609       0.95217618       0.05410619       0.02834460
I        5.22535878       2.33054681      10.41972360      -0.03335085      -0.11862429      -0.16984114      -0.74366189       0.34754444      -0.74277831
I       17.12790769       7.78660578      13.93925322      -0.26993991       0.16699451       0.08876733       0.10826032       2.80826779      -0.51095446
I        7.02338123       8.47748856      11.33670136       0.14422081      -0.49737474      -0.04999155      -0.38190833       0.32774757      -0.44309222
I       15.14187224       2.40952588      13.00820042      -0.13278798      -0.48757240       0.07839988      -1.67335443       0.05873228       0.37417091
H        9.25597518      22.40966919      17.06429191       0.58470526      -0.12559066       0.05748069      -0.22067351       0.09345202       0.07131133
H       13.61098505      11.11567525      16.19779080      -0.76630909       0.36929421      -0.01264576      -0.29448953      -0.11604985      -0.01797808
H        3.90268886       5.18020310      17.91167035      -1.33600536      -1.12025018       0.36154097       0.20701388      -0.10747197      -0.10951442
H       18.73996397       5.22697115      14.96423143       0.85465130      -0.09455269      -0.71249113      -0.01583492       0.06951640      -0.03917136
H        7.29846751      21.62329334      13.91604648      -0.00090223       0.41008277      -0.31178587      -0.06100967       0.20895184      -0.02460184
H       15.12654949      11.76014792      14.53467127       0.18649681       0.25707527      -0.15238680      -0.30319058      -0.04146069      -0.17495675
H        5.26372333       4.25610475      11.92836824      -0.21954223       0.13587657      -0.08485419       0.12071754       0.06239796      -0.07002426
H       17.48186215       6.07345293      16.60190593      -0.13350143      -0.35543921       0.15117802       0.06775494       0.14476148      -0.03931103
H        6.00558868       0.12096852       0.48309482       0.02305582       0.11844853      -0.05599374       0.12301333       0.19584547      -0.16132703
H       15.80896413      10.07555276      14.43419556      -0.11923611       0.41670771      -0.08361706      -0.02695692       0.18683844      -0.02829778
H        5.95240083       5.87435208      11.56127378       0.73113841       0.61549254       0.20878086       0.01347165       0.04009880       0.35654394
H       16.63101394       4.43119621      17.04165418       1.19452165       1.00648975      -0.49576858      -0.03270728      -0.24714215      -0.10727882
H        7.52493579       1.76678139      17.16302541       0.10287645      -0.15835108       0.25874138       0.00684842      -0.00988447       0.11055142
H       14.93989723       8.39210557      15.86159048      -0.15214996       0.51150355      -0.26847834       0.02232653      -0.04763835      -0.13194762
H        5.32974243       7.79660676      17.72028509      -0.11438879      -0.22016735      -0.15882448       0.10813476      -0.02928550      -0.01928034
H       17.31015615       2.54391473      15.68563486      -0.17949178      -0.08403873      -0.10838314       0.01685070      -0.22218672       0.06920452
H        9.01553560       1.33757626      16.32962881      -0.01018876       0.10628511       0.16162524      -0.01047578      -0.19768606       0.16206951
H       13.49755278       8.73018424      16.76675384       0.56197168       0.87695280      -0.48312471      -0.10281448      -0.00694596      -0.11333235
H        3.23483931       7.51314153       0.37247459      -0.43040858       0.26836323       0.33124529       0.03748392       0.11390235      -0.08649834
H       18.54230337       2.97456485       9.87955909      -1.46971592       0.83680349       1.30251367       0.10249370       0.08981886      -0.07728450
C        8.31238593      -0.12645001      17.50676671      -0.93975271      -0.00862608       0.00223069      -0.07435501      -0.07226767      -0.32380735
C       14.29522385      10.38603257      15.74224789       0.08178766      -1.26829312       0.92301529       0.09042371       0.71341740      -0.39373665
C        4.65482229       5.82337199      17.58049544       1.73403392       1.42706531      -0.89346929      -0.08524396       0.37134109       0.06782402
C       18.07295430       4.47727701      15.44339266      -1.03378531       1.00945726       1.11480130      -0.10845745      -0.80500870       0.09296951
N        6.96473894      22.77844093       0.04085896      -0.04408477       0.13599346       0.00704671       0.18597390      -0.23991493      -0.66858573
N       15.14625151      10.78680054      14.84859044       0.86590192      -0.03213534      -0.72700131      -1.05508554      -0.13404848       0.75221894
N        5.28598980       5.30178618      12.11472084      -0.04433432      -0.45922826      -0.48973036       0.34099749      -0.40926331      -0.02339944
N       17.36412097       5.01853908      16.46839333      -0.86092569      -1.46837370      -0.09136215      -0.54586980       0.03712643      -0.64873029
N        8.31028065       1.11214263      17.05581746       0.11910549       0.12550296      -0.49441757      -0.01350818       0.32605488      -0.00499858
N       14.28164599       9.13823875      16.18542260      -0.45566555      -1.16933603       0.67190600       0.52765195      -0.81730798       0.10605011
N        4.60536314       7.10388035      17.94097699       0.26282529       0.33255685       0.57349794      -0.33866663       0.79956060       0.40075437
N       17.94880037       3.21759437      15.07263999       0.01478794      -0.78598365      -0.12101595       0.07221636      -0.09290013      -0.07890113
Pb       2.49255429       1.29291217      15.18386970       0.31476449       0.00859029      -0.24275533       1.01084178      -2.37419648       0.49522471
Pb      20.03980752       9.10702734      18.19707136       0.36120589       0.25905001      -0.28425184      -0.38312823       0.39119711       0.67419125
Pb      10.16356837       6.88552713      15.71705729       0.25630430      -0.01250830       0.27100395      -1.30413782       0.42769479       2.28471115
Pb      12.42990251       3.14075794      17.66314644      -0.00240040       0.49582858       0.18819413       0.93564320      -2.88364760       3.92436662
I        1.75294965       3.30252159      17.50879539      -0.23921738       0.02376669       0.10026485      -1.12598998       0.14950168      -0.08701121
I        1.62585436       7.12236227      15.58798404      -0.19065550      -0.01252403       0.01654081      -0.30003327      -0.11929578      -1.43315625
I       11.43335988       8.72187868      18.23196740      -0.28378538       0.05997627      -0.21541820      -0.97168009       0.60417314       1.87526207
I       11.42182448       1.39290091      15.40757712      -0.14940065      -0.43536261      -0.08387397      -0.43763224      -1.13890738      -0.65598205
I       19.39332092      23.02792941      15.59555567      -0.21411689       0.01370791       0.32159778      -0.61186829       0.52526950      -1.20091519
I        3.60041619      10.78739503      17.37935770      -0.06021269      -0.06689355       0.10792287      -0.70017945      -1.35982452       1.36310627
I       13.27145965       5.38616107      15.36464641      -0.04411048       0.11417836       0.14953482       3.47039720       1.13154918      -1.27578398
I        9.42224317       4.76852454      18.07944693      -0.24594793      -0.34786033      -0.06623353      -0.04815609      -0.68081063       1.84248871
I        5.55358277       2.41820037      14.66643463      -0.27945849       0.07448451       0.26543667      -1.45584272       1.21486364       1.54454024
I       16.66962362       8.05511553       0.16671339      -0.32178543       0.04005391       0.02994150       0.21098380      -0.13871377      -0.29547723