768
Lattice="25.244031463055336 -0.051139010145229986 -0.15563925591508607 -0.008975214029691772 25.575374942549175 -0.11406019386377196 -0.3474594723078396 -0.009706484009668169 25.26731789926129" Properties=species:S:1:pos:R:3:forces:R:3:momenta:R:3 pbc="T T T"
H        9.56772453      10.30874553       4.76767218      -0.47743350      -0.27769040      -0.04258933       0.07526901       0.13649016      -0.11386210
H        9.99012061       3.37368631       2.22486291      -0.25912653      -0.67117746      -0.09368468      -0.07879826      -0.08509081       0.07801125
H        8.55231429       3.58408024       9.45739231      -0.26852282      -0.45955989      -0.10800286       0.05148732      -0.09980813      -0.06692123
H       10.66911487       9.65872668       9.33076692      -0.30085634       0.70021474      -0.02386928       0.09537236      -0.15074955      -0.01179356
H       11.39167005       9.94620382       3.42836202      -0.02379912       0.49399973      -0.16143253       0.04774359       0.05861401       0.00663221
H       11.41205152       5.00368757       2.69611372       0.05483959       0.20628112       0.27397004      -0.08127301      -0.14911856      -0.04022372
H        1.44429928      11.44408232      10.06583601       0.51354845      -0.02008467      -0.15408440       0.11198702      -0.04615497      -0.03242214
H        9.66436449       9.69717953      11.51135250       0.03485808       0.35906350      -0.88198791       0.21887763      -0.09919026       0.11182570
H        4.38635282       4.62155028       1.85310328      -0.06602943      -0.42664911      -0.49048824      -0.20918419      -0.19169636      -0.04155481
H        3.19494968      12.30581793       2.39275973      -0.46055990       0.35200244       0.52758098      -0.14574855      -0.05174463       0.20343555
H        2.45902561      12.10668785       8.74612878      -0.04228477       0.13253037       0.08766312       0.08159180       0.08071298      -0.06107811
H        8.72130602      11.14318895      11.19028959       0.62334516      -0.39670938      -0.34420234       0.04151834      -0.28234031       0.19303508
H        4.21803228       5.50050849       4.19217665      -0.05932425       0.23842471       0.09099615       0.35322650       0.02863733      -0.08277713
H        2.58831426      11.52716411       4.82426461      -0.26253166       0.28476346      -0.12278884      -0.16902098      -0.06597798       0.14948227
H        4.72241911      11.13049498       8.36195471      -0.07607748       0.03264687       0.56222867      -0.07959117      -0.04288682       0.08504783
H        3.73663035       5.62625175      10.17347919      -0.12879629      -0.12885881      -0.01410208      -0.02779798       0.02328691      -0.09145219
H        7.78197989      11.66541097       4.02989647       0.98549855       0.14346295      -0.87306635       0.12378197      -0.02614206      -0.05422022
H        3.08646604       9.81843385       5.16548198       0.09803493      -0.44322385       0.65632686       0.01274342       0.11291973       0.03422320
H        8.77377765       5.09233636      11.27729991       0.27515195      -0.22843774      -0.49970829       0.01333095      -0.13700752       0.00838349
H        4.46574335       4.86644953       8.76123196      -0.06921257      -0.09056391       0.15194979      -0.02155278       0.04486134      -0.14657531
C        9.60467444      10.82635178       3.73733394      -0.58091560       1.39396378       0.23574217      -0.44284107      -0.10943363      -0.19739790
C        3.68160429      10.46797488       3.37672673       0.08408971       0.17312920      -0.87453755      -0.47828663       0.63188936      -0.56712282
C        3.39512780      10.74129255       9.99399880       1.06915925       0.04038963      -0.81429103       0.22814423       0.53243396      -0.22459821
C        2.73140774       3.97722845       9.41637481       0.15681834       0.09995442       0.14459530       0.16359862      -0.75806801      -0.25790580
N        3.52261498       4.05460050       1.99126548      -0.00559511       1.09765293       1.05825299      -0.56186709       0.05083911      -0.42055523
N        3.71382906      11.42001438       2.43047112      -0.16856895      -0.28045940       0.09899749      -0.26962339      -0.77895008      -0.40589434
N        2.37855121      11.49249711       9.59831802      -0.57704453      -0.51691418       0.35529777       0.34777954       0.74314907       0.26528949
N        9.44277087      10.46211267      10.82540972      -0.37459123       0.11425000       0.29058266      -0.32935301       0.60956133       0.10880721
N        3.32194776       4.92758861       4.19873649      -0.12376982      -0.01946552       0.64264594       0.46034797       0.45405569      -0.40187260
N        3.08670433      10.63392869       4.53491448       0.40115423      -0.28506948      -0.21401503       0.16371203       0.28638451      -0.16139295
N        9.43051834       5.13843376      10.47428554       0.44970147       0.71767466       0.63346086       0.43526069      -0.16792930      -0.15296791
N        3.72863897       4.84795887       9.50435193       0.03693545      -0.10423104      -0.25219023       0.74751298       0.00860176       0.20534085
Pb       6.25173767       1.28391689      12.64955186      -0.21038747       0.19553660       0.33046342       1.60085785      -2.76767259       2.32808286
Pb      -0.13634627       1.20675713      12.89364693       0.30095013       0.17194804      -0.16108619      -0.61509383       0.45433828       1.60877935
Pb       6.62257772       7.76045828       6.63940093      -0.30102527       0.04233309      -0.05078388       1.15301988      -2.89013054      -0.73288966
Pb       6.34679736       1.36719652       6.55750621       0.10571241       0.12329901      -0.14215698      -0.51782244      -0.10463248       1.37950325
I        9.40503171       0.96147600      13.24307156       0.18299294      -0.05883651       0.06041496       2.06067378       0.51582743       2.72808178
I        3.17863351      14.22145708      12.05029552      -0.24526322      -0.06644474       0.15401373       0.85104402       1.25125199       0.31388123
I        3.04401366       0.80295952       7.01722694       0.43516057       0.09800252      -0.02031062       0.43395366      -1.13210483      -0.99330185
I        9.44071532       1.51624246       6.11496859       0.17740312       0.04062719       0.06455292      -0.57423018       0.47896958       2.33287660
I        6.25854545      10.87432484      12.91337875       0.05959181      -0.17569017      -0.06080603      -0.93646587      -0.69213728       0.26418915
I        6.81966358       4.44554907       0.01480094      -0.05916802       0.10136982       0.02080314       0.88308487      -0.53205304      -0.50396175
I        6.33898317       4.63547379       6.82809311      -0.08039216      -0.05772013       0.03367058       1.32897088      -0.48251364      -0.68907240
I        6.68581090      11.09189236       6.32925644      -0.06816772      -0.34725579       0.01237470       1.49807365      -1.11367114      -0.62156713
I        5.95641559      14.40231577       3.40689691      -0.05765648      -0.18707437      -0.22147622      -1.50607002       0.90842084      -0.31095044
I        0.80631914       0.69773544       3.37704668      -0.02447592       0.23597476       0.03842435       1.28878988      -1.33043496      -0.60317829
I       24.67466427       1.17712803       9.60325641      -0.01126018       0.00466661      -0.28892719      -0.68111114      -0.99011993       0.58742936
I        7.04949888       1.04474536       9.78703584       0.01492083      -0.01553292      -0.21223308       0.88502119      -0.93522088       0.35833023
H        1.96192756       3.57248159       3.31043376       0.32141243       0.53431254       0.05456111      -0.21338978      -0.01233200       0.04826457
H        4.21135957       9.46853538       3.08469497      -0.36115358       0.23679337       0.65994732       0.03185308       0.11580565      -0.04497246
H        3.33991665      10.00373899      10.78794018      -0.50210382       0.15328128       0.61198636      -0.02501546      -0.24974553       0.07892654
H        2.81035621       3.18484903       8.63706232      -0.15486015       0.59002457       0.32032705      -0.01606870       0.07798264       0.02894761
H        3.08233110       3.48223413       1.19007651       0.22318962       0.05740876       0.43226812      -0.00471094       0.10063751       0.13250879
H        4.21488692      11.16601419       1.58081312       0.62807612      -0.10974387      -0.62030125      -0.06700321      -0.20068762      -0.06818085
H        9.87432569       3.94086246       7.51924580       0.14486602      -0.03922102       0.24979248      -0.11677499       0.08855384      -0.32252089
H        0.92101664       3.22242327      10.04235948       0.98802529       0.68751137       0.26231995       0.03550748       0.04012982       0.05021567
H       10.97211343      11.14620588       2.13784468      -0.10626185      -0.24903859       0.32520302       0.06294112       0.11730758       0.05975176
H       10.35395022       5.73754724       3.99198225       0.51000002      -0.55345319      -0.52458197       0.23148552       0.12613813      -0.27051439
H       10.81563180       5.21108430       8.31211717      -0.22189079      -0.01502208       0.12566498       0.14362091      -0.20031744       0.20724068
H        1.51223377       4.51566987      11.11627399       0.46053891      -0.78577401      -1.13592772      -0.03137956       0.08188627       0.16230766
H        8.55423596      12.19917187       2.43641666       0.33106590      -0.54403950       0.33506854      -0.13074066      -0.01377322      -0.09706948
H        8.24056371       4.66563958       4.26091099      -0.47510336       0.29536704       0.64877693       0.14193619      -0.10822255      -0.03861295
H       10.12405054       5.92933253      10.49338248      -0.71686206      -0.87213951      -0.05860568       0.00316631       0.11890292      -0.04296140
H        8.99611807      12.20037871       8.81521170       0.50927402      -0.47496233       0.08937558       0.07368170       0.04921587      -0.07192805
H        2.66355798       4.89702307       5.00603461       0.53632876       0.34141694      -0.13423963      -0.10532722      -0.08498151      -0.02889067
H        7.81799502       3.20846817       3.39678373      -0.14644457      -0.31162155      -0.23074171       0.13480957      -0.06510192      -0.09624694
H        5.32273296      10.09733662       9.73529796      -0.16613573      -0.05484305      -0.02775616      -0.03678240       0.08866917      -0.10170631
H       10.27939308      11.45374861       7.82948512      -0.13496518      -0.08224000      -0.08980257       0.03912191      -0.08062925      -0.01325504
C        2.91084854       4.19798930       3.18519464      -0.66783235      -1.78431959      -1.77237847      -0.62764480      -0.19352073      -0.49351102
C        9.71367495       4.04907827       3.05003271      -2.52268787      -1.44555412      -0.58419047       0.51053860       0.24319928       0.32229288
C        9.32003287       4.34334253       9.42934603      -0.09867670       1.33112691       1.05311301      -0.26561030      -0.72717034      -0.39503667
C        9.96609277      10.50681973       9.58877613      -0.25284255      -0.44605035       0.78139260       0.48333705       0.98851074       0.02388012
N       10.76808035      10.73921542       3.14015388       0.98552791      -0.72692667      -0.92106547      -0.98691004      -0.00520074      -0.07415400
N       10.61208623       4.90922593       3.35689357       1.48040013       2.18182201       0.69032056       0.34772788      -0.19381946       0.05043292
N       10.05632636       4.51926743       8.36642482       0.52802160      -0.60542969      -1.46182237      -0.04539015      -0.08867923       0.58573590
N        1.67648942       3.94177436      10.22690113      -1.09622425      -0.07967275       0.36701134      -0.73514976       0.83582797       0.40151237
N        8.58075064      11.58631084       3.31173529      -0.98751700      -0.48167552       0.95058088      -0.19016026      -0.68892212      -0.07426002
N        8.47872395       3.96703584       3.57816478       1.51723991       0.50595912      -0.37559987       0.21452344      -0.44289520      -0.45919495
N        4.60100868      10.76955542       9.42640257      -0.29933578      -0.08227883      -0.39599232       0.10037300       0.18648602      -0.15054509
N        9.67907230      11.41808715       8.66557022      -0.21129711       0.25996463       0.19304702      -0.24064260      -0.56704290      -0.54593477
Pb       0.18446239       7.72146994      12.76542861      -0.10739883       0.03449748       0.33227682      -0.60196460       0.14103184      -2.02752575
Pb       6.34283219       7.66952019      13.02083698       0.24800476      -0.13693235      -0.24786401       1.47448242      -3.02088840      -1.70961900
Pb       0.16917592       1.19142446       6.44951613      -0.46107643       0.12122957       0.10792754      -1.11400271       1.98955569       0.43734835
Pb       0.20295108       7.60899504       6.54529915       0.20263494      -0.05529646      -0.19002024      -1.02942628      -2.22855170       0.10807595
I        3.27383768       7.30080820      12.40652003       0.13862475       0.02291549      -0.21590078      -1.55252702       1.93469943       1.79359359
I        9.65581986       7.57635843      13.19116983      -0.23336992       0.19255732       0.06968218      -0.04479966      -1.78349473       0.47449860
I        9.60784772       7.32122701       5.78657545       0.09801340       0.06131182       0.03314513      -0.86111712       0.91087252       0.16334411
I        3.28890618       7.86672332       7.11899543       0.13337464       0.10376762      -0.12027481      -0.33179999      -0.49961796       0.32864152
I       24.98069054       4.53148582      12.49887511      -0.17043928      -0.24191955       0.49476983      -2.31377794       0.14777740       0.20009531
I        0.48654101      10.95747499       0.05954475       0.01008045      -0.08579476      -0.08180868      -0.99117401       0.96509258       0.78944240
I       -0.04930622      10.75388480       6.50283389      -0.17489122       0.05930028       0.14022680      -0.29238115      -0.27897740       0.12835021
I        0.76899698       4.33895177       6.27623706      -0.34303716       0.04691928       0.23939371       2.32900445      -1.73172909      -1.02184917
I       13.32250037       7.77179054       3.26126251      -0.08627948       0.06021648       0.10467316       0.78870318      -1.63318883       1.41847748
I        5.97995015       7.21301808       3.36589594       0.03111445       0.05165892       0.01025661      -0.04760782       1.18374834      -1.13280992
I        6.87821627       7.74007208       9.62183576      -0.01470656       0.12933731       0.33889430       2.69750663       0.65790069      -1.84137261
I       24.79553468       7.50673901       9.54076439       0.01054891      -0.13126346      -0.23531621      -2.11477244       0.12789705       0.35647121
H        9.39399479      10.30389229      17.40133113      -0.47743350      -0.27769040      -0.04258933       0.07526901       0.13649016      -0.11386210
H        9.81639087       3.36883307      14.85852186      -0.25912653      -0.67117746      -0.09368468      -0.07879826      -0.08509081       0.07801125
H        8.37858455       3.57922700      22.09105126      -0.26852282      -0.45955989      -0.10800286       0.05148732      -0.09980813      -0.06692123
H       10.49538513       9.65387344      21.96442587      -0.30085634       0.70021474      -0.02386928       0.09537236      -0.15074955      -0.01179356
H       11.21794031       9.94135058      16.06202097      -0.02379912       0.49399973      -0.16143253       0.04774359       0.05861401       0.00663221
H       11.23832178       4.99883433      15.32977267       0.05483959       0.20628112       0.27397004      -0.08127301      -0.14911856      -0.04022372
H        1.27056954      11.43922908      22.69949496       0.51354845      -0.02008467      -0.15408440       0.11198702      -0.04615497      -0.03242214
H        9.49063475       9.69232629      24.14501145       0.03485808       0.35906350      -0.88198791       0.21887763      -0.09919026       0.11182570
H        4.21262308       4.61669704      14.48676223      -0.06602943      -0.42664911      -0.49048824      -0.20918419      -0.19169636      -0.04155481
H        3.02121994      12.30096469      15.02641868      -0.46055990       0.35200244       0.52758098      -0.14574855      -0.05174463       0.20343555
H        2.28529587      12.10183461      21.37978773      -0.04228477       0.13253037       0.08766312       0.08159180       0.08071298      -0.06107811
H        8.54757628      11.13833571      23.82394854       0.62334516      -0.39670938      -0.34420234       0.04151834      -0.28234031       0.19303508
H        4.04430254       5.49565525      16.82583560      -0.05932425       0.23842471       0.09099615       0.35322650       0.02863733      -0.08277713
H        2.41458452      11.52231087      17.45792356      -0.26253166       0.28476346      -0.12278884      -0.16902098      -0.06597798       0.14948227
H        4.54868937      11.12564174      20.99561366      -0.07607748       0.03264687       0.56222867      -0.07959117      -0.04288682       0.08504783
H        3.56290061       5.62139851      22.80713814      -0.12879629      -0.12885881      -0.01410208      -0.02779798       0.02328691      -0.09145219
H        7.60825015      11.66055773      16.66355542       0.98549855       0.14346295      -0.87306635       0.12378197      -0.02614206      -0.05422022
H        2.91273630       9.81358061      17.79914093       0.09803493      -0.44322385       0.65632686       0.01274342       0.11291973       0.03422320
H        8.60004791       5.08748312      23.91095886       0.27515195      -0.22843774      -0.49970829       0.01333095      -0.13700752       0.00838349
H        4.29201361       4.86159629      21.39489091      -0.06921257      -0.09056391       0.15194979      -0.02155278       0.04486134      -0.14657531
C        9.43094470      10.82149854      16.37099289      -0.58091560       1.39396378       0.23574217      -0.44284107      -0.10943363      -0.19739790
C        3.50787455      10.46312164      16.01038568       0.08408971       0.17312920      -0.87453755      -0.47828663       0.63188936      -0.56712282
C        3.22139806      10.73643931      22.62765775       1.06915925       0.04038963      -0.81429103       0.22814423       0.53243396      -0.22459821
C        2.55767800       3.97237521      22.05003376       0.15681834       0.09995442       0.14459530       0.16359862      -0.75806801      -0.25790580
N        3.34888524       4.04974726      14.62492443      -0.00559511       1.09765293       1.05825299      -0.56186709       0.05083911      -0.42055523
N        3.54009932      11.41516114      15.06413007      -0.16856895      -0.28045940       0.09899749      -0.26962339      -0.77895008      -0.40589434
N        2.20482147      11.48764387      22.23197697      -0.57704453      -0.51691418       0.35529777       0.34777954       0.74314907       0.26528949
N        9.26904113      10.45725943      23.45906867      -0.37459123       0.11425000       0.29058266      -0.32935301       0.60956133       0.10880721
N        3.14821802       4.92273537      16.83239544      -0.12376982      -0.01946552       0.64264594       0.46034797       0.45405569      -0.40187260
N        2.91297459      10.62907545      17.16857343       0.40115423      -0.28506948      -0.21401503       0.16371203       0.28638451      -0.16139295
N        9.25678860       5.13358052      23.10794449       0.44970147       0.71767466       0.63346086       0.43526069      -0.16792930      -0.15296791
N        3.55490923       4.84310563      22.13801088       0.03693545      -0.10423104      -0.25219023       0.74751298       0.00860176       0.20534085
Pb       6.42546741       1.28877013       0.01589291      -0.21038747       0.19553660       0.33046342       1.60085785      -2.76767259       2.32808286
Pb       0.03738347       1.21161037       0.25998798       0.30095013       0.17194804      -0.16108619      -0.61509383       0.45433828       1.60877935
Pb       6.44884798       7.75560504      19.27305988      -0.30102527       0.04233309      -0.05078388       1.15301988      -2.89013054      -0.73288966
Pb       6.17306762       1.36234328      19.19116516       0.10571241       0.12329901      -0.14215698      -0.51782244      -0.10463248       1.37950325
I        9.57876145       0.96632924       0.60941261       0.18299294      -0.05883651       0.06041496       2.06067378       0.51582743       2.72808178
I        3.00490377      14.21660384      24.68395447      -0.24526322      -0.06644474       0.15401373       0.85104402       1.25125199       0.31388123
I        2.87028392       0.79810628      19.65088589       0.43516057       0.09800252      -0.02031062       0.43395366      -1.13210483      -0.99330185
I        9.26698558       1.51138922      18.74862754       0.17740312       0.04062719       0.06455292      -0.57423018       0.47896958       2.33287660
I        6.43227519      10.87917808       0.27971980       0.05959181      -0.17569017      -0.06080603      -0.93646587      -0.69213728       0.26418915
I        6.64593384       4.44069583      12.64845989      -0.05916802       0.10136982       0.02080314       0.88308487      -0.53205304      -0.50396175
I        6.16525343       4.63062055      19.46175206      -0.08039216      -0.05772013       0.03367058       1.32897088      -0.48251364      -0.68907240
I        6.51208116      11.08703912      18.96291539      -0.06816772      -0.34725579       0.01237470       1.49807365      -1.11367114      -0.62156713
I        5.78268585      14.39746253      16.04055586      -0.05765648      -0.18707437      -0.22147622      -1.50607002       0.90842084      -0.31095044
I        0.63258940       0.69288220      16.01070563      -0.02447592       0.23597476       0.03842435       1.28878988      -1.33043496      -0.60317829
I       24.50093454       1.17227479      22.23691536      -0.01126018       0.00466661      -0.28892719      -0.68111114      -0.99011993       0.58742936
I        6.87576914       1.03989212      22.42069479       0.01492083      -0.01553292      -0.21223308       0.88502119      -0.93522088       0.35833023
H        1.78819782       3.56762835      15.94409271       0.32141243       0.53431254       0.05456111      -0.21338978      -0.01233200       0.04826457
H        4.03762983       9.46368214      15.71835392      -0.36115358       0.23679337       0.65994732       0.03185308       0.11580565      -0.04497246
H        3.16618691       9.99888575      23.42159913      -0.50210382       0.15328128       0.61198636      -0.02501546      -0.24974553       0.07892654
H        2.63662647       3.17999579      21.27072127      -0.15486015       0.59002457       0.32032705      -0.01606870       0.07798264       0.02894761
H        2.90860136       3.47738089      13.82373546       0.22318962       0.05740876       0.43226812      -0.00471094       0.10063751       0.13250879
H        4.04115718      11.16116095      14.21447207       0.62807612      -0.10974387      -0.62030125      -0.06700321      -0.20068762      -0.06818085
H        9.70059595       3.93600922      20.15290475       0.14486602      -0.03922102       0.24979248      -0.11677499       0.08855384      -0.32252089
H        0.74728690       3.21757003      22.67601843       0.98802529       0.68751137       0.26231995       0.03550748       0.04012982       0.05021567
H       10.79838369      11.14135264      14.77150363      -0.10626185      -0.24903859       0.32520302       0.06294112       0.11730758       0.05975176
H       10.18022048       5.73269400      16.62564120       0.51000002      -0.55345319      -0.52458197       0.23148552       0.12613813      -0.27051439
H       10.64190206       5.20623106      20.94577612      -0.22189079      -0.01502208       0.12566498       0.14362091      -0.20031744       0.20724068
H        1.33850403       4.51081663      23.74993294       0.46053891      -0.78577401      -1.13592772      -0.03137956       0.08188627       0.16230766
H        8.38050622      12.19431863      15.07007561       0.33106590      -0.54403950       0.33506854      -0.13074066      -0.01377322      -0.09706948
H        8.06683397       4.66078634      16.89456994      -0.47510336       0.29536704       0.64877693       0.14193619      -0.10822255      -0.03861295
H        9.95032080       5.92447929      23.12704143      -0.71686206      -0.87213951      -0.05860568       0.00316631       0.11890292      -0.04296140
H        8.82238833      12.19552547      21.44887065       0.50927402      -0.47496233       0.08937558       0.07368170       0.04921587      -0.07192805
H        2.48982824       4.89216983      17.63969356       0.53632876       0.34141694      -0.13423963      -0.10532722      -0.08498151      -0.02889067
H        7.64426528       3.20361493      16.03044268      -0.14644457      -0.31162155      -0.23074171       0.13480957      -0.06510192      -0.09624694
H        5.14900322      10.09248338      22.36895691      -0.16613573      -0.05484305      -0.02775616      -0.03678240       0.08866917      -0.10170631
H       10.10566334      11.44889537      20.46314407      -0.13496518      -0.08224000      -0.08980257       0.03912191      -0.08062925      -0.01325504
C        2.73711880       4.19313606      15.81885359      -0.66783235      -1.78431959      -1.77237847      -0.62764480      -0.19352073      -0.49351102
C        9.53994521       4.04422503      15.68369166      -2.52268787      -1.44555412      -0.58419047       0.51053860       0.24319928       0.32229288
C        9.14630313       4.33848929      22.06300498      -0.09867670       1.33112691       1.05311301      -0.26561030      -0.72717034      -0.39503667
C        9.79236303      10.50196649      22.22243508      -0.25284255      -0.44605035       0.78139260       0.48333705       0.98851074       0.02388012
N       10.59435061      10.73436218      15.77381283       0.98552791      -0.72692667      -0.92106547      -0.98691004      -0.00520074      -0.07415400
N       10.43835649       4.90437269      15.99055252       1.48040013       2.18182201       0.69032056       0.34772788      -0.19381946       0.05043292
N        9.88259662       4.51441419      21.00008377       0.52802160      -0.60542969      -1.46182237      -0.04539015      -0.08867923       0.58573590
N        1.50275968       3.93692112      22.86056008      -1.09622425      -0.07967275       0.36701134      -0.73514976       0.83582797       0.40151237
N        8.40702090      11.58145760      15.94539424      -0.98751700      -0.48167552       0.95058088      -0.19016026      -0.68892212      -0.07426002
N        8.30499421       3.96218260      16.21182373       1.51723991       0.50595912      -0.37559987       0.21452344      -0.44289520      -0.45919495
N        4.42727894      10.76470218      22.06006152      -0.29933578      -0.08227883      -0.39599232       0.10037300       0.18648602      -0.15054509
N        9.50534256      11.41323391      21.29922917      -0.21129711       0.25996463       0.19304702      -0.24064260      -0.56704290      -0.54593477
Pb       0.35819213       7.72632318       0.13176966      -0.10739883       0.03449748       0.33227682      -0.60196460       0.14103184      -2.02752575
Pb       6.51656193       7.67437343       0.38717803       0.24800476      -0.13693235      -0.24786401       1.47448242      -3.02088840      -1.70961900
Pb      -0.00455382       1.18657122      19.08317508      -0.46107643       0.12122957       0.10792754      -1.11400271       1.98955569       0.43734835
Pb       0.02922134       7.60414180      19.17895810       0.20263494      -0.05529646      -0.19002024      -1.02942628      -2.22855170       0.10807595
I        3.10010794       7.29595496      25.04017898       0.13862475       0.02291549      -0.21590078      -1.55252702       1.93469943       1.79359359
I        9.82954960       7.58121167       0.55751088      -0.23336992       0.19255732       0.06968218      -0.04479966      -1.78349473       0.47449860
I        9.43411798       7.31637377      18.42023440       0.09801340       0.06131182       0.03314513      -0.86111712       0.91087252       0.16334411
I        3.11517644       7.86187008      19.75265438       0.13337464       0.10376762      -0.12027481      -0.33179999      -0.49961796       0.32864152
I       25.15442028       4.53633906      -0.13478384      -0.17043928      -0.24191955       0.49476983      -2.31377794       0.14777740       0.20009531
I        0.31281127      10.95262175      12.69320370       0.01008045      -0.08579476      -0.08180868      -0.99117401       0.96509258       0.78944240
I       -0.22303596      10.74903156      19.13649284      -0.17489122       0.05930028       0.14022680      -0.29238115      -0.27897740       0.12835021
I        0.59526724       4.33409853      18.90989601      -0.34303716       0.04691928       0.23939371       2.32900445      -1.73172909      -1.02184917
I       13.14877063       7.76693730      15.89492146      -0.08627948       0.06021648       0.10467316       0.78870318      -1.63318883       1.41847748
I        5.80622041       7.20816484      15.99955489       0.03111445       0.05165892       0.01025661      -0.04760782       1.18374834      -1.13280992