768
Lattice="31.52003920688824 -1.0395494997101957 0.3212732111417801 -0.9162685860741572 30.3547437254124 0.028757121508259497 0.35595936046071336 -0.14720492652102254 17.2635365134837" Properties=species:S:1:pos:R:3:forces:R:3:momenta:R:3 energy=-3645.88821495973 stress="0.0 0.0 0.0 0.0 0.0 0.0 0.0 0.0 0.0" pbc="T T T"
H        1.59991078       2.65720871       6.48771111       0.33280165       0.14971979      -0.48765625      -0.16168525      -0.05412299       0.14037153
H        3.88706168       2.39897733       5.65493419       0.14784576      -0.11480102       0.47236517       0.10379872       0.06725693       0.02652900
H        3.44232838       2.64977773       4.03500658       0.13053747       0.12056030      -1.04497612      -0.08725471      -0.02127410       0.12702882
H        1.04206305       3.37673565       3.53613491       0.34190777      -0.21130971       0.41198210      -0.06428507       0.17681785       0.14184979
H       -0.05214670       3.20859844       5.01654275       0.34231610      -0.03463155      -0.24049176       0.11322279       0.03299470      -0.14264044
H        5.23364737       6.48453556       1.95013535       0.10618952       0.01468485      -0.23905231      -0.08075683       0.10422970       0.11672611
H        4.70215206       6.47437122      -0.31486607      -0.04736847       0.33949284      -0.09035741       0.02128016      -0.04779697       0.01312403
H        5.02259602       4.79360091      -0.66986098       0.20200567      -0.19951426       0.62808496      -0.10412997      -0.04927996       0.14224215
H        5.94712073       3.51320571       1.57835747       0.11487538      -0.62611417       0.04992597       0.05172439      -0.10176216       0.16583571
H        6.03358069       4.61510465       3.12249266       0.01278112      -0.46865937      -0.30943599       0.06626587      -0.04366750       0.00258329
C        1.91004700       2.85022064       5.40632498      -1.21622284      -0.19837381       0.16695046      -0.53033409       0.13788264       0.25342932
C        5.36520225       5.50603241       1.36163090      -0.41721327       0.92637454      -0.13017856       0.13418652       0.00465432      -0.59541873
N        3.14007271       2.63258497       4.99511690       1.15657588      -0.39555942       0.83154960      -0.06973244      -0.26604765      -0.76136395
N        0.94178544       3.18779680       4.58202395      -1.42265849       0.54361000       0.25416801      -0.74511529       0.23117280       0.43649839
N        4.95952572       5.53585911       0.05954265      -0.03468966       0.20457377      -0.27896372       1.19137843      -0.65904102      -0.31335367
N        5.86411212       4.43827870       2.05298705       0.18310310      -0.16175663       0.42211370      -0.09624921       0.38246694       0.68418753
Pb       3.78272662       0.04005468       1.17358887       0.12105542       0.04645598      -0.14276653      -1.44946075      -0.09563570      -1.72478703
Pb      31.40110187      -0.53568752       1.37431268       0.05254118       0.32914014       0.18746862      -1.63063225      -2.11896803      -1.34315695
I        5.90360833       1.19958170       3.27109870       0.00111266      -0.29819614       0.37537582       0.27393752      -0.22417154      -0.52659784
I        1.59392709       6.73305344       2.82734356       0.08357343      -0.13111164       0.11198766      -1.48947823      -0.33128225      -0.56138278
I        5.81101070       1.62417554       7.69129746      -0.05938522      -0.13750927       0.02042961      -2.41827171      -1.58395203       0.32238961
I        1.43502651       6.18883881       7.22996104       0.07513673      -0.04358064       0.04132146       0.53603720       2.40074881       0.63198686
I        5.47207290       5.18943801       5.44591159       0.11169882      -0.31099935      -0.08825100      -0.54163905       0.25726897       1.71374695
I        2.33612418       2.86071740       1.45282599      -0.25063495      -0.01609843      -0.13107788      -0.45143478       1.70288898       0.56492317
H        0.75970404      11.41693195      -0.19338761       0.42061563      -0.11307727       0.28076406       0.21512943       0.15572210      -0.04710425
H        1.01754333      12.50183578       2.02556265      -0.24546569       1.67095796       0.07397995       0.04205411      -0.14586471       0.10371869
H        1.19431950      11.02468390       2.85595624       0.24974444      -0.05654489       0.07921018       0.11258419       0.12997043       0.08875129
H        1.20879032       8.84593570       1.51185993       0.23199833       0.14809235      -0.19426232      -0.05903218       0.14320564      -0.03545312
H        1.06898390       9.11238218      -0.28004422       0.06400069      -0.37568667      -0.19413674      -0.07044977       0.08291568      -0.02279219
H        5.26738123      11.24902548       5.87870796      -0.52184158      -0.16337893       0.49965639       0.01294558       0.05927326       0.11689681
H        3.40230472      12.92023571       5.65780157      -0.74989107      -0.41206078       0.70667345       0.13135085       0.07764196      -0.02342841
H        4.43716186      13.94981588       4.72832453      -0.18116511      -0.39099814       0.15801735       0.02035373      -0.01881698      -0.16118908
H        6.75566919      13.42252435       4.30191878      -0.33861668      -0.70746578       0.42792832       0.09511098       0.20645154       0.09416807
H       13.14100710      14.60733833       4.61872556      -0.06516838       0.02126804      -0.13067852       0.09962759       0.06778205       0.09813999
C        1.03066040      10.85539394       0.78483918      -0.07421762      -1.20331571      -0.99791938      -0.23167270      -0.45293295       0.01882976
C        5.34043792      12.23061943       5.35030946       0.19063828      -0.84059111      -0.43138206      -0.70769442       0.43343436      -0.71833086
N        1.13664363      11.52348479       1.94693717      -0.16532427      -1.42569398       0.80895441       0.08221209       0.24384646      -0.03986072
N        1.17415156       9.50157226       0.68558609      -0.40932884       1.12877516       0.10012618      -0.08715578      -0.37596308      -0.35665335
N        4.26734732      13.00197729       5.17276448       0.80720439       1.34615292      -0.73491427      -0.16826333      -0.24435498       0.56808126
N        6.53000391      12.47031660       4.77702576       0.33868666       1.89806235      -0.92189352      -0.55508909       0.00559233      -0.14277845
Pb       3.58479807       7.81148322       5.27924712      -0.10630124      -0.04948333      -0.15308728      -0.90697761       0.65128292      -0.21895304
Pb      31.08101950       6.40656469       5.47987689      -0.35265425       0.39127442       0.11996003      -0.92923772       0.29348769      -0.52240046
I        5.38671657       8.76944777       7.66118323      -0.20094562       0.41935456       0.06655440      -1.85633692      -0.25561419      -0.65009861
I        1.33475382      14.09349467       7.47254084       0.12414526       0.06324651       0.02765065      -0.73179847      -0.25767277      -1.12865324
I        5.59219107       9.05091882       3.05260183      -0.04847351      -0.05683474       0.29769988       0.00340798       1.56409632       1.67832677
I        0.94836735      14.69515986       3.35107455       0.18995451      -0.16292850       0.41137992       0.58293898      -0.79777495       0.66828750
I        4.98521986      12.75946105       0.80701768       0.05056466       0.04215732       0.03523550       0.87392751      -1.46389230      -0.07475081
I        1.65063375      10.17907431       5.45794892      -0.24883272       0.14026787       0.03956070      -2.19277011      -0.28942062      -2.28501107
H        8.97947935       3.37501318       4.16511630       0.33346029       0.10870077      -0.00430130       0.12841122       0.03429015       0.03917620
H        8.89650271       4.51463126       6.33433602       0.11709997       1.79903731      -0.38194273       0.04685834      -0.05532969      -0.15376685
H        9.07561460       3.11256678       7.26177833       0.17795984       0.01142339      -0.64174438      -0.11803832       0.05305616       0.08368632
H        9.26097516       0.73314026       5.73606368       0.10239767       0.65669127      -0.18290694       0.22130841      -0.16420542       0.26050742
H        9.22990326       1.18050731       4.00832739       0.06041620      -0.27210635       0.37062191       0.18991750      -0.21256264      -0.09144309
H       13.33625346       6.37184011       1.64195750      -0.65450136      -0.62789556      -0.67030717       0.12077473       0.01318080      -0.03160345
H       15.35371729       5.33726676       1.98508985       0.06567660      -0.00444747      -0.10232220       0.00234310      -0.07845160       0.03146938
H       14.96867826       3.87429565       1.00652354      -0.20355776       0.66813533       0.41114491      -0.05651539       0.11454387       0.14303497
H       12.67718094       3.72489530       0.19723045      -0.24235040      -0.73319668      -0.64859451       0.09069901       0.21167585       0.02798416
H       11.52751890       5.18473027       0.23292248       0.79604870      -0.40999689       0.15949181      -0.19547542      -0.08541564       0.01651901
C        9.11616538       2.80986305       5.14149377      -0.55984676      -0.21650149      -0.89569196      -0.87586444       0.85862876      -0.38514729
C       13.41416594       5.34239256       1.19178933       2.34386730      -0.46530667       0.65633443      -0.50621737      -0.10380503      -0.56309762
N        9.05504990       3.53373878       6.26433233      -0.12528991      -2.24609052       1.91939475       0.01881639      -0.16938296      -0.33379510
N        9.20375960       1.47466928       4.99754338       0.10354634       0.13831589      -0.15475027       0.43372584      -0.28033395       0.02110129
N       14.66804951       4.80642119       1.40435344      -2.19502155       0.14044888      -0.55660647       0.21610499       0.43183543      -0.47693264
N       12.44116283       4.68320225       0.55084418      -0.15370728       1.43908547       0.68270300       0.28961363       0.05913364      -0.51855522
Pb      11.63323611      -0.14707794       0.97211517      -0.12509110       0.26426879      -0.01539989       1.06418679      -0.53470960      -3.57920153
Pb       7.77186327       0.02170045       0.93776370      -0.06217030      -0.21097823      -0.24855144      -0.77459837       0.14247729      -1.50819215
I       13.26872458       1.22007118       3.32454801       0.09674645       0.15911603      -0.03503347      -0.41848519      -0.93071858      -0.62504508
I        9.42711984       6.47285301       3.35228421      -0.00563411      -0.17972913      -0.19378350       0.30001470       2.35271845       0.22986664
I       13.96077766       1.44271798       7.70340408       0.08880565       0.19254451       0.04164474       0.69688107      -1.25318087       3.80737903
I        9.47021710       6.73354505       7.72884936       0.02871269      -0.02702890       0.13011680       1.77436217      -0.18711838       2.41573170
I       12.98371932       4.80554942       5.15319346       0.09775109      -0.09672334       0.02214703      -0.06316488       0.44034265      -0.12934903
I        9.60537990       2.55406817       1.30121139       0.09461991      -0.14803907       0.10925600      -0.81922515       1.46040312       2.23638264
H        8.99877074      10.49151497       2.45832087      -0.09811440      -0.26968123       0.80271877       0.03435002       0.06808013       0.16914978
H        7.43510832      11.07398054       0.88763735      -0.35954932       0.03996628       0.19957714      -0.04206876      -0.04312481       0.11360608
H        8.40466200      10.47811198      -0.46211766       0.13502738       0.00551944      -0.12097366      -0.12811189       0.06666050      -0.35200477
H       10.79512837       9.57248686       0.18991724      -0.46248451      -0.07078729       0.31201276      -0.10418722      -0.05940394      -0.04956422
H       11.06461515       9.59086995       1.88901975       0.29552190      -0.30548549       0.60004254      -0.00387973       0.07549336       0.05930451
H       13.45722678      12.28544290       3.98308573       0.03616687      -0.08587057       0.46693212       0.14443238      -0.11592201      -0.14972710
H       13.98724869      10.60390804       5.75839972      -0.22184652       0.33239177      -0.46161371      -0.01620107       0.10434910      -0.01760312
H       13.89374494      11.81815934       7.05379439      -0.31764430       0.49881469      -0.30550695       0.02124034      -0.01121366       0.01796421
H       13.31721940      14.31823238       6.34836080       0.09108554      -0.17033035       0.66983512       0.15490491       0.20935354      -0.09378077
H        7.37110398      11.85062015       4.84502697       0.35691905      -0.73770447       0.41977872      -0.00167475       0.11370166      -0.24094672
C        9.22084800      10.23207251       1.41408528      -0.08112382       0.52148087       0.07416693       0.05307647       0.20312252      -0.13123424
C       13.48687746      12.57791404       5.08256081      -0.37378970       1.10815453       0.20483819      -0.13224119      -0.23784007       0.01996070
N        8.29409026      10.59846157       0.56140378       0.03632693      -0.08982139      -1.01171806      -0.48999681       0.51685029      -0.19691180
N       10.38283390       9.66990620       1.13170585       0.65648340       0.16027337      -0.91637179      -0.14533063      -0.70144442       0.44335951
N       13.68736918      11.62682117       6.01830722       0.71496651      -1.15063563       0.66145854      -0.04476885      -0.33373582      -0.66055439
N       13.25352036      13.89764762       5.38949447       0.09579467      -0.46168967      -1.35134281       0.10712193      -0.29237698       0.02745888
Pb      11.54659516       7.59402603       5.31150596      -0.25973084       0.07560753       0.21774136       1.84004781      -2.23691807       0.26304073
Pb       7.38447885       7.73031815       5.46818563       0.32460022       0.16479341      -0.24253500       0.87959505      -2.10428510       0.12166788
I       13.70289223       8.29677418       7.77776686      -0.18852230       0.19563747       0.10600850      -0.02621650      -0.54035714       1.04067862
I        9.27342682      14.11897474       7.27598623       0.12244362       0.02257600       0.00159475       1.88811105       1.99165692       1.07085584
I       13.68595096       8.90077211       3.33776813      -0.02679140       0.13993023       0.03604727      -1.13804866       1.00939543      -0.18481800
I        9.12040701      13.80985154       2.86252631      -0.02508814      -0.10229020       0.13812554      -1.77130101      -1.97048974      -1.23652862
I       13.00343812      12.87941149       0.52233428      -0.04681045       0.00237943       0.07613653      -0.12740748       1.53935948      -1.16136981
I        9.33213239      10.32373029       5.47689142       0.16762834      -0.03069098      -0.05988731      -0.30675905      -1.00162526      -1.18031340
H        1.96533702       2.17759290      15.70513611       0.21416152       0.09166960      -1.28388411       0.19229148       0.14977660       0.12196975
H        4.36975371       2.60924326      14.82434654       0.83794516      -0.58739701       0.75347741       0.05970563      -0.12047270      -0.09415388
H        3.88606416       2.69012243      13.17755325       0.36372904       0.01519718      -1.06813536      -0.04944210       0.16074061       0.00323137
H        1.27127522       2.67845557      12.73076293      -0.10436528       0.10068705       0.60309513       0.24301788       0.02092142       0.25607435
H        0.07847475       2.37617465      14.16602451      -0.29071518       0.09297213       0.09575941      -0.07623010       0.12900547       0.08575767
H        5.83588083       5.96213741      11.00575001      -0.07968816       0.02456090       0.04368208      -0.21704574       0.09223734      -0.01946263
H        5.21903853       6.53343098       8.78122589      -0.25393274       0.96204743       0.06913147       0.06486133      -0.16252086       0.10262677
H        5.04218814       4.94758759       8.21824663       0.22325543      -0.33557167       0.34439451       0.03719774       0.16189129      -0.10745992
H        6.06676700       3.30303137       9.62357784      -0.21645089      -0.50384029       0.09135432       0.07396500       0.12566992       0.05523982
H        6.20811018       3.59025786      11.40829138       0.04839673       0.22055623      -0.82671953       0.03720415       0.05021755      -0.00026243
C        2.19901194       2.41632714      14.57427053      -0.02282118       0.25767392       0.74375803       0.19958635      -0.48701439      -0.16219275
C        5.69885751       5.20095104      10.23008576      -0.33162719       0.24798652      -1.57256585       0.33712359       0.19290079      -0.09909552
N        3.57726443       2.56495486      14.14021833      -1.17981401       0.28107816       0.58614333      -0.30714977       0.10964896      -0.46301894
N        1.13372980       2.55959189      13.77311371       0.04466984      -0.31176807      -0.53771025      -0.20774587      -0.35996432      -0.16153465
N        5.21279483       5.55691338       9.03301359       0.25660301      -0.05324074       0.43901314       1.30197906       0.48236483      -0.27343666
N        6.00840138       3.95217301      10.44128891       0.46111151      -0.67623375       1.50576271       0.26322257       0.38682201      -0.35292816
Pb       3.91968872       0.05792604       9.93090158       0.19459583       0.08584069       0.13373823       1.04911543       2.29105825       1.21983981
Pb      31.52846812      -0.67355511      10.08633894      -0.10685559       0.46236048       0.09059594      -0.20055278       1.86954974      -0.57596841
I        6.34643281       0.73469126      12.22858613      -0.15462367       0.05226221      -0.20412247       1.16150216       2.07228657       0.56062819
I        1.80695150       6.59171006      11.58351950      -0.05590420      -0.00860513      -0.13387218       0.78804080       0.92106966      -1.09576148
I        6.08105024       1.77981354      16.47823835       0.03022852      -0.16844889       0.11452955      -0.05272619       2.32053460       3.01586550
I        1.61306200       5.99645233      15.96080898       0.04619499       0.14823251      -0.18780927       0.02262281       1.83456388      -0.31621816
I        5.95642522       4.95573604      13.95155116      -0.02149592      -0.05385567      -0.09835130       1.28376985       0.16207179       0.19975114
I        2.16297500       2.86593352      10.19312034       0.07743062      -0.26448974      -0.10094410       0.03383979      -0.48350007       1.07354823
H        1.03313222      11.55057287       8.82194377      -0.32265665      -0.62735819       0.08103662      -0.31941434       0.03673725       0.04008748
H        1.29799586      12.24026485      10.96647291      -0.10673733      -0.75279720       0.58601561       0.11113565      -0.06535462       0.06709721
H        1.12311565      10.50830854      11.66213911       0.19164297       0.93008287      -0.63407768      -0.09479483       0.01562457       0.04660736
H        1.47514078       8.77597677       9.97823812      -0.47069348      -0.65185974       0.39149032      -0.22124414       0.07597370       0.15867217
H        0.98646349       9.10298201       8.25313459       0.00745535       0.37497623       0.30521899      -0.06012837       0.02050370      -0.01861938
H        5.37692035      11.24148097      14.76318873       0.25561405       0.03626152      -0.11028779      -0.35256387       0.12374270      -0.00133876
H        3.94031871      12.92839714      14.93931530      -0.62701129       0.91187544       0.01369744       0.08439354       0.03912311      -0.01722141
H        4.85775111      14.11325796      13.83674917      -0.15110968       0.41101566      -0.13504682       0.08627241      -0.06071070       0.07739539
H        6.91897644      12.90049372      12.71809193       0.00067956      -0.18795845       0.39403386      -0.03898498      -0.07726931      -0.03831152
H       13.22399073      14.69810863      13.28146301       0.03539092      -0.66064720       0.32083864      -0.11294015      -0.09724585       0.15352277
C        1.04094016      10.74313438       9.58573146       0.94427307      -0.71448221      -0.29602603      -0.82779730      -0.26653233      -0.00553684
C        5.61723990      12.15914405      14.19120745      -0.13206080       0.80495601      -0.54296068      -0.22968659      -0.72108627       0.04609331
N        1.19864411      11.18110704      10.84717990      -0.29215856       0.12470526       0.15262539      -0.53561636       0.13526723      -0.18174163
N        1.06325593       9.44848074       9.23949957       0.12686391       1.10260954      -0.67925643      -1.07994420       0.28557183       0.38694381
N        4.76843684      13.23899959      14.36819533       0.86586448      -2.29163429       0.58094492      -0.45249906       0.25824488      -0.24687961
N        6.69874145      12.13833411      13.39119454      -0.11754321      -0.53849601       0.09866432      -0.50263152      -0.03760782      -0.07409747
Pb       3.81817077       7.46860800      13.94180854       0.01495079       0.09887962      -0.04770967       2.11299165      -1.22413657      -1.23637946
Pb      31.36255007       6.50463105      14.21269174      -0.07267014       0.05296130      -0.01879267      -1.11094368       0.38393630       0.18535612
I        5.48740123       8.82445260      16.26368245       0.06786520       0.06122110       0.05627823      -1.10684655      -0.96280553       0.28679920
I        1.34591650      13.87109766      16.09645181       0.30626607       0.24484795       0.14916900       0.16606129       1.81988693       1.87238462
I        5.84015210       8.75680414      11.66152315      -0.05147683      -0.02108475       0.35637273       0.38703522       3.00522344      -2.17431518
I        1.22875293      14.43049451      12.00028682      -0.11667011       0.03002510      -0.00062240       0.03707773       0.93699273      -0.05925580
I        5.21546286      12.62936398       9.20103457      -0.05593051      -0.25205063       0.09176783      -3.38971439       0.68150092      -0.29828502
I        1.99104563      10.09058960      14.31873581      -0.08784191       0.03753437      -0.17384947       0.09986820      -2.77154671       0.81901826
H        9.70117388       3.46061153      12.97625827      -0.29964686       0.54102689      -0.32987417       0.07430385      -0.04455356       0.01741737
H        9.66194995       4.04242478      15.29338688       0.04401942       0.30833819       0.03977230       0.06190216       0.05866137      -0.12724879
H        9.95626415       2.38536413      15.78310679       0.00677141      -0.01489490       0.24350522       0.02334634       0.00000764      -0.12042748
H       10.13538366       0.64561376      14.01863246      -0.12048445       1.09936679      -0.69183166       0.07245669      -0.16493137       0.03250349
H       10.03722174       1.23558923      12.35387102      -0.16996121       0.27445106       0.14893840       0.03453649       0.10579435       0.32825331
H       13.43892176       6.27375246      10.06254983       0.00047424      -0.26369072      -0.00918064       0.08536733      -0.16976460      -0.17936702
H       15.36792756       4.80983693      10.73125031       0.42221257       0.53023036       0.32119238      -0.18520776      -0.10628050       0.01889839
H       14.82091381       3.49238893       9.77518704      -0.20453849       0.15607834       0.04773633       0.03180567       0.05896364      -0.00389797
H       12.66036958       3.77234133       8.49852935       0.05218094       0.65540579       0.48337317       0.13723483      -0.02491859      -0.21605580
H       11.81018426       5.38313687       8.57134663      -0.66106884       0.39481907       0.01159921      -0.02723995       0.08629906      -0.06621459
C        9.77892463       2.70963848      13.74583943       0.92866594      -0.84142627       0.57017558      -0.16893157      -0.50211857      -0.59329848
C       13.54938282       5.20054170       9.72538142      -0.28223419      -0.04272178      -0.36079001      -0.17639426       0.07274565       0.00946003
N        9.87759490       3.07182765      15.03052571      -0.43505972      -0.21908726      -0.62197088      -0.35038621      -0.06285499       0.04462136
N        9.95736625       1.46613258      13.34924037      -0.00400956      -0.98393962       0.63209582      -0.03698280      -0.15635014       0.27335923
N       14.64199390       4.46993406      10.10457850      -0.38941723      -0.72095453      -0.40640435      -0.09121548      -0.27052863       0.38891708
N       12.58596359       4.73653755       8.92457737       0.96032774      -0.73504182      -0.16632997       0.27391658      -0.57430218      -0.22201026
Pb      11.94764693      -0.25246666       9.64867420      -0.10277904       0.19012905      -0.02643564      -1.45722980       0.69136791      -0.56756689
Pb       7.90551315      -0.28230039       9.46124797       0.21979788       0.04825175       0.19725982      -0.11130269      -2.92027276       0.54774030
I       13.57094135       1.11267318      12.14513078       0.18538000      -0.13730421      -0.51921798      -0.15922838      -0.28376299      -1.58513903
I        9.44888413       6.40676691      11.80498503       0.23611199      -0.07583899       0.18330200      -1.15756058      -1.58301041       1.19699610
I       14.11391893       1.46527429      16.50973832       0.08128392       0.07487471      -0.14713332       0.79493654       3.13002899      -2.01939081
I        9.60071468       6.44902966      16.44379100       0.12357524      -0.07615668       0.04083917      -2.01956111      -1.52789471       1.22776586
I       13.28350192       4.65492253      14.05489455       0.08529679       0.24009945      -0.12413011       1.23011846      -0.77934606       1.43370808
I        9.99260981       2.37790158       9.76487723      -0.18815373      -0.13255034      -0.08433085       1.03352192       1.05731424       1.55163162
H        9.08723633      10.40309069      11.05828701      -0.26895296       0.04980761      -0.27873484       0.17197061      -0.02134722       0.01266515
H        7.50572132      10.60837835       9.23551787      -0.30401505       0.11263156      -0.23523355      -0.01981932      -0.11662684       0.16417795
H        8.85644595      10.29856623       8.05653928      -0.81760162       0.17064027       0.05792140      -0.10591057      -0.00259995      -0.05850988
H       11.14473460       9.77042550       8.97861253      -0.10594217       0.10853370      -0.24243377      -0.07556674       0.03726253      -0.12738832
H       11.28104758       9.91650932      10.68138244       0.42305913      -0.19713408       0.81057123       0.08134175       0.00849348      -0.09428994
H       13.31576254      12.58499851      12.32500704      -0.21767661      -0.25807530       0.06692929       0.03381704       0.34311362       0.10162135
H       13.25125766      10.61396396      13.59162205      -0.04866349      -0.33711597       0.04466109       0.04665104       0.03782463      -0.07625194
H       13.23662146      11.41986741      15.14535641      -0.32273590       0.06066539       0.76054531      -0.12105979       0.16269614       0.10857659
H       13.01185194      14.01084851      14.97229130      -0.06172544      -0.24516716      -0.90932382      -0.03741986       0.08990236       0.06443132
H        7.30586471      11.24591488      13.29663111      -0.39378885       0.72800384      -0.08586865       0.01572086       0.07980580       0.01403778
C        9.36718216      10.28459013       9.99764359       2.15309999      -0.79207770       0.72129382      -0.03369925      -0.52771681      -0.35857404
C       13.15171277      12.61493690      13.43892761       0.20446458      -0.09973908       0.24389530      -0.31293438       0.34684025       0.30701661
N        8.46728528      10.36988942       9.02203602       1.32307958      -0.23266565      -0.17856630       0.55245111      -0.12254284       0.52525783
N       10.70323638      10.02445607       9.86696102      -2.45740141       0.67598420      -0.68989960       0.05947549      -0.09664546       0.05064581
N       13.04326705      11.45193227      14.15397536       0.43549609       0.52402635      -1.23116665       0.21383524       0.34743737       0.72240393
N       13.09454023      13.83157773      13.93126330       0.08382779       0.89407335       1.01584354       0.67120355       0.01805047      -0.22704842
Pb      11.61051363       7.42876484      14.04821203       0.00351553      -0.22197668      -0.03363780      -1.47644370      -1.71258592       0.61704665
Pb       7.73357137       7.66037643      14.15927876      -0.15434823      -0.00566381      -0.33913425      -2.60180199      -0.78995525       0.56297193
I       13.78645336       8.24369418      16.37529713      -0.07069778       0.17385565      -0.17647329      -1.20533954       0.64318595       0.77397137
I        9.28193086      14.03401581      15.82810288      -0.07385390       0.03977514       0.13954418       1.74215689       0.01933439      -0.04278746
I       13.60405225       8.69579432      11.76919745       0.03887719      -0.05085209       0.09688132      -2.09546215       1.01188895      -1.83589499
I        9.40090239      13.61429122      11.63573167       0.19526891       0.08885826      -0.24602497      -1.21809296       1.35087901       0.37050811