768
Lattice="25.244031463055336 -0.051139010145229986 -0.15563925591508607 -0.008975214029691772 25.575374942549175 -0.11406019386377196 -0.3474594723078396 -0.009706484009668169 25.26731789926129" Properties=species:S:1:pos:R:3:forces:R:3:momenta:R:3 pbc="T T T"
H       10.96588252       9.42992664       5.24677743      -0.37631994      -0.03531344       0.19453123      -0.08127908      -0.03602843      -0.08351653
H       10.37187545       3.41850328       2.85261619      -0.08224797       0.10918428       0.15721915      -0.00822339       0.02528886      -0.17911203
H        9.53960445       2.74117663      10.27957984      -0.18650785       0.00833306      -0.31018500      -0.02213794       0.06093515       0.12709553
H       11.34624869       9.47138640      10.45072606      -1.32111683       0.54400400       0.29295766      -0.07094807      -0.02272368      -0.07250823
H       12.62438411       9.45650755       3.64361730      -0.73964130       1.00995513      -0.00915479      -0.09342497       0.00845678      -0.14202352
H       12.09067278       4.81433786       3.70815497      -0.17719364       0.17239912       0.33453446       0.15562685       0.06415170      -0.11820742
H        2.80284760      10.70222653      11.11700531       0.12100893       0.39603444      -0.43034376       0.11495896       0.13304930       0.05000989
H        9.84614967      10.00905066      12.40226953       0.00958815       0.52310917      -1.06228485      -0.16348233       0.04186838      -0.02803291
H        5.06296562       4.72236496       2.73593366       0.52667546       0.60356639       0.08155999       0.07161232      -0.09988880       0.24420230
H        3.53841270      11.71357498       3.43966451      -0.68892567       0.47987620       0.00422000      -0.15395825      -0.01470798      -0.01981029
H        3.76568543      11.81514629      10.01138518      -0.26963498       0.17060515       0.04065397      -0.17337768      -0.09409175      -0.12867567
H        8.99956386      11.28160836      11.36997005       0.01905497       0.04459592       0.15736283      -0.03799417       0.09856694       0.21145811
H        5.03151399       5.16616725       5.23625294      -0.16448047      -0.18739841      -0.28770890      -0.07757329       0.15090628       0.01890144
H        3.13199909      11.01209674       5.80227823       0.23948824      -0.34409169      -0.21546606       0.14525163       0.01743083       0.10182978
H        5.97710429      11.18760992       9.47082677      -0.07438186      -0.63825206       0.49946034      -0.02549295      -0.11708386      -0.14278148
H        5.07143123       5.12259623      10.92705023      -0.10524251      -0.06960984       0.03070813       0.11836491       0.16549095       0.31461198
H        9.04886893      10.84118038       5.06309471       0.62042913      -0.10373698      -0.62912458      -0.01420750       0.15897503       0.10444592
H        4.03516361       9.61756885       6.35076488      -0.09278600       0.18826320      -0.51362062      -0.03677634       0.17759798      -0.06176431
H        9.58211523       4.51527387      11.83039222       0.18376868      -0.09056836      -0.35636630       0.13728128       0.04093103       0.13655705
H        5.83027632       4.19996050       9.63294512       0.22411818      -0.14175444       0.13003939       0.04563347      -0.10704682       0.26594837
C       10.86453145      10.15109894       4.40586071      -0.45806775      -0.07366477       0.36564559      -0.35398810      -0.11993898       0.07408743
C        4.34312148      10.10857070       4.36802776       0.82884936      -1.28983546       0.43048744      -0.30962203      -0.47710662       0.19827058
C        4.56575610       9.95848153      10.51430651       1.78243695       0.23201992      -0.13255185      -0.12547441       0.07919055      -0.05128024
C        3.88585240       3.67191866       9.97966777       1.98494313       1.31713012       0.01510251      -0.11852008       0.60337252       0.06752987
N        4.30070165       4.08554710       2.87598163      -0.36510926      -0.95110943      -0.16790260       0.55859819      -0.01195930       0.54624891
N        4.10321158      10.87274848       3.34198554      -0.27662898       0.39477181       0.26331509      -0.05889041      -0.53708774       0.36711093
N        3.63758574      10.91910128      10.53439596      -0.89511258      -0.52545404       0.71480329       0.58406831      -0.25226421       0.78794338
N        9.76126325      10.55638692      11.47200636       0.39430409      -0.83140343      -0.91476696       0.29717514       0.44273781       0.27083433
N        4.23285840       4.49485268       5.21297482       0.08603200       0.22189636       0.23915397      -0.33367921       0.20061698       0.31968533
N        3.76272465      10.22449153       5.54026154      -0.03740082       0.26007660       0.54615400       0.95225300      -0.12058518      -0.86392306
N       10.09243422       4.69556175      10.93757929       0.09319558      -0.55077416      -0.02706626      -0.08796588      -0.01094806       0.05002641
N        5.06131454       4.31517636      10.29494264      -1.44240883      -1.34838528      -0.77043556       0.20876801      -0.15396520       0.44381330
Pb       6.93068669       0.88391991      13.76229193       0.16984753       0.03417703      -0.36285792       0.29413138       0.93876103       0.86005046
Pb       0.69865156       0.96591957      13.72440649       0.18892406      -0.08613950      -0.13123099       1.29781401      -0.76903302      -0.37929634
Pb       7.29099916       7.32351010       7.41999226       0.03325112      -0.14264047      -0.23766375       0.69704916      -0.35920162      -0.94274417
Pb       7.31889874       0.91000045       7.19301279       0.27208016      -0.16275232       0.07249843       0.07964247       0.68136086      -3.43033522
I       10.35813753       0.50504461      14.27925393      -0.47511857       0.01868661      -0.04068421      -0.21281077      -0.48779811       1.64428178
I        3.90617739      14.33164625      12.86274532       0.16500083      -0.18743446       0.01465924      -2.23112544      -1.19471521       1.05210754
I        4.27679669       0.46982252       7.75762476      -0.39650105       0.02132242       0.09710256       0.06357871      -0.65597062      -0.27696840
I       10.45463442       0.82148960       6.35642460       0.22099112       0.14754363       0.30110185      -0.05203631       0.25989833       0.12621942
I        6.72474594      10.41847384      13.61823526      -0.07536356       0.09644666       0.09851526      -0.04956055       2.66142033       0.78688095
I        7.78861464       4.04797756       0.80413412      -0.07450073      -0.00366477       0.18040429      -1.23028146      -3.31862460       2.09994500
I        7.01283164       3.89636618       7.30311208       0.00757423       0.37795398       0.10157340       0.26705893       1.55172828       2.08114794
I        7.16198271      10.35900239       6.75596065       0.18365977       0.03197543       0.02684591      -2.57048090       0.57883630       0.12023700
I        6.40473509      13.79635909       3.95699568       0.11388260       0.10345164       0.25467654      -1.31960431      -1.40505290      -0.23193796
I        1.40404885       0.63840945       3.98140337       0.20897221       0.02850351       0.48644443       1.84237470       0.71935289      -2.12204320
I        0.24960053       1.16612810      10.37966884       0.02818073      -0.01356519      -0.02357255       0.32504021      -0.25448261      -0.05523895
I        7.70712039       0.50927547      10.42855467       0.06920714       0.01822243      -0.12674018       0.06213078      -1.91001992       1.61998158
H        2.95814673       3.18552991       4.14238741      -0.52631771      -0.61877810       0.16963433      -0.26860698      -0.17903153       0.12345603
H        5.08795535       9.27008585       4.23027490      -0.79161357       0.71756041       0.12208240       0.03406461      -0.22015113      -0.07931390
H        4.47259015       8.96679683      11.05746420      -0.44758524       0.00863756      -0.10456984       0.13898795       0.01523740       0.11777022
H        3.90789455       2.83477191       9.23977993       0.10694225       0.56190554       0.38123250      -0.08761525      -0.00431139      -0.19165953
H        4.07037150       3.50098080       2.03076337      -0.20695555       0.17449472       0.54404981      -0.00623979      -0.09490816       0.14667463
H        4.62977195      10.78854199       2.50287357       0.77147351      -0.29395872      -0.85459023      -0.09464355       0.02251480       0.06808824
H       10.60237260       3.10894302       8.12539614      -0.08082451      -0.06942265       0.39343154      -0.05534310       0.14532078       0.10002293
H        1.81605428       3.48462587      10.18933168       0.46737117       0.31927322       0.44642443       0.08467012      -0.10952450      -0.19684679
H       11.94258553      10.83482696       2.76353235      -0.10686253      -0.09470368       0.16312330       0.15406063       0.15127018      -0.02959422
H       11.10929662       5.24604019       5.29197437       0.57910912       0.08835576      -0.28785542       0.10571677      -0.11253128      -0.15044856
H       11.24525312       4.64790412       8.60021537       0.27420761       0.49551976       0.00033166       0.01479082       0.04181398      -0.16031900
H        2.57265558       4.78179658      11.16175389       0.12234237      -0.07058559       0.02279823      -0.15347671      -0.22988198      -0.27304157
H        9.62800775      11.52805685       3.44634437       0.18288527      -0.53724095       0.60276301      -0.00642005       0.08157611      -0.12325899
H        8.98761466       4.19969433       5.53953711      -0.77492905       0.01888112       0.36865970       0.09488833       0.05305130      -0.11742156
H       10.70628296       5.53136261      10.87570356      -0.25725231      -0.07231463      -0.16862769      -0.06602032       0.02548369      -0.01865252
H        9.84183681      11.72221195       9.09471969      -0.37849778       0.29897170       0.02684240       0.03022564      -0.00422457       0.09941092
H        3.66685826       4.46850132       6.05821221      -0.16289190      -0.26259564       0.12108225       0.15041657       0.01031617       0.11759605
H        8.41685923       3.05760966       4.08742459       0.13677411       0.88906775       0.69758074      -0.02629784      -0.16277029       0.08252260
H        6.45754369       9.42703001       9.92001589      -0.25701855       0.18637985       0.03760660       0.05009834      -0.05655953      -0.14406280
H       11.18783254      10.82975141       8.46339872       0.07915060      -0.50841435       0.21327801      -0.13148517       0.03025317      -0.14870120
C        3.79269241       3.86635210       4.09732498       0.87217272       1.08665297      -0.74383449      -0.04040469       0.67662408      -0.04873100
C       10.24805117       3.94897198       3.87969846      -0.11682565      -0.09064587       0.00294592      -0.37581557       0.07106270      -0.22533487
C       10.07555463       3.71194206      10.01110597      -0.18305214       0.69525898       1.43464685       0.44252584       1.04421683      -0.34619979
C       10.47142934      10.22472439      10.35385540       1.70248565       0.23495036       0.69200975       0.47436949      -0.45549348       0.15031647
N       11.89955756      10.24392552       3.62489490       2.14647093      -0.97226741      -0.84572751      -0.30190455       0.01507957      -0.43237974
N       11.27712626       4.68996146       4.36512670      -0.94890346      -0.45583419      -0.17299232       0.12774668      -0.28089862       0.21132771
N       10.65478709       3.84768661       8.84844372       0.04195393      -0.63545298      -0.97781783      -0.27504076       0.62747138       0.64310206
N        2.72469883       3.97832320      10.53185277      -1.48010373      -0.50710550      -0.07580999       0.20465225       0.36273339      -0.47018234
N        9.75830003      10.84112997       4.25151488      -1.26256179       0.76934636       0.12325792       0.64574277       0.37586148      -0.52119930
N        9.08485928       3.77158631       4.56004883       1.45804868      -0.92103332      -1.59097892      -0.23453395       0.01682560       0.14539924
N        5.74583587      10.20329319       9.93515969      -0.26826010       0.34139412      -0.33103509      -0.29908214       0.33398483       0.26659110
N       10.44843171      10.90563050       9.18881040      -0.48757156      -0.29477257       0.72485573      -0.03844546       0.70772865       0.07223684
Pb       1.16614054       7.27223932      13.80423940      -0.19792147       0.10181601      -0.13365703       2.30724845      -0.13448248       2.99276661
Pb       7.43476777       7.33520499      13.71892591      -0.23550056      -0.20812342       0.21751546       0.97030533       2.11319360       0.66709745
Pb       1.04495509       0.96613398       7.48593701      -0.25711940      -0.06843325      -0.35437123       2.52827488      -0.06884786      -0.77596065
Pb       1.02039630       7.35036720       7.49915411      -0.15980231       0.01417264       0.10158020       1.29517580       2.44202138      -2.65426558
I        4.01567939       6.69105818      12.80445084       0.37553535       0.09885245       0.12199417       0.93247008       0.60655295      -0.56464549
I       10.48530884       7.71156160      14.03660046      -0.28777703       0.03373809      -0.03734089       1.46014665       1.29258334       1.87544597
I       10.36988611       7.05109157       6.60755145       0.00938545       0.05494423       0.29567379       2.33592634      -1.91209595       0.69004345
I        4.06182315       7.58449763       7.92913174       0.15529739      -0.20225226       0.11658713       1.73814520      -1.07456674      -3.74866336
I        0.57303147       4.18108252      14.00394667      -0.12447694      -0.19289360      -0.03333450      -1.70769303      -1.06447774      -0.71337015
I        1.30819705      10.46973896       0.71712660       0.10117840       0.22472120      -0.21218953      -1.10118839      -0.22409495      -0.46932455
I        0.79729266      10.50871090       7.27703133      -0.06143404       0.16147884       0.13712493      -0.47730385       2.12100777       0.63667767
I        1.10871324       4.18210352       7.21664094       0.13964034      -0.20504722      -0.08645628       2.87764017      -0.00399427       1.24288486
I       14.23936136       7.32834883       4.34860486      -0.05646719       0.05524717      -0.45707836       2.92767407      -0.71498779       0.02963865
I        6.82489139       7.01776882       4.23505601      -0.10945426      -0.07709159      -0.09525100       0.70862327       0.62193861       0.47187046
I        7.61762605       7.26657553      10.56352315       0.18359948       0.02867614      -0.16304462       1.53392187       0.85644307      -0.80528919
I       -0.06879772       7.18718225      10.59387134       0.32118280      -0.07788515       0.06544677       0.17866528      -0.80511004       1.76720416
H       10.79215278       9.42507340      17.88043638      -0.37631994      -0.03531344       0.19453123      -0.08127908      -0.03602843      -0.08351653
H       10.19814571       3.41365004      15.48627514      -0.08224797       0.10918428       0.15721915      -0.00822339       0.02528886      -0.17911203
H        9.36587471       2.73632339      22.91323879      -0.18650785       0.00833306      -0.31018500      -0.02213794       0.06093515       0.12709553
H       11.17251895       9.46653316      23.08438501      -1.32111683       0.54400400       0.29295766      -0.07094807      -0.02272368      -0.07250823
H       12.45065437       9.45165431      16.27727625      -0.73964130       1.00995513      -0.00915479      -0.09342497       0.00845678      -0.14202352
H       11.91694304       4.80948462      16.34181392      -0.17719364       0.17239912       0.33453446       0.15562685       0.06415170      -0.11820742
H        2.62911786      10.69737329      23.75066426       0.12100893       0.39603444      -0.43034376       0.11495896       0.13304930       0.05000989
H        9.67241993      10.00419742      25.03592848       0.00958815       0.52310917      -1.06228485      -0.16348233       0.04186838      -0.02803291
H        4.88923588       4.71751172      15.36959261       0.52667546       0.60356639       0.08155999       0.07161232      -0.09988880       0.24420230
H        3.36468296      11.70872174      16.07332346      -0.68892567       0.47987620       0.00422000      -0.15395825      -0.01470798      -0.01981029
H        3.59195569      11.81029305      22.64504413      -0.26963498       0.17060515       0.04065397      -0.17337768      -0.09409175      -0.12867567
H        8.82583412      11.27675512      24.00362900       0.01905497       0.04459592       0.15736283      -0.03799417       0.09856694       0.21145811
H        4.85778425       5.16131401      17.86991189      -0.16448047      -0.18739841      -0.28770890      -0.07757329       0.15090628       0.01890144
H        2.95826935      11.00724350      18.43593718       0.23948824      -0.34409169      -0.21546606       0.14525163       0.01743083       0.10182978
H        5.80337455      11.18275668      22.10448572      -0.07438186      -0.63825206       0.49946034      -0.02549295      -0.11708386      -0.14278148
H        4.89770149       5.11774299      23.56070918      -0.10524251      -0.06960984       0.03070813       0.11836491       0.16549095       0.31461198
H        8.87513919      10.83632714      17.69675366       0.62042913      -0.10373698      -0.62912458      -0.01420750       0.15897503       0.10444592
H        3.86143387       9.61271561      18.98442383      -0.09278600       0.18826320      -0.51362062      -0.03677634       0.17759798      -0.06176431
H        9.40838549       4.51042063      24.46405117       0.18376868      -0.09056836      -0.35636630       0.13728128       0.04093103       0.13655705
H        5.65654658       4.19510726      22.26660407       0.22411818      -0.14175444       0.13003939       0.04563347      -0.10704682       0.26594837
C       10.69080171      10.14624570      17.03951966      -0.45806775      -0.07366477       0.36564559      -0.35398810      -0.11993898       0.07408743
C        4.16939174      10.10371746      17.00168671       0.82884936      -1.28983546       0.43048744      -0.30962203      -0.47710662       0.19827058
C        4.39202636       9.95362829      23.14796546       1.78243695       0.23201992      -0.13255185      -0.12547441       0.07919055      -0.05128024
C        3.71212266       3.66706542      22.61332672       1.98494313       1.31713012       0.01510251      -0.11852008       0.60337252       0.06752987
N        4.12697191       4.08069386      15.50964058      -0.36510926      -0.95110943      -0.16790260       0.55859819      -0.01195930       0.54624891
N        3.92948184      10.86789524      15.97564449      -0.27662898       0.39477181       0.26331509      -0.05889041      -0.53708774       0.36711093
N        3.46385600      10.91424804      23.16805491      -0.89511258      -0.52545404       0.71480329       0.58406831      -0.25226421       0.78794338
N        9.58753351      10.55153368      24.10566531       0.39430409      -0.83140343      -0.91476696       0.29717514       0.44273781       0.27083433
N        4.05912866       4.48999944      17.84663377       0.08603200       0.22189636       0.23915397      -0.33367921       0.20061698       0.31968533
N        3.58899491      10.21963829      18.17392049      -0.03740082       0.26007660       0.54615400       0.95225300      -0.12058518      -0.86392306
N        9.91870448       4.69070851      23.57123824       0.09319558      -0.55077416      -0.02706626      -0.08796588      -0.01094806       0.05002641
N        4.88758480       4.31032312      22.92860159      -1.44240883      -1.34838528      -0.77043556       0.20876801      -0.15396520       0.44381330
Pb       7.10441643       0.88877315       1.12863298       0.16984753       0.03417703      -0.36285792       0.29413138       0.93876103       0.86005046
Pb       0.87238130       0.97077281       1.09074754       0.18892406      -0.08613950      -0.13123099       1.29781401      -0.76903302      -0.37929634
Pb       7.11726942       7.31865686      20.05365121       0.03325112      -0.14264047      -0.23766375       0.69704916      -0.35920162      -0.94274417
Pb       7.14516900       0.90514721      19.82667174       0.27208016      -0.16275232       0.07249843       0.07964247       0.68136086      -3.43033522
I       10.53186727       0.50989785       1.64559498      -0.47511857       0.01868661      -0.04068421      -0.21281077      -0.48779811       1.64428178
I        4.07990713      14.33649949       0.22908637       0.16500083      -0.18743446       0.01465924      -2.23112544      -1.19471521       1.05210754
I        4.10306695       0.46496928      20.39128371      -0.39650105       0.02132242       0.09710256       0.06357871      -0.65597062      -0.27696840
I       10.28090468       0.81663636      18.99008355       0.22099112       0.14754363       0.30110185      -0.05203631       0.25989833       0.12621942
I        6.89847568      10.42332708       0.98457631      -0.07536356       0.09644666       0.09851526      -0.04956055       2.66142033       0.78688095
I        7.61488490       4.04312432      13.43779307      -0.07450073      -0.00366477       0.18040429      -1.23028146      -3.31862460       2.09994500
I        6.83910190       3.89151294      19.93677103       0.00757423       0.37795398       0.10157340       0.26705893       1.55172828       2.08114794
I        6.98825297      10.35414915      19.38961960       0.18365977       0.03197543       0.02684591      -2.57048090       0.57883630       0.12023700
I        6.23100535      13.79150585      16.59065463       0.11388260       0.10345164       0.25467654      -1.31960431      -1.40505290      -0.23193796
I        1.23031911       0.63355621      16.61506232       0.20897221       0.02850351       0.48644443       1.84237470       0.71935289      -2.12204320
I        0.07587079       1.16127486      23.01332779       0.02818073      -0.01356519      -0.02357255       0.32504021      -0.25448261      -0.05523895
I        7.53339065       0.50442223      23.06221362       0.06920714       0.01822243      -0.12674018       0.06213078      -1.91001992       1.61998158
H        2.78441699       3.18067667      16.77604636      -0.52631771      -0.61877810       0.16963433      -0.26860698      -0.17903153       0.12345603
H        4.91422561       9.26523261      16.86393385      -0.79161357       0.71756041       0.12208240       0.03406461      -0.22015113      -0.07931390
H        4.29886041       8.96194359      23.69112315      -0.44758524       0.00863756      -0.10456984       0.13898795       0.01523740       0.11777022
H        3.73416481       2.82991867      21.87343888       0.10694225       0.56190554       0.38123250      -0.08761525      -0.00431139      -0.19165953
H        3.89664176       3.49612756      14.66442232      -0.20695555       0.17449472       0.54404981      -0.00623979      -0.09490816       0.14667463
H        4.45604221      10.78368875      15.13653252       0.77147351      -0.29395872      -0.85459023      -0.09464355       0.02251480       0.06808824
H       10.42864286       3.10408978      20.75905509      -0.08082451      -0.06942265       0.39343154      -0.05534310       0.14532078       0.10002293
H        1.64232454       3.47977263      22.82299063       0.46737117       0.31927322       0.44642443       0.08467012      -0.10952450      -0.19684679
H       11.76885579      10.82997372      15.39719130      -0.10686253      -0.09470368       0.16312330       0.15406063       0.15127018      -0.02959422
H       10.93556688       5.24118695      17.92563332       0.57910912       0.08835576      -0.28785542       0.10571677      -0.11253128      -0.15044856
H       11.07152338       4.64305088      21.23387432       0.27420761       0.49551976       0.00033166       0.01479082       0.04181398      -0.16031900
H        2.39892584       4.77694334      23.79541284       0.12234237      -0.07058559       0.02279823      -0.15347671      -0.22988198      -0.27304157
H        9.45427801      11.52320361      16.08000332       0.18288527      -0.53724095       0.60276301      -0.00642005       0.08157611      -0.12325899
H        8.81388492       4.19484109      18.17319606      -0.77492905       0.01888112       0.36865970       0.09488833       0.05305130      -0.11742156
H       10.53255322       5.52650937      23.50936251      -0.25725231      -0.07231463      -0.16862769      -0.06602032       0.02548369      -0.01865252
H        9.66810707      11.71735871      21.72837864      -0.37849778       0.29897170       0.02684240       0.03022564      -0.00422457       0.09941092
H        3.49312852       4.46364808      18.69187116      -0.16289190      -0.26259564       0.12108225       0.15041657       0.01031617       0.11759605
H        8.24312949       3.05275642      16.72108354       0.13677411       0.88906775       0.69758074      -0.02629784      -0.16277029       0.08252260
H        6.28381395       9.42217677      22.55367484      -0.25701855       0.18637985       0.03760660       0.05009834      -0.05655953      -0.14406280
H       11.01410280      10.82489817      21.09705767       0.07915060      -0.50841435       0.21327801      -0.13148517       0.03025317      -0.14870120
C        3.61896267       3.86149886      16.73098393       0.87217272       1.08665297      -0.74383449      -0.04040469       0.67662408      -0.04873100
C       10.07432143       3.94411874      16.51335741      -0.11682565      -0.09064587       0.00294592      -0.37581557       0.07106270      -0.22533487
C        9.90182489       3.70708882      22.64476492      -0.18305214       0.69525898       1.43464685       0.44252584       1.04421683      -0.34619979
C       10.29769960      10.21987115      22.98751435       1.70248565       0.23495036       0.69200975       0.47436949      -0.45549348       0.15031647
N       11.72582782      10.23907228      16.25855385       2.14647093      -0.97226741      -0.84572751      -0.30190455       0.01507957      -0.43237974
N       11.10339652       4.68510822      16.99878565      -0.94890346      -0.45583419      -0.17299232       0.12774668      -0.28089862       0.21132771
N       10.48105735       3.84283337      21.48210267       0.04195393      -0.63545298      -0.97781783      -0.27504076       0.62747138       0.64310206
N        2.55096909       3.97346996      23.16551172      -1.48010373      -0.50710550      -0.07580999       0.20465225       0.36273339      -0.47018234
N        9.58457029      10.83627673      16.88517383      -1.26256179       0.76934636       0.12325792       0.64574277       0.37586148      -0.52119930
N        8.91112954       3.76673307      17.19370778       1.45804868      -0.92103332      -1.59097892      -0.23453395       0.01682560       0.14539924
N        5.57210613      10.19843995      22.56881864      -0.26826010       0.34139412      -0.33103509      -0.29908214       0.33398483       0.26659110
N       10.27470197      10.90077726      21.82246935      -0.48757156      -0.29477257       0.72485573      -0.03844546       0.70772865       0.07223684
Pb       1.33987028       7.27709256       1.17058045      -0.19792147       0.10181601      -0.13365703       2.30724845      -0.13448248       2.99276661
Pb       7.60849751       7.34005823       1.08526696      -0.23550056      -0.20812342       0.21751546       0.97030533       2.11319360       0.66709745
Pb       0.87122535       0.96128074      20.11959596      -0.25711940      -0.06843325      -0.35437123       2.52827488      -0.06884786      -0.77596065
Pb       0.84666656       7.34551396      20.13281306      -0.15980231       0.01417264       0.10158020       1.29517580       2.44202138      -2.65426558
I        4.18940913       6.69591142       0.17079189       0.37553535       0.09885245       0.12199417       0.93247008       0.60655295      -0.56464549
I       10.65903858       7.71641484       1.40294151      -0.28777703       0.03373809      -0.03734089       1.46014665       1.29258334       1.87544597
I       10.19615637       7.04623833      19.24121040       0.00938545       0.05494423       0.29567379       2.33592634      -1.91209595       0.69004345
I        3.88809341       7.57964439      20.56279069       0.15529739      -0.20225226       0.11658713       1.73814520      -1.07456674      -3.74866336
I        0.74676121       4.18593576       1.37028772      -0.12447694      -0.19289360      -0.03333450      -1.70769303      -1.06447774      -0.71337015
I        1.13446731      10.46488572      13.35078555       0.10117840       0.22472120      -0.21218953      -1.10118839      -0.22409495      -0.46932455
I        0.62356292      10.50385766      19.91069028      -0.06143404       0.16147884       0.13712493      -0.47730385       2.12100777       0.63667767
I        0.93498350       4.17725028      19.85029989       0.13964034      -0.20504722      -0.08645628       2.87764017      -0.00399427       1.24288486
I       14.06563162       7.32349559      16.98226381      -0.05646719       0.05524717      -0.45707836       2.92767407      -0.71498779       0.02963865
I        6.65116165       7.01291558      16.86871496      -0.10945426      -0.07709159      -0.09525100       0.70862327       0.62193861       0.47187046