768
Lattice="31.52003920688824 -1.0395494997101957 0.3212732111417801 -0.9162685860741572 30.3547437254124 0.028757121508259497 0.35595936046071336 -0.14720492652102254 17.2635365134837" Properties=species:S:1:pos:R:3:forces:R:3:momenta:R:3 pbc="T T T"
H        0.73899959       3.30288094       6.71581791      -0.78887059       0.16510082       1.19635964      -0.03081722       0.03034406       0.01658431
H        2.74425745       2.00972767       6.52410107      -0.57450440       0.31770898      -0.83091738       0.07322438      -0.07140317       0.23674832
H        2.50103609       1.65110135       4.75288038       0.48766978       0.07201862      -0.34563854       0.02583811      -0.13310368      -0.21914972
H        0.52247280       2.74938530       3.63564839       0.07522506       0.06577123       0.79023117       0.11981429       0.06968326      -0.12398365
H       30.84523446       2.46354729       5.07601728       0.01067980       0.21377655       0.00167032       0.24324419      -0.02707309      -0.07654716
H        4.81221880       6.04957774       2.25080635      -0.56908382      -0.05171122      -0.46569786      -0.10853945      -0.11970256       0.09592359
H        5.11983041       6.65356723      17.18481168       0.03537394      -0.53111524       0.07188838       0.03719455      -0.16196460      -0.07873342
H        5.32519234       5.04979504      16.57019510      -0.35495837      -0.77329393      -0.92165660       0.11251336       0.13011649       0.11366748
H        5.03805478       3.31003094       1.04341112      -0.28785140       0.05433075       0.13411855       0.10481468       0.07474830      -0.09806949
H        4.75612833       3.88654386       2.78365172       0.26006955      -0.33525262      -0.15192457       0.21157414       0.07354861       0.04193770
C        1.02087418       2.90742152       5.73100330       1.15509278      -0.24209232      -1.70848824      -0.45759560       0.26757044      -0.87917844
C        4.75244759       5.33793569       1.39952725       0.40888021       0.07244332      -0.01850321       0.41423331       0.97460867       0.57742438
N        2.19817674       2.23783318       5.65572623       0.10293036      -0.44247162       1.12129479       0.00932031       0.15684593      -0.23583464
N        0.28952806       3.15236082       4.64220356      -0.41785069      -0.36390386      -0.32372978       0.78076966       0.31163549      -0.11884129
N        4.72248155       5.77117265       0.13240671       0.32327192       1.78122727       0.79927757      -0.01516425       0.15914276       0.23208360
N        4.83890149       4.07319894       1.74598516       0.24852254      -0.30183548       0.59701071      -0.76853553      -0.12464201       0.02308885
Pb       2.25495844      30.18030903       1.21660546      -0.29119354       0.29505738       0.14975644       1.45473475       1.40264923      -2.00765754
Pb      30.53233174      -0.92340985       1.51483699       0.21397052       0.29101471       0.20165926      -4.31485440      -0.50484844       0.02005400
I        5.16879859       0.94681176       3.64477561       0.09661313      -0.22239940      -0.19708364       0.31646182       0.34907615      -1.26730185
I        1.11688218       6.40796859       2.74162686       0.24452654       0.06840109       0.06334050       0.96682070       0.59670121       1.37526243
I        5.36231451       1.18792948       7.79148850      -0.04803202       0.09582639      -0.09580277      -2.30637001      -0.05789428      -0.58540625
I        1.15042619       5.86543362       7.05260399       0.10805274       0.10401684       0.37205664      -0.07349731      -0.41118819      -0.74685424
I        5.23332877       4.90349670       5.26724324      -0.07308221       0.11458847       0.05409684       0.51247679       2.03928429       0.02276059
I        1.15067699       2.54410707       0.95881849       0.18675968      -0.02049746       0.14578969      -1.08962807      -1.47555035       2.36375475
H        0.44544125      11.19677679       0.13747654       0.38514811       0.01374396       0.42409865      -0.01166941      -0.02726583      -0.12340015
H        0.55955631      11.90855234       2.33098484      -0.21308009       0.42224059       0.18520288       0.08590102      -0.23940025       0.15451493
H        0.99234701      10.37156221       3.02327311       0.09461533      -0.19702900       0.11830604       0.17389005      -0.03392050      -0.03047803
H        1.59937681       8.49319369       1.12054178      -0.13535405       0.07235631       0.30177107       0.11942039      -0.10564127      -0.01480662
H        1.60263926       9.03828712      16.78493477      -0.01055862       0.05129115      -0.16718969      -0.08478927       0.06269481      -0.01603206
H        4.15597005      11.67968721       6.78560738       0.21625074       0.68934431      -0.63204616       0.01070392      -0.10499941      -0.10334809
H        2.39065249      13.00244959       5.70393191       0.34081861       0.44555846      -0.55588469       0.00300675       0.02349102      -0.22482021
H        3.41750510      13.75949253       4.44111305       0.02967370       0.31923047      -0.34359553      -0.14751670      -0.27901004      -0.10881112
H        5.82183281      12.81636240       4.43376361      -0.13068384       0.27204805       0.01426812       0.15300483      -0.12839777       0.08039205
H       12.27640111      14.32519923       5.40008571       0.18344624      -0.59166307      -0.00723772       0.17093743      -0.06797614      -0.01985756
C        0.85943908      10.49360785       0.97193220      -0.69425527       0.76054829      -2.15396048       0.07105892       0.00748493       0.37739600
C        4.31819030      12.32417275       5.81119890       1.80749555      -0.60504782      -0.48768794       0.10233595      -0.21401449      -0.19811505
N        0.73394247      10.91656445       2.17468287       0.17637800       0.04088349       1.33321365       0.17732390      -0.07211571      -0.15567176
N        1.29012565       9.32583118       0.53896288       0.29765865      -1.33734215      -0.07770946       0.58153155      -0.61523434      -0.20676830
N        3.26574546      13.02976104       5.14467050      -0.61191545      -0.82427690       1.24831739       0.25029275       0.28615720       0.32365868
N        5.59896736      12.30478140       5.36435870      -0.43938741      -0.84362102       0.72958014       0.33247663       0.27194220       0.42372363
Pb       3.13480826       7.49282172       5.14424496       0.07985240      -0.12008636      -0.05862831      -1.37011048      -1.06541798      -0.42999582
Pb      30.74421735       6.35623114       5.54373237      -0.32984329       0.20783596       0.01433726       1.64543061      -0.02591370      -0.07500417
I        4.93432392       8.97967944       7.46314567       0.00696215      -0.03321639       0.04678983       2.06059450      -1.02550063      -2.13186034
I        0.80229477      13.98463093       7.68471476      -0.08429497      -0.16041047      -0.00799851       0.23057230      -0.83194847      -0.30829926
I        5.23941484       8.96931790       3.19300533      -0.06699382      -0.04446578      -0.17356826      -1.18759238       1.61042748       0.78079397
I        0.58663883      14.09936941       3.58875901      -0.11378820       0.23772012      -0.18761563       0.61273590      -0.63089443      -0.81103789
I        4.46596985      12.37990179       1.29904281       0.20646905       0.00885569      -0.03965493       0.99567741       0.65185945       1.55316901
I        1.17674944       9.96115648       5.68436522       0.06424801       0.23068820      -0.14658828       0.14741979       0.45403135       0.23834997
H        9.35987632       3.23432218       4.62646751       0.12351600      -0.09650695       0.06391331       0.02800003      -0.11192375       0.06429658
H        8.76002178       4.13423549       6.77217496       0.12901872      -0.68777179      -0.26039053      -0.06719410      -0.00594167      -0.07261558
H        8.69713706       2.50412900       7.49214928      -0.17559665       0.52994875      -0.21662449      -0.00150397       0.01160500       0.06300688
H        9.14601437       0.53043722       5.97161067      -0.05549360      -0.15651201      -0.00019410      -0.02233043      -0.10144037      -0.03394309
H        9.46603563       0.90057065       4.29531605       0.14534027       0.07217344      -1.00861371      -0.04866065      -0.08011869       0.16563772
H       12.73865538       5.70226918       1.98591767      -0.13035051      -0.20559571       0.08006276       0.02410888       0.24238549      -0.02297412
H       14.86243327       4.70416587       1.85557146      -1.19078641      -0.44465260      -0.84678539      -0.04998023      -0.20883535       0.00585724
H       14.26445765       3.51157745       0.60933260       0.05001681       0.74138328       0.46291548       0.02355057       0.18684611       0.17015997
H       12.26737891       3.55425752      17.17753002      -0.04132597      -0.51044168      -0.30989387       0.16451102      -0.19566615      -0.03433659
H       10.94504429       4.94374919       0.74890408      -0.02401376      -0.01692942      -0.07802404       0.14912208      -0.02356392       0.03675269
C        9.20099808       2.54327824       5.49009177      -0.86502167       0.21922237      -2.07162067      -0.40961062      -0.11221625      -0.09605095
C       12.87516078       4.82549658       1.32295048      -0.96509005       1.91274162       0.08046765      -0.37597757      -0.23412322       0.53800197
N        8.76736438       3.09093832       6.63220567       0.41360654      -0.09238543       1.77111086      -0.27185733      -0.53907252       0.37220882
N        9.25154549       1.24576740       5.22243608       0.20725356       0.28486233       1.62898497       0.10818207       0.47849943      -0.25186190
N       14.08162983       4.35844381       1.20537588       2.31681696      -1.55766321       0.28888511       0.91684379      -0.01038862       0.61255521
N       11.83645333       4.45246039       0.60583417      -0.05895363       0.30252689       0.36673332       0.21837805       0.28818376      -0.24532753
Pb      10.91762909      -0.06008064       1.08512359       0.37159695      -0.10165500       0.00706260       0.38625318      -0.62043224       1.57461452
Pb       6.17118171      30.01163757       1.27618251      -0.04555762       0.04207785      -0.21932251       0.75812402      -3.66159323      -0.62452363
I       12.68462766       1.02046836       3.59285126       0.18660663      -0.13813383      -0.18219060       1.66206255       0.94340960       0.10367318
I        8.97204750       5.97726785       3.32033058      -0.07165797       0.15474402       0.03095953       1.23068138      -0.68884181       1.20683521
I       13.40231364       1.34770841       7.76779291      -0.09312244      -0.11187729       0.08582045      -0.27698379      -0.44366842      -0.59576111
I        8.96795992       6.42423978       7.77886338      -0.01502896       0.03179003       0.01508174       1.64853722      -1.25308986       0.21220352
I       12.81692749       4.70022991       5.46267896      -0.31665962      -0.10361352      -0.14608891       0.32108002      -0.50146040       0.10210026
I        8.98672210       2.32370643       1.54822938      -0.23656612      -0.04916305      -0.04222065       1.81167007       0.95227053      -0.67525752
H        8.93719076      10.57209716       2.62503285       0.48831482      -0.56986757      -0.08989213       0.13730824       0.06648146      -0.10812580
H        7.21665232      11.20969539       1.22079629       0.61681088      -0.16853577      -0.08685683      -0.05849771      -0.06686728      -0.05861427
H        8.27136935      10.16020325      16.95809482       0.52746690      -0.11402779      -0.59258381      -0.23800300       0.01522634       0.10758916
H       10.52662871       8.67533293      17.25122633       0.06366772      -0.03875725      -0.96585943       0.08542223       0.01421418      -0.17884061
H       10.81896021       8.96350465       1.66149554      -0.45556758       0.20616059      -0.59809070       0.28300129      -0.01039495      -0.05307421
H       12.93151675      12.31260746       4.18724399      -0.02079573      -0.08389574      -0.37407362       0.10516342      -0.17309995      -0.05227787
H       13.27946065      10.33862234       5.29880056       0.03428914      -0.38547194      -0.43209381       0.04169422      -0.24532676      -0.17623135
H       13.06068590      10.96167423       6.89716245      -0.06480756       0.42289328      -0.04898289      -0.14712480       0.21915441       0.11362812
H       12.23302202      13.35055706       6.94384127       0.17357953       0.34867504      -0.35950862      -0.00384244      -0.06378626       0.09509834
H        6.42167652      11.71635867       5.85459237      -0.94417837       0.66296926      -0.01843193      -0.21560090      -0.14077106      -0.08984372
C        8.98956715      10.06818391       1.50194326       0.27327763       0.61907299       0.82613844      -0.30446773      -0.38975080       0.54158061
C       12.83602337      12.31205594       5.28130317       0.45231085      -1.48177696      -0.54209818      -0.22570760       0.01772926      -1.21519614
N        8.01523755      10.56029747       0.75446305      -2.68195142       0.50483406      -0.81720936      -0.31522801       0.41614405       0.73667110
N       10.01792716       9.20803355       0.98292389       1.13262087      -0.53943959       2.26467179      -0.42358348       0.35926951       0.24896749
N       13.11352984      11.15711531       5.87863242      -0.20024957       0.63655902      -0.02755884      -0.66925306      -0.02245459      -0.54669877
N       12.51566515      13.41876384       5.87413532      -0.50262443       1.17602998       1.65321677      -0.91127801      -0.04626319      -0.32934256
Pb      10.87344164       7.41414914       5.28467334       0.45241183      -0.12374808       0.27939169      -0.65757173       0.41714713      -0.95131285
Pb       7.00554026       7.70702359       5.43006559       0.11524066      -0.34070659      -0.16036272      -1.50724644      -0.87075482       1.13271541
I       13.19448445       8.18585172       7.66761638      -0.12313942      -0.05914303       0.02483966       0.41035981      -1.04401574      -1.20902855
I        8.93503035      13.64442093       7.46253325      -0.35503043       0.16153212       0.22049856       1.96859222      -0.67029551      -0.85703700
I       13.04015177       8.64251251       3.21242406      -0.08944256      -0.05655524      -0.01550653      -0.11013664      -1.11646462      -0.04617208
I        8.69310153      13.33633824       3.07457524      -0.06665276       0.01132095       0.29102942      -0.35363472       0.05680773      -0.37225656
I       12.45601854      12.42630191       0.84876685      -0.22138364      -0.20627921      -0.00932991       2.45809029      -2.32562887      -2.57255159
I        8.93958745      10.17355154       5.56331864       0.12621212      -0.04230698       0.06299735      -2.02360340       0.19776995       1.53423320
H        0.91697927       3.22927848      15.34758617      -0.78887059       0.16510082       1.19635964      -0.03081722       0.03034406       0.01658431
H        2.92223713       1.93612521      15.15586933      -0.57450440       0.31770898      -0.83091738       0.07322438      -0.07140317       0.23674832
H        2.67901577       1.57749889      13.38464864       0.48766978       0.07201862      -0.34563854       0.02583811      -0.13310368      -0.21914972
H        0.70045248       2.67578284      12.26741665       0.07522506       0.06577123       0.79023117       0.11981429       0.06968326      -0.12398365
H       31.02321414       2.38994483      13.70778554       0.01067980       0.21377655       0.00167032       0.24324419      -0.02707309      -0.07654716
H        4.99019848       5.97597528      10.88257461      -0.56908382      -0.05171122      -0.46569786      -0.10853945      -0.11970256       0.09592359
H        4.94185073       6.72716970       8.55304343       0.03537394      -0.53111524       0.07188838       0.03719455      -0.16196460      -0.07873342
H        5.14721266       5.12339751       7.93842685      -0.35495837      -0.77329393      -0.92165660       0.11251336       0.13011649       0.11366748
H        5.21603446       3.23642848       9.67517938      -0.28785140       0.05433075       0.13411855       0.10481468       0.07474830      -0.09806949
H        4.93410801       3.81294140      11.41541998       0.26006955      -0.33525262      -0.15192457       0.21157414       0.07354861       0.04193770
C        1.19885386       2.83381906      14.36277156       1.15509278      -0.24209232      -1.70848824      -0.45759560       0.26757044      -0.87917844
C        4.93042727       5.26433323      10.03129551       0.40888021       0.07244332      -0.01850321       0.41423331       0.97460867       0.57742438
N        2.37615642       2.16423072      14.28749449       0.10293036      -0.44247162       1.12129479       0.00932031       0.15684593      -0.23583464
N        0.46750774       3.07875836      13.27397182      -0.41785069      -0.36390386      -0.32372978       0.78076966       0.31163549      -0.11884129
N        4.90046123       5.69757019       8.76417497       0.32327192       1.78122727       0.79927757      -0.01516425       0.15914276       0.23208360
N        5.01688117       3.99959648      10.37775342       0.24852254      -0.30183548       0.59701071      -0.76853553      -0.12464201       0.02308885
Pb       2.43293812      30.10670656       9.84837372      -0.29119354       0.29505738       0.14975644       1.45473475       1.40264923      -2.00765754
Pb      30.71031142      -0.99701231      10.14660525       0.21397052       0.29101471       0.20165926      -4.31485440      -0.50484844       0.02005400
I        5.34677827       0.87320930      12.27654387       0.09661313      -0.22239940      -0.19708364       0.31646182       0.34907615      -1.26730185
I        1.29486186       6.33436613      11.37339512       0.24452654       0.06840109       0.06334050       0.96682070       0.59670121       1.37526243
I        5.54029419       1.11432702      16.42325676      -0.04803202       0.09582639      -0.09580277      -2.30637001      -0.05789428      -0.58540625
I        1.32840587       5.79183116      15.68437225       0.10805274       0.10401684       0.37205664      -0.07349731      -0.41118819      -0.74685424
I        5.41130845       4.82989424      13.89901150      -0.07308221       0.11458847       0.05409684       0.51247679       2.03928429       0.02276059
I        1.32865667       2.47050461       9.59058675       0.18675968      -0.02049746       0.14578969      -1.08962807      -1.47555035       2.36375475
H        0.62342093      11.12317433       8.76924480       0.38514811       0.01374396       0.42409865      -0.01166941      -0.02726583      -0.12340015
H        0.73753599      11.83494988      10.96275310      -0.21308009       0.42224059       0.18520288       0.08590102      -0.23940025       0.15451493
H        1.17032669      10.29795975      11.65504137       0.09461533      -0.19702900       0.11830604       0.17389005      -0.03392050      -0.03047803
H        1.77735649       8.41959123       9.75231004      -0.13535405       0.07235631       0.30177107       0.11942039      -0.10564127      -0.01480662
H        1.42465958       9.11188959       8.15316652      -0.01055862       0.05129115      -0.16718969      -0.08478927       0.06269481      -0.01603206
H        4.33394973      11.60608475      15.41737564       0.21625074       0.68934431      -0.63204616       0.01070392      -0.10499941      -0.10334809
H        2.56863217      12.92884713      14.33570017       0.34081861       0.44555846      -0.55588469       0.00300675       0.02349102      -0.22482021
H        3.59548478      13.68589007      13.07288131       0.02967370       0.31923047      -0.34359553      -0.14751670      -0.27901004      -0.10881112
H        5.99981249      12.74275994      13.06553187      -0.13068384       0.27204805       0.01426812       0.15300483      -0.12839777       0.08039205
H       12.45438079      14.25159677      14.03185397       0.18344624      -0.59166307      -0.00723772       0.17093743      -0.06797614      -0.01985756
C        1.03741876      10.42000539       9.60370046      -0.69425527       0.76054829      -2.15396048       0.07105892       0.00748493       0.37739600
C        4.49616998      12.25057029      14.44296716       1.80749555      -0.60504782      -0.48768794       0.10233595      -0.21401449      -0.19811505
N        0.91192215      10.84296199      10.80645113       0.17637800       0.04088349       1.33321365       0.17732390      -0.07211571      -0.15567176
N        1.46810533       9.25222872       9.17073114       0.29765865      -1.33734215      -0.07770946       0.58153155      -0.61523434      -0.20676830
N        3.44372514      12.95615858      13.77643876      -0.61191545      -0.82427690       1.24831739       0.25029275       0.28615720       0.32365868
N        5.77694704      12.23117894      13.99612696      -0.43938741      -0.84362102       0.72958014       0.33247663       0.27194220       0.42372363
Pb       3.31278794       7.41921926      13.77601322       0.07985240      -0.12008636      -0.05862831      -1.37011048      -1.06541798      -0.42999582
Pb      30.92219703       6.28262868      14.17550063      -0.32984329       0.20783596       0.01433726       1.64543061      -0.02591370      -0.07500417
I        5.11230360       8.90607698      16.09491393       0.00696215      -0.03321639       0.04678983       2.06059450      -1.02550063      -2.13186034
I        0.98027445      13.91102847      16.31648302      -0.08429497      -0.16041047      -0.00799851       0.23057230      -0.83194847      -0.30829926
I        5.41739452       8.89571544      11.82477359      -0.06699382      -0.04446578      -0.17356826      -1.18759238       1.61042748       0.78079397
I        0.76461851      14.02576695      12.22052727      -0.11378820       0.23772012      -0.18761563       0.61273590      -0.63089443      -0.81103789
I        4.64394953      12.30629933       9.93081107       0.20646905       0.00885569      -0.03965493       0.99567741       0.65185945       1.55316901
I        1.35472912       9.88755402      14.31613348       0.06424801       0.23068820      -0.14658828       0.14741979       0.45403135       0.23834997
H        9.53785600       3.16071972      13.25823577       0.12351600      -0.09650695       0.06391331       0.02800003      -0.11192375       0.06429658
H        8.93800146       4.06063303      15.40394322       0.12901872      -0.68777179      -0.26039053      -0.06719410      -0.00594167      -0.07261558
H        8.87511674       2.43052654      16.12391754      -0.17559665       0.52994875      -0.21662449      -0.00150397       0.01160500       0.06300688
H        9.32399405       0.45683476      14.60337893      -0.05549360      -0.15651201      -0.00019410      -0.02233043      -0.10144037      -0.03394309
H        9.64401531       0.82696819      12.92708431       0.14534027       0.07217344      -1.00861371      -0.04866065      -0.08011869       0.16563772
H       12.91663506       5.62866672      10.61768593      -0.13035051      -0.20559571       0.08006276       0.02410888       0.24238549      -0.02297412
H       15.04041295       4.63056341      10.48733972      -1.19078641      -0.44465260      -0.84678539      -0.04998023      -0.20883535       0.00585724
H       14.44243733       3.43797499       9.24110086       0.05001681       0.74138328       0.46291548       0.02355057       0.18684611       0.17015997
H       12.08939923       3.62785999       8.54576177      -0.04132597      -0.51044168      -0.30989387       0.16451102      -0.19566615      -0.03433659
H       11.12302397       4.87014673       9.38067234      -0.02401376      -0.01692942      -0.07802404       0.14912208      -0.02356392       0.03675269
C        9.37897776       2.46967578      14.12186003      -0.86502167       0.21922237      -2.07162067      -0.40961062      -0.11221625      -0.09605095
C       13.05314046       4.75189412       9.95471874      -0.96509005       1.91274162       0.08046765      -0.37597757      -0.23412322       0.53800197
N        8.94534406       3.01733586      15.26397393       0.41360654      -0.09238543       1.77111086      -0.27185733      -0.53907252       0.37220882
N        9.42952517       1.17216494      13.85420434       0.20725356       0.28486233       1.62898497       0.10818207       0.47849943      -0.25186190
N       14.25960951       4.28484135       9.83714414       2.31681696      -1.55766321       0.28888511       0.91684379      -0.01038862       0.61255521
N       12.01443301       4.37885793       9.23760243      -0.05895363       0.30252689       0.36673332       0.21837805       0.28818376      -0.24532753
Pb      11.09560877      -0.13368310       9.71689185       0.37159695      -0.10165500       0.00706260       0.38625318      -0.62043224       1.57461452
Pb       6.34916139      29.93803510       9.90795077      -0.04555762       0.04207785      -0.21932251       0.75812402      -3.66159323      -0.62452363
I       12.86260734       0.94686590      12.22461952       0.18660663      -0.13813383      -0.18219060       1.66206255       0.94340960       0.10367318
I        9.15002718       5.90366539      11.95209884      -0.07165797       0.15474402       0.03095953       1.23068138      -0.68884181       1.20683521
I       13.58029332       1.27410595      16.39956117      -0.09312244      -0.11187729       0.08582045      -0.27698379      -0.44366842      -0.59576111
I        9.14593960       6.35063732      16.41063164      -0.01502896       0.03179003       0.01508174       1.64853722      -1.25308986       0.21220352
I       12.99490717       4.62662745      14.09444722      -0.31665962      -0.10361352      -0.14608891       0.32108002      -0.50146040       0.10210026
I        9.16470178       2.25010397      10.17999764      -0.23656612      -0.04916305      -0.04222065       1.81167007       0.95227053      -0.67525752
H        9.11517044      10.49849470      11.25680111       0.48831482      -0.56986757      -0.08989213       0.13730824       0.06648146      -0.10812580
H        7.39463200      11.13609293       9.85256455       0.61681088      -0.16853577      -0.08685683      -0.05849771      -0.06686728      -0.05861427
H        8.09338967      10.23380572       8.32632657       0.52746690      -0.11402779      -0.59258381      -0.23800300       0.01522634       0.10758916
H       10.34864903       8.74893540       8.61945808       0.06366772      -0.03875725      -0.96585943       0.08542223       0.01421418      -0.17884061
H       10.99693989       8.88990219      10.29326380      -0.45556758       0.20616059      -0.59809070       0.28300129      -0.01039495      -0.05307421
H       13.10949643      12.23900500      12.81901225      -0.02079573      -0.08389574      -0.37407362       0.10516342      -0.17309995      -0.05227787
H       13.45744033      10.26501988      13.93056882       0.03428914      -0.38547194      -0.43209381       0.04169422      -0.24532676      -0.17623135
H       13.23866558      10.88807177      15.52893071      -0.06480756       0.42289328      -0.04898289      -0.14712480       0.21915441       0.11362812
H       12.41100170      13.27695460      15.57560953       0.17357953       0.34867504      -0.35950862      -0.00384244      -0.06378626       0.09509834
H        6.59965620      11.64275621      14.48636063      -0.94417837       0.66296926      -0.01843193      -0.21560090      -0.14077106      -0.08984372
C        9.16754683       9.99458145      10.13371152       0.27327763       0.61907299       0.82613844      -0.30446773      -0.38975080       0.54158061
C       13.01400305      12.23845348      13.91307143       0.45231085      -1.48177696      -0.54209818      -0.22570760       0.01772926      -1.21519614
N        8.19321723      10.48669501       9.38623131      -2.68195142       0.50483406      -0.81720936      -0.31522801       0.41614405       0.73667110
N       10.19590684       9.13443109       9.61469215       1.13262087      -0.53943959       2.26467179      -0.42358348       0.35926951       0.24896749
N       13.29150952      11.08351285      14.51040068      -0.20024957       0.63655902      -0.02755884      -0.66925306      -0.02245459      -0.54669877
N       12.69364483      13.34516138      14.50590358      -0.50262443       1.17602998       1.65321677      -0.91127801      -0.04626319      -0.32934256
Pb      11.05142132       7.34054668      13.91644160       0.45241183      -0.12374808       0.27939169      -0.65757173       0.41714713      -0.95131285
Pb       7.18351994       7.63342113      14.06183385       0.11524066      -0.34070659      -0.16036272      -1.50724644      -0.87075482       1.13271541
I       13.37246413       8.11224926      16.29938464      -0.12313942      -0.05914303       0.02483966       0.41035981      -1.04401574      -1.20902855
I        9.11301003      13.57081847      16.09430151      -0.35503043       0.16153212       0.22049856       1.96859222      -0.67029551      -0.85703700
I       13.21813145       8.56891005      11.84419232      -0.08944256      -0.05655524      -0.01550653      -0.11013664      -1.11646462      -0.04617208
I        8.87108121      13.26273578      11.70634350      -0.06665276       0.01132095       0.29102942      -0.35363472       0.05680773      -0.37225656