768
Lattice="38.994998665037166 0.07106821782705662 0.35547318029268 0.20366633889610405 23.235525993811105 -0.050934670340891476 0.6633844787472418 -0.16287480069770385 18.246656201326342" Properties=species:S:1:pos:R:3:forces:R:3:momenta:R:3 energy=-3640.541852034158 stress="0.0 0.0 0.0 0.0 0.0 0.0 0.0 0.0 0.0" pbc="T T T"
H        8.06343493       0.08536756       4.65744579       0.87740522      -0.54413405      -0.28917538      -0.38170035       0.08654023      -0.02441426
H       12.64593273      12.11192687       3.24974870       0.39157681      -0.52086318      -0.28583607      -0.02583322      -0.01931408      -0.00916916
H        2.97788491       6.05674195       4.92795438      -0.21677891       0.17362921       0.17107138       0.01388789      -0.06745294      -0.29559332
H       18.15060222       5.88069309       2.33704857      -0.14692874       0.17986801      -0.12832085      -0.02155102       0.02409373       0.03606101
H        6.25787835      -0.80496146      10.32335395      -0.16099652       1.01424212      -0.30547439      -0.01389168       0.17097950      -0.18588028
H       12.75301176       9.85195916       3.77861565       0.00495101      -0.36362746       0.29605541       0.18588153       0.14078618      -0.02653200
H        4.92917042       5.11795803       7.88864643      -0.13282585      -0.04152977       0.22034644      -0.00682158      -0.04335408      -0.28807636
H       16.29169995       6.98920480       3.45460531      -0.07428550       0.92474283       0.72165562      -0.05665211       0.00200673       0.18418951
H        5.54992023       0.87161114       5.92378794      -0.76023646       0.37394259       0.10945276      -0.00724384      -0.02800916       0.03461464
H       14.21342572       9.54736653       2.80281305       0.40306863      -0.51048718       0.02356131      -0.18958552       0.21205741       0.07429964
H        5.58373387       6.78588630       7.73914661      -0.69332099      -0.27197945       0.49188976      -0.22152542      -0.16226450       0.00639173
H       15.23823150       5.55378964       3.27652243      -0.47419724       0.11188516       0.42716306      -0.14622420       0.03912568       0.09289497
H        6.73414366       2.74462907       4.66463887       0.41301799       0.00121489      -0.05358402      -0.13279198      -0.01490363       0.20027752
H       15.07352982      11.38552321       1.64434640      -0.93961252       0.67900156       0.08958299       0.06393871       0.00461381       0.08171103
H        4.16465271       8.81030136       5.24336416       0.74122433       0.69741128      -0.23604391       0.07683211      -0.00387173      -0.13725486
H       15.88853710       3.76321256       1.87242448       0.83178921       0.66709030      -0.19750976      -0.18807749      -0.15312222       0.06409706
H        8.31212689       2.22284680       3.92390304       0.17900690       0.49499649      -0.04738612       0.03240094      -0.00425601       0.19505208
H       14.30926421      12.98224347       1.65058036      -0.56152216      -0.10180341       0.25965986       0.08930590      -0.38208990       0.01923311
H        2.48001129       8.29029523       5.61351868      -0.49809919       0.22263304       0.53294085      -0.10897250      -0.09483482      -0.11150695
H       17.75031610       4.13523056       5.58719148      -0.53439004       0.72329536       0.71837815       0.03963197       0.14154270      -0.13559987
C        7.30330976       0.78946903       4.91369823      -0.99945491      -1.03509102       0.61117503       0.58716021       0.65931469      -0.01896725
C       13.43874274      11.44112931       2.80634022      -0.85300498       1.32758977       0.30908432       0.17505350      -0.53402714       0.17629186
C        3.80264385       6.80279616       4.86541998      -0.85004151      -1.07761018      -0.07905189       0.00375901       0.94863580       0.30182469
C       17.10702742       5.42908241       2.42500951      -0.90989831      -0.19071501       0.98267439       0.55837589       0.59023971       0.06807780
N        6.22340032       0.22201961       5.52040241       0.72179415       0.72117540      -0.48603744       0.02277814      -1.26711673       0.47869261
N       13.53307072      10.19912150       3.22453884      -0.65369569       0.27889563      -0.05000004       0.46403961      -0.10273343       0.15682925
N        4.93979176       6.08470599       8.26169702       1.59798808      -0.42825513      -1.31625020      -0.26932547      -0.77863716      -0.34598123
N       16.13668515       6.05345265       3.14031739       1.33013084      -1.51659145      -1.83187160       0.56704597       0.12286606      -0.04531797
N        7.52076900       2.07604706       4.57380160      -0.96653156       0.27485395      -0.02134224      -0.33964892      -0.21943632       0.67951307
N       14.24060184      11.97238821       1.92493435       2.14133671      -1.07812830      -0.61831655       0.71396412      -0.11440072       0.32444918
N        3.44097878       8.09637329       5.21773178       0.37074858      -0.69938319      -0.16142527       0.15361464      -0.12216675      -0.50329101
N       16.91044123       4.22342411       1.90782801      -0.39602567      -0.17414386      -0.14224667       0.95509885      -0.44508317       0.35017443
Pb       1.70959762       2.15772864       2.24857982      -0.63353667      -0.39635828      -0.44235692      -2.02690841      -1.24419768       1.97251788
Pb      19.13514825      10.50754688       4.92882735      -0.00513576      -0.15179953       0.36766512      -0.83676252       2.69237485      -3.84434855
Pb       9.43389503       7.95814412       2.84325129      -0.31607006      -0.26986659      -0.13605359      -0.01474151       4.04323987      -0.01871718
Pb      11.28915063       4.14468308       4.76069739       0.27280859      -0.11677931      -0.17826590      -1.78928841       1.75703014      -1.18992479
I        0.78801688       4.10375658       4.48923786      -0.09749254       0.15973659      -0.04552041      -0.47315849      -3.07398140      -1.84000577
I        0.41102000       7.83455900       2.28212310      -0.20081579       0.34597383      -0.06702933      -1.18191710       0.59818711       0.82529375
I       10.37670141       9.85658510       5.00037930       0.10343300       0.41865868      -0.01461236      -0.35161534      -2.71183474       0.45990031
I       10.28265205       2.19086112       2.35063136      -0.02066056      -0.09829312       0.12289543      -2.20891898       0.48870356      -1.07890861
I       17.95291921       0.73692021       2.74952869      -0.09612519       0.02631803       0.26777955      -2.87585972      -0.11291717      -1.94035544
I        2.80754833      11.56684540       4.29859429      -0.22799072      -0.29124468      -0.17443435       0.32213192       0.67637627      -1.39756939
I       12.34290264       6.48007216       2.60621565      -0.07073075       0.07880283      -0.04721702      -2.92354233      -0.33797816      -0.01597459
I        8.31338207       5.75909076       4.95783135       0.04084861      -0.07967892       0.10794065      -0.24285739      -0.98545999      -1.66639581
I        4.28279550       3.42044472       2.07232833       0.55028611       0.32218320       0.05753621       0.18744641       2.12984395       0.01871251
I       16.44507624       8.92498989       5.14816497      -0.29180173       0.11189057       0.15181270       2.51516079      -2.00915324      -2.06239942
I        6.43815937       9.21494398       2.97210178       0.08445747      -0.28628773       0.07868227       2.52850052      -2.03309888       1.00671656
I       14.29811624       3.03799116       4.46110608      -0.20549873       0.22657903       0.03065220       1.76532086      -0.35687140      -2.46545652
H        7.95713926      -0.07218579       8.73973633       1.12869043      -1.07264894       0.31067798      -0.17928504       0.01442333       0.12585249
H       12.49656478      11.37711253       7.56575821      -0.15127395       0.76519684      -0.09605230       0.05937594      -0.15108407      -0.02839537
H        3.30858106       5.74436654       9.55023173       0.83744725       0.49417406      -0.12688789       0.13757954      -0.13087922       0.15810246
H       17.67272339       6.43520060       6.40518811      -0.07073337      -0.43170593       0.64997259       0.04589085       0.09189052       0.11625903
H        6.16840784      -0.78765751       5.78516061       0.39720005       0.02036233       0.01749824       0.05655235       0.08100567       0.20453060
H       14.18345981      12.65360688       6.28438741       0.24132392       0.20932013      -0.37863065       0.23490731      -0.09414151       0.23183495
H        4.93565551       5.44039742       3.84503865       0.01843420      -1.35228917      -0.09496418       0.07216453      -0.03624493      -0.03828681
H       16.37426893       6.90807234       8.34969890      -0.49763914      -0.17079881       0.10196395      -0.10421911       0.02132759      -0.08833499
H        5.65392173       0.92587929      10.47252969       0.15509561       0.09870385       0.01120782       0.06250247      -0.13915391      -0.18788798
H       15.21112571      11.12977993       6.16825629      -0.35084694       0.81891077       0.01013867      -0.04666325      -0.30643934      -0.03042773
H        5.75081251       6.98752616       4.16266817      -0.32102396      -0.69692811       0.08724028       0.05704502      -0.09525676       0.04886982
H       15.61109749       5.23434962       8.32473284      -1.09612035      -0.13771558       0.74705050       0.01373001      -0.09502502      -0.15481116
H        6.85659877       2.74506620       9.49864854      -0.01902034      -0.17843461       0.18286931      -0.14830945      -0.09595099       0.04882018
H       14.74592672       9.36514182       7.33825055      -1.09267725       0.13288351       0.53804673      -0.09964392      -0.13589956       0.22400074
H        4.54079369       8.64552611       9.11253288       0.01893674      -0.66000222      -0.42561452       0.00616037       0.15169621       0.02353252
H       16.40380295       3.67588007       6.72092918       0.45490751       0.26218104      -0.25981884       0.21819518       0.17208261       0.21376430
H        8.29145531       2.32879010       8.58452830       0.21130648       0.11585461      -0.47177468       0.02269018       0.27630587      -0.14890213
H       13.01429414       9.08856296       8.13731804      -0.10239399       0.30027773       0.18663219      -0.18207627      -0.21477199      -0.03819594
H        3.20718043       8.05632310      10.08237566      -0.16732077      -0.10288483       0.06515695      -0.10745143      -0.31791593       0.25258319
H       17.61306553       3.85670217       1.25164021       0.01721751      -0.13920835       0.17419890       0.05974868       0.14752686       0.20626923
C        7.32617776       0.64357116       9.30431119      -2.18455655       1.40357657       0.22141429      -0.38532713       0.52711819      -0.10335981
C       13.49127409      10.97992757       7.26568480       0.57007807      -0.13036755      -0.54861775       0.73719824      -0.57978102       0.02279595
C        4.06833452       6.48641364       9.12304557      -1.16156026       1.03344624       0.25652312      -0.10116821       0.40670157      -0.82062249
C       17.03819808       5.59962615       6.93425996      -0.42194819       1.32769795      -0.99097706      -0.72839681      -0.37747031      -1.13883450
N        6.33550579       0.24211345      10.08358203       0.75416817      -2.27908466       0.37747095       0.52370214      -0.99185624       0.37907052
N       14.38215044      11.66988807       6.50958818      -0.85098234      -1.27712842       1.20451094      -0.75386045      -1.12832833      -0.56297821
N        5.04671658       6.24996784       4.44992018       0.89565728       2.55198577      -0.36938504       0.44926851       0.31327300      -0.27575910
N       16.17513600       5.99801615       7.89371513       2.57091427      -0.99418555      -1.52847276       0.27301118       0.73171597      -0.02369483
N        7.44978162       1.97296237       9.05588660       0.37392615       0.74701230      -0.44682331      -0.56191172       0.54062708      -0.23507539
N       13.74280939       9.73484493       7.66570097       1.84232825      -0.86268785      -0.94893494      -0.06864479      -0.41861864       0.10009375
N        3.94893448       7.81922310       9.41957146      -0.49724963       0.06326785       0.92956545      -0.05181606      -0.27205597       0.65149620
N       17.03896589       4.43734219       6.30590555      -0.42913034      -0.74904959       0.67359264      -0.17711760       0.90833251       1.46676773
Pb       1.60829673       1.98121613       6.73283049      -0.03289576       0.22095043       0.19139803      -1.05236022      -0.10633204       0.40571032
Pb      19.55386040      10.01706324       9.72203677       0.12239000       0.04989669      -0.26188059      -3.76301794      -0.95037222      -0.09654652
Pb       9.33003280       7.93193734       7.26653996      -0.08330735      -0.20940656       0.12280232      -1.46453635      -1.59561841       1.04969481
Pb      11.91220584       4.38785048       9.30735375      -0.07529923      -0.36141924      -0.08866015       0.41605812      -1.68813687      -1.13996033
I        0.83845036       4.03312608       9.11745365      -0.08119747      -0.22906725       0.13840905      -0.74472800      -2.34368771      -0.78698091
I        0.54096206       7.87006318       6.81497087      -0.18556919       0.01381141      -0.08939070      -0.87312764      -1.14300846       2.05996159
I       10.70963026       9.72059601       9.49703252      -0.17678503       0.10930900       0.05052094       1.13444528       0.05420485      -0.53919177
I       10.45061596       2.26029963       7.16265003       0.16427162       0.06969324       0.12882745       0.52272305       1.60453078       0.19507958
I       18.44055000       0.86037164       7.11221398      -0.05767744      -0.06764909       0.01037617      -1.10955684       2.74191574      -2.73949152
I        2.75520190      11.40454324       8.76767662       0.08067565       0.14164369      -0.14391984       0.82213852       1.02565940      -0.35497335
I       12.28594370       6.36122374       6.82909628       0.19505289       0.24026767       0.07674313      -0.81257277      -1.43640006       2.25132163
I        8.79161634       5.76064092       9.60655767      -0.04672128      -0.17164767       0.03329078      -0.87233225      -0.50461439       1.40300273
I        4.48413447       3.13665259       6.48621154       0.09941566      -0.04070653       0.02865673       0.76250376      -0.95891727      -1.88445474
I       16.77050441       8.84598873       9.88141138      -0.12529642      -0.11427114       0.08982813       0.69338691      -2.11089298       3.43651337
I        6.42767360       9.23724340       7.31313133       0.12951559      -0.07955343      -0.10411906      -0.18910095       2.53021022       0.62053171
I       14.67242700       2.70996871       9.01133036      -0.20163251       0.43751402      -0.02400779      -1.06708823       2.56524282      -0.82993083
H        8.69325880       0.36334110      13.73816583      -0.42319092       0.17321804       0.48367752       0.13467019       0.14777432      -0.40856029
H       12.86100967      11.79216585      11.51136425      -1.02379594       0.77721330       0.39598459      -0.18307223      -0.08865020       0.01891803
H        3.60661817       5.58101041      14.28882045      -0.56987430      -0.50612719       0.44247888       0.02564860       0.09193791       0.08584700
H       18.20075139       6.15247860      11.20994780      -0.37480477       0.05430142      -0.19167266       0.19556757       0.00861875      -0.05924551
H        6.53752439      -0.08461107       1.35551482       0.30134805      -2.06721990       0.35793814       0.20090237       0.06299120       0.04477858
H       13.05884942      10.09388296      13.30594229      -0.81352835       0.12439347       0.42166198      -0.10892197       0.08247764      -0.13392540
H        3.98248684       5.43928844      -0.94882670       0.13475486      -1.09112904      -0.57594631       0.23738918      -0.01780025      -0.14761228
H       16.71295369       6.78349665      12.95828828       0.11931668       0.20667808      -0.05180427      -0.05620407       0.26096765       0.12159742
H        6.05529810       0.82929844      15.16429246      -0.05290952       0.15717060      -0.24490816       0.16321316       0.16302590      -0.16791979
H       14.69314256       9.45429226      13.08261833       0.80445960       0.26037852      -0.68752725       0.16293601       0.08541660       0.08465887
H        5.24149391       6.70762113      -0.99597413      -0.70790810       0.15521612       0.58982419      -0.08057441      -0.03523138      -0.08671623
H       15.87123793       5.28085366      12.89475025      -0.63546433      -0.50436733       0.05762822      -0.05527134      -0.02526595      -0.16988715
H        6.51728811       2.50541490      13.19058093       0.45888183      -0.03710346       0.34887410      -0.18502028       0.03557496       0.04196696
H       15.67149902      10.90348234      10.63769592      -1.75835537       0.85971306       0.79897351      -0.07738846      -0.01505441      -0.12072153
H        4.73365149       8.45676310      14.30241670      -0.76612511      -0.92912489       0.11228534       0.09802509       0.22265440       0.06705959
H       16.65116348       3.59656640      11.08778533      -0.86638644      -0.50307730       0.07005530       0.24723360      -0.27680354       0.17332232
H        8.31650970       2.35638565      12.80104284       0.36018504       0.35250081      -0.52542337       0.05004375      -0.00912027       0.03394515
H       14.60319010      12.35137447      10.13056505      -0.20413626      -0.50456176       0.10154383       0.01636298       0.15917008      -0.08213544
H        3.44765773       7.57731580      15.42168077       0.95683368      -0.16674599      -0.62407280       0.05845542      -0.17409873       0.17639771
H       18.22653721       4.20702702      14.92839213       0.28987607      -0.16306550      -0.05433696       0.01576012      -0.26626699      -0.10674592
C        7.72555210       0.88208243      13.97790896       0.33139730      -0.73314377       0.23392861      -0.65830405      -0.29879090      -0.63552660
C       13.79685206      11.17478070      11.62082019       0.41367585      -1.41271542       0.49347078       0.12834694      -0.80667620       0.04266808
C        4.22994063       6.41283524      13.88997430       1.04686828       0.53239187      -1.48141488      -0.58843130      -0.08770553      -0.62816239
C       17.33956476       5.51115775      11.45305876       0.31640874      -0.52162701       0.44460468      -0.61718745      -0.10365798       0.05805988
N        6.86177402       0.30894012      14.79680400      -0.19385100       2.55243986      -0.74356445       0.43150490      -0.14501826       0.67212714
N       13.88318640      10.20375943      12.70117831       0.03706284       0.25118773      -0.24342961       0.67564160       0.40099598       0.18912117
N        4.28982650       6.35978836      -0.62804802       0.57785937       0.94437800      -0.11669208       0.45375939       0.07282700       1.09606296
N       16.55885255       5.89730884      12.46297848       0.58089855       0.03448372      -0.37361904       0.92850186       0.84080211       0.03191193
N        7.55901229       2.04484121      13.38878765      -0.78483052       0.02848094      -0.19976401      -0.43008148       0.50447787       0.33611758
N       14.68790520      11.45490004      10.70572166       2.52771569      -0.34962295      -1.29097790      -1.43657716      -0.31600560      -0.22416608
N        4.21205692       7.52780005      14.64090608      -0.11168013       0.12141782       0.02626332       0.23375152       0.73924850       0.25974768
N       17.26333944       4.35379816      10.80145447       0.08246658       1.62703528       1.01734250       0.84194620      -0.87848727       0.11626147
Pb       1.91347642       1.89482683      11.51848179      -0.22289984      -0.01957194      -0.75774595       3.34662526      -0.33198628       0.59740073
Pb      19.43671319       9.93866145      14.30945400       0.44966970      -0.00024766       0.15191834       2.21919446      -1.53872055      -2.22493427
Pb       9.68978781       7.77787464      11.99398905      -0.21371058       0.23143678       0.04581862      -0.60617117      -2.82733692      -1.37298006
Pb      11.97458382       4.41227686      13.87375023      -0.36680664      -0.24451152       0.08153213       3.79118106       1.09947977      -1.04900601
I        0.91149636       3.69405820      13.55434807       0.07143497       0.51641112       0.21842836      -3.21963318      -1.89818756       0.18603240
I        0.69956642       7.63680456      11.27108420       0.35276853       0.06864752       0.16552001       2.42778331       4.06992768      -0.76082367
I       10.65769189       9.89816831      14.32511165      -0.07875231       0.02186064      -0.18995938       1.27881735       2.02050897      -0.33378548
I       10.79839931       2.34891640      11.53835895      -0.09430085       0.00602637       0.29287178       1.76109204      -2.80640679      -0.39092548
I       18.16345382       0.77188630      11.89906250       0.13579624      -0.03964046      -0.33631471       2.14038746       0.57863166      -0.95421495
I        3.12028516      11.28096161      13.29455595      -0.02075609       0.40045772       0.01531086       2.99286028      -0.97003995      -2.20931487
I       12.74830697       6.57702854      11.62315652       0.15274492      -0.07166531       0.01968957      -0.86932700       0.80470573       4.35412504
I        8.76864436       5.72862790      14.31798695       0.03630611      -0.00820195      -0.08517195      -0.38411400       1.51012834       2.14282342
I        4.83127702       3.10967428      10.77661485      -0.27011881       0.34867834       0.42878344       0.08564504      -0.41294937       0.05340250
I       16.70094351       8.72999558      14.75014355      -0.29336450       0.05801260      -0.08871969       0.87522977       0.20225054      -0.18106645
I        6.77669666       9.16207497      11.84835390       0.07078648      -0.06085856       0.01638239       0.87395422      -1.56248647       0.87960832
I       14.64409830       2.97982521      13.69345090       0.19422419      -0.02960901      -0.02988925      -2.35479749       3.42697417      -0.05193505
H        8.12754265       0.66364004      -0.27464668      -0.81062894       0.85003779       0.54770604       0.29325684      -0.21764007       0.03474836
H       12.80390426      11.81604139      16.70435276       0.05982479      -0.11785042       0.03364001      -0.02781573       0.04844384       0.07160466
H        2.48379338       6.49816072       0.24433180      -1.99945044      -1.52245032       0.40459925      -0.02552177      -0.00981872      -0.06118917
H       18.37019994       6.12742018      16.26076373      -0.11619168      -0.00243524      -0.35292655      -0.04581769       0.07223229      -0.01923512
H        7.04642220      -0.52509421      15.28127770       0.45313645      -2.25513837       0.53197704       0.34398364       0.05260685      -0.15504986
H       14.41523345      12.56082373      15.42536216       0.18841270       0.81755760      -0.46382209       0.05164054       0.06869985      -0.03567179
H        4.73169996       5.38543712      12.00535784       0.25317399       0.19574087       0.25826390      -0.09367365       0.12917972       0.00808295
H       16.52728185       6.76781510      17.66334319      -0.09036809      -1.60950458      -0.53472582       0.04459440      -0.15272270      -0.03578939
H        5.61301886       1.30271299       1.23596608      -0.87511672       0.77041941       0.48602355       0.17908047       0.06765269       0.16309952
H       15.52886226      11.19358627      15.61285663      -0.24525991       0.17510420       0.21780236      -0.10982870       0.14420764      -0.00085295
H        5.35333403       7.14794864      11.97493729      -0.37965167      -0.71631625       0.27767669       0.10762043       0.00896691       0.34680712
H       15.76028295       5.08688560      17.26246876       0.14305054       0.79469271       0.26599205      -0.00677694       0.09552864      -0.00732127
H        6.43383837       3.25697868      -0.30084730       0.26108219      -1.11946942       0.49375207       0.02258469       0.00570148      -0.03910169
H       14.55156330       9.51324526      17.32116038       1.45023091      -1.66427844      -0.23725483       0.06227634       0.19642846      -0.15379717
H        4.33941218       8.76233699       0.74130382      -0.76355069      -0.55456879       0.00325260       0.00870061       0.07574063       0.19882073
H       16.74617663       3.59340612      15.58429490      -0.79429149      -0.04643505       0.28565355       0.03456629       0.19042790      -0.23714056
H        7.97307864       2.83202055      -0.97547365      -0.40960225      -0.29158111       0.25202846       0.15841045       0.00347640       0.11619295
H       12.96404343       9.82127068      17.91541734      -0.59436595      -0.09421352       0.22616419       0.09146943      -0.00838751      -0.01349143
H        2.63750791       8.42389545       1.29232593      -0.14803880       0.15085267       0.04645798       0.17221438      -0.19678542       0.14735214
H       18.03815838       4.14445756      10.20758748       0.73669264      -0.45989964      -0.80479069       0.01193077      -0.07699381      -0.00914208
C        7.27803189       1.31864520       0.09393607      -0.15162669      -1.59020797       0.83339686      -0.74505451      -0.23114903      -0.47852599
C       13.72412863      11.18229430      16.62379086      -2.00441259       1.35169191       0.81589683       0.32852592      -0.24595275      -0.94748050
C        3.36308787       7.00447472       0.07493847       1.62006065       2.27268417       0.54876675      -0.46725862       0.04416314       0.19979101
C       17.45706044       5.48449153      16.30492336       0.84053786      -1.43008050      -0.92662980       0.19139423       0.22035817       0.29794278
N        6.41536891       0.78645802       0.95209618       0.93452769       1.33591085      -1.28131132       0.40225195       1.13383667       0.76661004
N       14.66413835      11.69187280      15.89911393       1.29071872      -0.84524685      -0.91398369      -0.38576712      -0.53960277       0.13324371
N        4.87847987       6.25297833      12.58030280      -0.49162789       1.42746750       0.80236177       0.94266081       0.08968531      -0.54133009
N       16.53162455       5.81953764      17.14078302      -1.27172532       0.80496407       1.22944067       0.83089034       0.55312288       0.50178731
N        7.18556027       2.52514380      -0.36563132       0.67617634       1.83305638      -1.60790168      -0.01975921      -0.12802639       0.17764933
N       13.71286271      10.06444775      17.28346522      -0.02663093       0.13897649       0.19699153       0.10734697      -0.27176257       1.75624062
N        3.41256668       8.19301995       0.66613815       1.49371370      -0.42313815      -0.75471544      -0.64601967      -0.06300867       0.08870229
N       17.42644184       4.35359636      15.55647370       0.99770730       1.50552356       0.25586535      -0.07906190       0.09313896       0.73458183
Pb       1.92744728       1.72066222      15.88816851       0.17789442       0.00617168       0.53122281       0.28580455       0.45928137       0.21860621
Pb      18.87171936      10.31009730       0.46652492       0.17868448      -0.16376484      -0.15382144      -3.76836600      -1.67174507       0.12567185
Pb       9.44254403       7.97406655      16.64093712       0.32578926      -0.16336430      -0.28750985       4.01021762      -0.99135773       1.26775990
Pb      11.95107713       4.24071111      18.42489381       0.34169592      -0.16698789       0.22676763      -3.83511888       0.95872380      -0.39486821
I        0.51053371       4.08528036      -0.18213313       0.11016383       0.08591558       0.06372251       1.36157724       1.90505054       1.59135074
I        0.87753617       7.73488260      15.95803692       0.21553614      -0.16139385       0.06621760      -1.15730716      -0.15977902      -1.52377318
I        9.85399369      10.19911960       0.67974682       0.26381318       0.01232878      -0.12789151      -0.92626179       0.93531210      -0.45503968
I       10.97876171       2.21042798      16.28431381      -0.03234339       0.05548003      -0.39602182       1.16705381       0.58754896      -2.00084164
I       18.54337359       0.60976221      16.62344651      -0.10921237       0.08837566      -0.10393249       2.02305350       3.49826010       1.61155690
I        3.14843255      11.34288054      17.76318993      -0.00979488       0.17328068       0.35205472      -1.26472935       0.27553163      -0.53649212
I       12.63721413       6.39209901      16.35948635       0.15748675       0.29207388      -0.19980115       0.22212725      -2.13529558      -2.40994274
I        8.37433017       5.69483770       0.43466356      -0.25518935       0.14383887       0.22136262      -0.30322145      -2.67863881      -0.42204130
I        4.75494408       3.15643355      15.84660871       0.03984000      -0.06386514      -0.18333357       0.36723628       0.73533056       0.55509361
I       15.99519798       8.89367842       0.94863326       0.20012219       0.16949554      -0.10331704      -1.67210693      -1.04434188      -0.31756137