768
Lattice="25.244031463055336 -0.051139010145229986 -0.15563925591508607 -0.008975214029691772 25.575374942549175 -0.11406019386377196 -0.3474594723078396 -0.009706484009668169 25.26731789926129" Properties=species:S:1:pos:R:3:forces:R:3:momenta:R:3 energy=-3634.577017643341 stress="0.0 0.0 0.0 0.0 0.0 0.0 0.0 0.0 0.0" pbc="T T T"
H       10.39784708       8.81448483       4.47170256      -0.31868584      -0.11646079      -0.11666979      -0.02159572       0.25006444       0.15364568
H        9.93655811       3.11072809       2.11333138      -0.08073158      -0.48474670      -0.17675422      -0.28142563      -0.00122101      -0.44385957
H        8.99853278       3.20157649       9.68849964      -0.20100639      -0.00050818       0.18999165       0.09401262       0.12269369       0.11414815
H       11.41695956       9.55795383       9.93919673      -1.22071641       0.51257936       0.54240232      -0.13889208       0.00498580       0.05069063
H       12.51725063       9.42234460       3.31339517      -0.56489857      -0.41749566       0.24822891       0.24709140      -0.21373176      -0.24574880
H       11.85832667       4.13105808       2.75136949       0.77217792       0.08025204      -0.35509969      -0.12640293       0.14275613      -0.16886057
H        2.19494525      11.09506923      10.35412215      -0.27505960       0.15818869       0.11067781      -0.02474565       0.04887187      -0.00078936
H        9.90686108       9.53885996      11.90895219      -0.22097455       0.13854803      -0.24806340      -0.02687377       0.15277727      -0.38869124
H        5.33488482       4.66673721       2.60562355      -0.07875511      -0.02280181      -0.19622596       0.12602630       0.06743825      -0.13841816
H        3.56803954      11.33692424       2.36184303      -0.69110878       0.72713134       0.06314781       0.03092904      -0.12911886      -0.25034636
H        3.07997028      11.89429297       9.03345635       0.28697007      -1.13673486       0.58726398       0.04037505       0.13199977      -0.09387673
H        8.78593569      10.72159973      11.18221259      -0.47381798       0.43895503       0.12391088       0.17295845       0.25559153      -0.12085017
H        4.33506859       5.75884724       4.45171007       0.51426391       0.43375528       0.38321575      -0.06692392      -0.11252681      -0.27909775
H        3.07889422      11.17780527       4.92730559      -0.45247583       0.30589300      -0.15384114      -0.21506001      -0.27567850      -0.13685793
H        5.37108679      10.56122499       8.53550625      -0.15082955      -0.93054805       1.14040037       0.11224839      -0.26485475      -0.02949151
H        4.33106917       5.42351755      10.68403509      -0.43228730      -0.69164212      -0.55521633      -0.03718997      -0.06988562      -0.01785693
H        8.50257141      10.21074761       4.15927411       0.11096387       0.52516212      -0.21613368      -0.17263692      -0.07488738      -0.20529755
H        3.76111572       9.76622350       5.69336977       0.26289708       0.06990491       0.27178354       0.03721769       0.22889124       0.04358200
H        9.17526812       4.49802910      11.58682691       0.01225231       0.16310647      -0.02524924       0.17555553       0.00489081      -0.02666880
H        5.35024139       4.58685821       9.49696371      -0.56571828      -0.08850181       0.35148664       0.05226656      -0.02461606       0.30625702
C       10.42554429       9.66732343       3.77810000       0.31627322       0.73929288      -0.10797110      -0.19496954      -0.01922886       0.17040256
C        4.44710787      10.06279589       3.79561528       0.35299868       0.98399576      -0.68234555       0.02216069       0.77217297       0.02682093
C        3.99247754      10.29590810      10.15514646      -0.52095832      -0.07680433      -0.35318699       0.26761276       0.24564806      -0.04014487
C        3.58025469       3.67248744       9.76681214      -2.10365377      -0.97747953      -0.11409175       0.48322654       0.74943570       0.03920493
N        4.44370005       4.09952644       2.58311171      -0.81396983       0.09628211       1.55254646       0.69591091      -0.12521730      -0.04027097
N        4.25192883      10.60697594       2.54423829       0.41077041      -1.41602308       1.65987209      -0.24865420      -0.01580284       0.19007571
N        3.01973963      11.12860493       9.76032832       0.51585125       0.28626995      -0.34327394      -0.86774695       0.79836448      -0.37762635
N        9.62490094      10.14859535      11.11210647       1.57413743      -1.19227479      -0.78706828       0.29743774      -0.35682537      -0.15353502
N        3.64897709       5.01952082       4.58025381       0.32956018       0.46362281      -0.48841302      -0.58420659      -0.10738185       0.07897936
N        3.79678419      10.45282358       4.91652856       0.21831987      -0.89947382      -0.28359735      -0.35422799       0.02636395      -0.56685550
N        9.85718778       4.70122844      10.83271154      -0.29498562      -0.03759938       0.30341388       0.61213845       0.32391757       0.45334438
N        4.44668794       4.60803709      10.02318593       2.29841363       1.42672895       0.13583207       0.31568188       0.39334061      -0.39094499
Pb       6.79700372       0.64666685      13.12066632      -0.32783585       0.31161251      -0.31418932       1.89193794      -2.82701899      -1.13609824
Pb       0.52511995       0.73704788      12.88056781       0.04911420       0.27815185       0.33828148       2.75251544       0.01980698      -2.67498192
Pb       6.65654040       7.21871712       6.99210408       0.27078818      -0.10439315      -0.25449775       0.08618429      -0.71237300       2.60540562
Pb       7.03597743       0.94256281       6.61589329      -0.00104680      -0.18948520       0.32881120       0.26722087       0.39855146      -2.86100994
I        9.89053070       0.33337576      13.48370525       0.05731836       0.03969156      -0.03341173      -2.25829407       3.41648407       1.68132614
I        3.56455824      13.99245048      11.67448000       0.23129110       0.05993011       0.33423714       1.01382182       0.78413831      -2.62089692
I        3.89555815       0.18896981       7.38467222       0.08433106       0.18729832       0.05136816      -0.29453822      -0.00815248      -2.81553299
I       10.17341985       1.11097648       6.16422801       0.28607993       0.06470179       0.12097194       1.38017284       1.93865136       2.50103220
I        6.07188645      10.27697368      13.08642991       0.06607981      -0.00285797       0.04789940       0.51724656       0.90720987      -1.13250387
I        7.36742075       3.96799801       0.23721918      -0.18107146      -0.03862009       0.18064986      -1.02019833       0.01331043       1.96220806
I        6.38320822       3.95803599       6.92765176       0.14225091       0.12013109       0.06000470       0.22758550      -4.08752460      -3.04987533
I        7.17260988      10.28055613       6.22964384      -0.11729099       0.06084770       0.28351909      -2.24415077      -2.83281921      -5.24316649
I        6.51683561      13.76737089       3.33140891      -0.12407405      -0.08244107       0.04375739       3.23967017       5.28322951      -2.05610114
I        0.88729000       1.01230263       3.44916463       0.21712815      -0.30246751      -0.05051947      -0.54979992      -0.17897864      -0.47547154
I        0.17809438       1.01826797       9.92470085      -0.09202451      -0.09373524      -0.13557790      -1.11005099      -1.24913120       4.36587702
I        7.51127138       0.44390001       9.91277641      -0.11694503       0.23844554      -0.16743226       1.47210658       0.09065503       1.52295792
H        2.66719138       3.53087208       3.60689476      -0.89656223      -0.99167198       0.00939825      -0.01583770      -0.03641789       0.12533752
H        5.30592719       9.31628634       3.94130646      -0.81790609       0.19567339      -0.09565204       0.09677139      -0.00085886      -0.00914989
H        3.78917095       9.65021116      11.05566589       0.00493131       0.33788456      -0.10554286      -0.00831107      -0.03341830       0.14053077
H        3.89862742       2.84267443       9.07266227      -0.10749065       0.13114308       0.29678782       0.22007930      -0.30467872       0.17848751
H        4.36018560       3.36635413       1.89055391      -0.15059261      -0.21986445      -0.51335354       0.03867206      -0.23454768      -0.02969777
H        4.91526203      10.37060472       1.81033162       0.47209797      -0.02108842      -0.75138855       0.01280174       0.09758955       0.06462348
H       10.47719544       3.29468805       7.95459065      -0.00165367      -0.21893696      -0.29743751       0.05395168       0.07131766       0.21443914
H        1.69236587       2.82022922      10.11234857       0.34835942       0.30520307      -0.09772283      -0.00386012       0.19937069       0.11852789
H       11.67720487      10.77364958       2.61309304       0.20894508       0.85027581      -1.08662004      -0.07471337      -0.03800841      -0.20106284
H       11.27501185       4.87154342       4.31414315      -0.03094456      -0.63194397      -0.67869323       0.33991501      -0.08246716      -0.00020675
H       11.50773329       4.54901135       8.64089372      -0.08717941       0.11718908       0.02767942      -0.03826904       0.00789813      -0.11321106
H        1.95334252       4.48392285      10.81759912      -0.01033931      -0.55356008      -0.29155640      -0.23292129       0.06587673      -0.00741631
H        9.53106839      11.29979816       3.05099235      -0.66438258       0.70330495      -0.30657093      -0.21020899      -0.21568426       0.01411954
H        8.81419427       4.23362846       4.69304082      -0.02299631      -0.16554564      -0.33621347       0.12358235       0.12154521      -0.06147117
H       10.53181707       5.47283383      10.96948159       0.22999416       0.01146200      -0.14579427       0.09874451      -0.24109982       0.08776402
H        9.55791117      11.77305233       9.05693457      -0.24683430      -0.05242259      -0.12577764      -0.08238797      -0.18656549       0.08187903
H        3.00967617       5.05848224       5.35984883      -0.71766391      -0.14198132       0.62005003       0.07754418      -0.17620544      -0.21641074
H        7.98408169       3.21468387       3.36987594       0.49855514       0.20167979       0.09688806       0.23299309      -0.02869346       0.24722762
H        5.85927285       9.45256625       9.90992814       0.18420124      -0.45634458       0.10737665       0.39802427       0.20199953       0.17386235
H       10.95787005      10.94842899       8.27332962      -0.36107292       0.29553827       0.09271336       0.01087130       0.09617842       0.01153317
C        3.50508219       4.19053336       3.59596890       1.66923969       0.14840267      -1.49575916       0.62974443      -0.07228261      -0.15464243
C        9.94658017       3.67475854       3.09850840       1.93069785       0.19931887      -1.90021426      -0.64467744      -0.02237024       0.35027957
C        9.78961501       3.96737095       9.75356085       1.03830993      -0.56452668      -2.08829340       0.26617209       0.26474498      -0.47385452
C       10.43573699      10.17960807      10.03258562       0.20433154       0.39213117       0.43453240      -0.84663671       0.04282111       0.23368933
N       11.56661052       9.89394501       3.13352181      -0.32125439      -0.02932396       0.86329045       0.47767292      -0.39649462      -0.38583526
N       11.11596889       4.25962262       3.42043059      -0.75407686       0.88436528       1.65432387      -0.63367660      -0.32285853      -0.55273943
N       10.63419234       3.98187277       8.67966756      -1.00967847       0.27225664       1.99872421       0.63609335      -0.07537394      -0.30807184
N        2.30660680       3.66963872      10.23022631       0.73971630       0.48598253       0.05453278       0.22820891      -0.12727600       0.57455745
N        9.38654064      10.50097049       3.66170283       1.23048868      -1.96370625       0.49606963      -0.04752083       0.15552539      -0.09024408
N        8.84379748       3.76006956       3.70669217      -2.52414710       0.34505728       2.11837236       0.74778407      -0.33125762      -1.11325861
N        5.14155955      10.08232222       9.49850915       0.00064549       1.80426118      -1.32815181       0.59376435       0.35304246      -0.86037363
N       10.23374907      11.00525012       9.02036579       0.75562799      -0.82190512       0.06817852       0.17533742      -0.46946161       0.32087636
Pb       0.41859207       7.26177339      12.93502506       0.03544688      -0.31925238       0.33985584      -1.97590276       0.67171446      -2.94854565
Pb       6.63723525       7.11941637      13.12816330       0.36487931       0.02242706       0.12304427      -1.56324887      -1.30810274      -0.87475213
Pb       0.86928467       0.68448933       6.64821868      -0.07207268       0.18338813      -0.07946256       0.18760913       2.97276192       1.96695894
Pb       0.47147914       7.10869697       6.74465728       0.31707442       0.12098602      -0.16439511      -3.50804925      -1.83423274      -2.07919872
I        3.70734174       7.16713331      12.26492355      -0.37225254      -0.20046619       0.15873059       0.77987441      -1.06500668       1.99834998
I        9.91493520       7.32760770      13.66896391       0.10871535       0.10323483      -0.11383862      -2.73644463       1.27961844       2.67626741
I        9.92774862       6.57194699       6.27658690       0.06867403      -0.05673997      -0.09762043       3.64961097       0.14993297       1.07217392
I        3.72836961       7.39444329       7.52937588      -0.25417102       0.17502229      -0.15700115      -1.06039782       1.58423771       0.15139348
I        0.45871297       3.92379182      13.43286585      -0.01161769       0.13234390      -0.05397036       2.46487415       0.18949636      -1.86922447
I        1.20421612      10.26749476       0.07910614      -0.02863912       0.15922157      -0.02277213      -0.71040542      -1.25367730      -1.10611032
I        0.50302443      10.40386599       6.53686297      -0.22074500       0.23939064       0.20912302       0.70079725       1.81064359      -0.23021359
I        0.99993804       4.16593488       6.66898800      -0.09996897      -0.58218911       0.08123511      -1.42520469      -1.73510812       1.00176573
I       13.73376467       7.37559627       3.72210471       0.05077284      -0.15717987      -0.45339304      -1.13052394       0.32654341       1.57683909
I        6.29092940       7.09342566       3.55245910       0.37832172      -0.03505152      -0.03110673       2.53254169       2.28191393       2.52996223
I        7.63874468       7.38224130      10.09393591      -0.11493271      -0.05400330      -0.36934071       1.39126447       0.86586720      -3.24150947
I       -0.30570367       6.81415257       9.85421868       0.12173384      -0.04232928       0.12884840       1.79231084       0.17157082      -2.65582116
H       10.05293286       9.04791500      17.08215501       0.10231722      -0.48867563       0.17766693       0.08019416      -0.33119776       0.01503965
H       10.10645413       3.03917918      14.63654920       0.06847569      -0.22747657       0.17826332       0.26427475       0.09540932       0.02919405
H        8.49138241       2.62920354      22.37647546       0.48682288      -0.07943854      -0.00710072       0.00599995      -0.01351989       0.15762864
H       10.76136601       9.42728608      22.70460148       0.61003651      -0.49243072       0.06747725      -0.02173230      -0.14416032      -0.18900409
H       12.11308248       9.28326005      16.12032185       0.36748525      -0.35360516       0.11765186       0.20032681      -0.02938133       0.10048990
H       11.65203680       4.56355477      15.47571923      -0.56521481       0.66775713       0.50220019      -0.04661738       0.11183569      -0.26799374
H        2.24150556      10.45273223      23.15038230       0.41912052      -0.07266195      -0.47807853      -0.09849714       0.14323026      -0.24111577
H        9.31929696       9.65353244      24.45020791       0.32040223      -1.15725739       1.53327546       0.02410027      -0.12075870       0.12352726
H        4.80467350       3.87860082      14.89576511      -0.07162287      -0.24327450       0.19201444       0.07405982       0.02062932       0.15131962
H        2.80044219      11.89964941      15.85857370       0.04512195      -0.23234962      -0.32629062      -0.30123439      -0.19901722       0.14818590
H        2.99817351      11.71251027      22.12178880       0.17857359       0.79814043      -1.12602184       0.06523113      -0.02663031       0.06083707
H        8.30945473      10.85775036      23.76599214       0.04791817       0.34059709      -0.12415625      -0.02898654      -0.13188492       0.13140966
H        4.67167652       4.71286004      17.20082521      -0.05961654       0.07352275      -0.10564635      -0.06291677       0.18084071      -0.00177936
H        2.42759621      10.76813314      17.99365909      -0.01221522       0.12260203      -0.04276561       0.06775120      -0.15620538       0.02612537
H        5.34538001      11.01072751      21.07628500      -0.51984868      -0.30861064       0.66560342       0.04971778       0.21972462       0.12061747
H        4.37411503       4.85773275      23.18542629      -0.13364723       1.04857232       0.99647188       0.15875999      -0.17649253      -0.09843550
H        8.28966083      10.42695480      16.74961923       0.67352860      -0.00358429      -0.17571187       0.04212192       0.02272025      -0.01815627
H        3.46712016       9.38804419      18.39765947      -0.32025089       0.32909225      -0.34819326       0.24066935      -0.19427803       0.09449713
H        8.84936224       4.20401950      24.04921680      -0.36495761      -0.12636586       0.21190072       0.22015324       0.04480596      -0.07487996
H        4.98048941       4.39156725      21.51056662       0.14975639       0.02545741      -0.04137783       0.26177685       0.30530655      -0.07334566
C       10.21761333       9.86905290      16.39266140      -0.32196133      -0.35469432       0.04908820      -0.34968491      -0.62384009      -0.68683467
C        3.65965186      10.06709759      16.48106911      -0.24715951       2.10901661      -1.54167742      -0.13548980       0.85414868      -0.35565988
C        4.05263986       9.79300389      22.32197401      -1.87497122       1.98967833      -1.74162522      -0.29359359      -0.25091842      -0.07178404
C        3.14608714       3.69177779      21.86372604       0.74221235       0.84838362      -0.33065878       0.21218326      -0.51819618      -0.10963216
N        3.77430610       3.47757871      14.98645882      -0.57712549      -0.79169857      -0.49519557       0.04991562       0.59884899       0.57908499
N        3.40275526      11.06116418      15.59061703       0.22468229      -1.06229811       0.46856152      -0.03709634      -0.81126728       0.01633933
N        2.96133794      10.63684933      22.39380267       0.67130333      -1.82510882       2.06789447       0.33475613      -0.51556916       0.29030407
N        9.24361754      10.35044376      23.76222886       0.01886314       0.37145339      -1.02624716       0.15383175       0.79920910       0.28659733
N        3.61661858       4.27450832      17.16995150      -0.67756447      -0.35979764       0.52330809      -0.28057069      -0.34096651      -1.34407502
N        3.14768618      10.10494188      17.69516315       0.84190740      -1.27992516       0.64883798      -0.67939916      -0.26670601      -0.76171410
N        9.38050470       4.28107998      23.18292551       1.23507106       1.45518860       1.11135261      -0.15866349       0.36804510       0.08668899
N        4.24639179       4.36305543      22.24732689      -0.38919141      -1.16776030      -0.64712390       0.04976844       0.87062586      -0.85477221
Pb       6.85835900       0.70344704       0.48972970       0.09675691      -0.15790491      -0.35011644       5.29471900      -0.32745616      -0.27188330
Pb       0.33657133       0.93355684       0.12871584       0.32171525      -0.04365287       0.04075607      -4.62353199       1.91159278      -2.21372490
Pb       6.82765258       6.96324608      19.34882694       0.14624957      -0.09738493      -0.21106838      -0.69687190      -2.02576106      -0.26040173
Pb       6.78617051       0.35536242      19.23379730      -0.30786754       0.36746008       0.17447290       2.10955390       2.47368521      -4.16238532
I       10.26743296       0.53177957       1.07093318      -0.54011382      -0.20640823      -0.05285741      -0.80107046       3.55178845      -0.24308827
I        3.62887048      13.69589914      24.97039568       0.13349378      -0.06315060      -0.04940557      -0.46441535      -3.83289122      -0.13874274
I        3.57366203       0.66622658      20.20076558       0.05158932      -0.25663572      -0.15840957      -0.15761390      -0.11674834      -0.29955629
I        9.73668803       0.63443694      18.94635698       0.46719756       0.06574627      -0.13793768       0.57667991       0.31705441      -1.95766431
I        6.84231592      10.44788772      -0.04140859      -0.19541205      -0.42389542       0.20387196       2.06146093      -1.29519194       1.03784682
I        7.22132395       3.78500451      13.18385611      -0.13273281       0.20337300      -0.11423901       0.66331441      -1.37395705      -0.76144289
I        6.43216367       3.76121059      19.46632457       0.09299872      -0.17722379      -0.11884483       0.25597664      -0.60156442       1.68164621
I        7.36279498      10.17810159      19.19730642      -0.10669448       0.01346989      -0.23794629      -3.35083647       0.96061681       0.53330688
I        5.90449942      13.65963616      15.81388645       0.00372718       0.00191407       0.17893063      -0.39080194      -2.88507700      -1.74697482
I        1.48121121       0.53118091      16.29535774      -0.09870023      -0.18571145      -0.50803942       0.77241261      -0.57901165      -0.41177543
I       -0.49887880       0.96484665      22.25489582       0.11909433       0.03980762       0.33411980      -0.78537465      -1.17207221      -0.36779161
I        7.21699009       0.78400737      22.52850384      -0.02105215      -0.42923721      -0.14725560       2.58411806      -2.35010233      -1.32724621
H        1.82131937       3.20614638      16.13113921       0.87856800       0.65691528      -0.15433127       0.12701503      -0.21022569      -0.09646440
H        4.42162906       9.33645850      16.09038421      -0.24076354      -0.64384025       0.74105296      -0.12937768      -0.07591701      -0.00442435
H        3.89734513       8.76147178      22.77839122       0.54332933      -0.48426986       0.69578918       0.06518740       0.09514260       0.06446185
H        3.18670504       3.28323856      20.70817337      -0.38228490      -0.34966992       0.21967915      -0.02144046      -0.07437446       0.11763968
H        3.37647687       2.90347113      14.14698462       0.04061233       0.74095615       1.04739827      -0.21556307       0.09930282       0.12448306
H        3.75475552      10.83113415      14.59641577      -0.12798076       0.51294047       0.19846685      -0.14705403      -0.05466104      -0.20370951
H        9.66721109       2.60290669      20.51810824       0.65956035       0.51035062      -0.31169720      -0.05637957       0.05277979      -0.09187581
H        1.37467583       2.84925649      22.29826397      -0.36556709      -0.21722066      -0.10534689      -0.01055833      -0.13748375      -0.10542981
H       11.74125527      10.65814723      15.20565802      -0.12664545       1.03108745      -0.97615553       0.11769786       0.14972129      -0.01586268
H       10.47556553       5.10118768      16.85070000       0.59072896       1.34209047       0.90897417      -0.04339628      -0.01821169       0.22979632
H       10.65337032       4.10544323      20.83872303      -0.16617066      -0.24837570       0.07045713       0.04829229      -0.03751854       0.00202000
H        2.00058446       3.74886437      23.78282978      -0.07120046       1.38074425       1.22340498       0.14003455       0.06558080       0.15513094
H        9.29717743      11.60697285      15.80766672      -0.13068424       0.23511868      -0.82683358      -0.21741229       0.20457376       0.13688145
H        8.57382765       3.73003530      17.33422739       0.03152691      -0.61581358      -0.72613208       0.40918456      -0.10062224       0.05044280
H       10.03748096       5.07210467      23.09784420      -0.03833680      -0.14092306       0.10906086      -0.02387020      -0.15329141       0.04190265
H        9.17692668      11.72254941      21.63221289       0.47173443      -0.63834153      -0.38920748      -0.05189411      -0.01965851       0.06213535
H        2.86093623       4.47846492      17.93112900       0.46700018       0.03134122      -0.32279785      -0.24469934      -0.21231053      -0.03781764
H        8.12698790       2.51399535      16.08996607       0.32831224       0.32099112      -0.12221601      -0.05890923       0.04256471       0.01337802
H        5.98028031       9.49774531      21.77495074      -0.27308796      -0.00046561      -0.33911272      -0.13394794      -0.13856640       0.18524729
H       10.55388399      10.80735518      20.85440256      -0.19781906       0.16935393      -0.13364955       0.25513756      -0.22663550       0.06784998
C        3.01416804       3.62724381      16.09976193       0.32314341       0.19378021      -0.92590911       0.09979277      -0.43892849       0.12430274
C        9.90064143       3.57617502      15.63478574      -0.96135378      -0.28045109      -0.47182598      -0.25746393      -0.52587633      -0.13144595
C        9.28814250       3.38829254      22.26259651      -0.76197394      -0.09675090      -1.12168126       0.07942629       0.14792045       0.80150907
C       10.00523608      10.18930324      22.70077002      -1.06650783       1.44453157      -1.18318975       0.03900123      -1.08862854       0.15980297
N       11.40615353       9.95926400      15.84228929      -0.30780315      -0.33829141       1.07001065      -0.66556840       0.55068615      -0.69103726
N       10.73465779       4.54512683      15.99504082       1.29979296      -1.40460299      -1.29722107      -0.15896660       0.16171945       0.41608720
N        9.94054264       3.41857723      21.12052983      -0.47921846      -0.90634325      -0.17516678       0.73120488       0.33982821      -1.65389349
N        2.07672227       3.52021243      22.65316915       0.44605500      -1.33816665      -1.11151065      -0.53531817      -0.30976727       0.38695156
N        9.15540533      10.60938331      16.19510774      -0.29967627       0.32047551       0.56045167       0.44867959       0.43834943       0.03110584
N        8.76679188       3.30550490      16.32203452      -0.80715751       0.22359477       1.20540239      -0.25119306       0.19305204       1.13642057
N        5.12725867      10.07719423      21.59055981       0.61202304      -0.11877743       0.59768692      -1.17115703       0.01799055       0.36470681
N        9.82043300      10.89640178      21.58099405       0.16879026       0.00012835       1.04501096      -0.65456201       0.48467938      -0.00957336
Pb       0.90162042       7.27047827       0.32326009      -0.25994566      -0.17779793       0.26049646      -0.22291907       2.77997254      -0.06673948
Pb       7.20827491       7.09870416       0.23242154      -0.28409657       0.09583442       0.34888912      -0.11525517       3.06520167      -2.68212503
Pb       0.48651947       0.70675535      19.13194089      -0.16593920       0.01257336       0.14375105       0.17067298       0.74315647       5.28976425
Pb       0.53146373       7.09874437      19.44280549      -0.02847660       0.12802645      -0.24610085      -1.04704566       1.62885455      -1.13795008
I        3.49599817       6.47872390      25.18286880       0.34859555       0.19582248      -0.14774176      -0.09406194       2.74172317      -0.90584261
I       10.28233057       7.56935303       0.47468632      -0.13944902      -0.22700912       0.27998798       0.02179971       2.68866636      -1.50909663
I        9.98593484       6.56544974      18.71521732      -0.01389798       0.02105595       0.06300384      -0.47562671      -1.64879443       2.24715355
I        3.74476563       7.41305810      19.76203434      -0.35113297      -0.13825143       0.10691626      -1.19169050      -2.55840860      -0.67981953
I        0.49307726       3.96034826       0.77108292       0.09341898       0.23341317      -0.20332096      -0.60367964      -3.04165029       1.51466007
I        0.98523991      10.31923139      12.51140226      -0.25681975       0.13690262       0.15049552      -2.30389867       0.72815444      -1.98003680
I       -0.42577344      10.15333437      19.05488109       0.23342566       0.33609187       0.09389271      -1.25132604       2.38594998       1.59137492
I        0.71436101       3.97996550      19.01477423      -0.15418876      -0.25173943       0.13746558      -2.43935465       0.70251509      -0.95090653
I       13.89063310       7.40147716      16.23139303       0.06769686      -0.12417972       0.25886396      -1.71671863       2.41166390       0.91570697
I        6.22963146       6.71379332      16.27625798      -0.06875092       0.04272424      -0.11846188      -1.51789920       2.41004273      -0.41300062