768
Lattice="31.52003920688824 -1.0395494997101957 0.3212732111417801 -0.9162685860741572 30.3547437254124 0.028757121508259497 0.35595936046071336 -0.14720492652102254 17.2635365134837" Properties=species:S:1:pos:R:3:forces:R:3:momenta:R:3 energy=-3636.161626306869 stress="0.0 0.0 0.0 0.0 0.0 0.0 0.0 0.0 0.0" pbc="T T T"
H        1.57456463       2.33220957       7.03030510       0.31084533      -0.09031134      -1.60942351      -0.10022954       0.06017100      -0.14473776
H        3.55995812       1.40291594       5.77670379      -0.19585911       0.24844206       0.51642165      -0.37134812      -0.04552369       0.15860453
H        2.80892289       1.71755707       4.20700939       0.06019120       0.26541786      -0.71432711       0.09385613      -0.19698935       0.20171504
H        0.72627307       3.07728933       4.14527276      -0.50100698      -0.06359194      -0.20035037       0.09259435      -0.03373387      -0.09670924
H       -0.25478601       3.30783744       5.68971945       0.90339805      -0.42234250      -0.58851527      -0.03360329      -0.11440053      -0.21630837
H        5.68796688       6.03333304       2.02351151       0.08108217       0.38832962       0.69687132       0.00627796       0.02521980       0.00853783
H        5.96150400       6.93257809      -0.20665387       0.16022152      -0.77997053       0.39184348       0.11546060       0.28118447      -0.10495529
H        5.76303790       5.39846835      -0.98702295       0.09824842      -0.73436929       0.13573349      -0.01459171      -0.29016056       0.14876393
H        5.21239920       3.20028258       0.90204589       0.01796272       0.32736792       0.09220541      -0.26365295       0.01218764       0.01283760
H        5.14435754       3.74737056       2.60613312       0.26673600      -0.60209252       0.70537591       0.22625845       0.05772115       0.25293723
C        1.61282785       2.36610260       5.84405585       0.57869666      -0.10658824       2.77362883       0.05887138      -0.18006348       0.56016700
C        5.63150495       5.31186959       1.23211865      -0.63197242      -0.22500366      -1.89603667      -0.08541993       0.81232667       0.27763266
N        2.74975220       1.92450980       5.24572383       0.48988502      -0.69962503       0.21206627      -0.72855741      -0.06215535       0.23107467
N        0.58385131       2.86110891       5.16719487      -1.63446750       1.02535360      -0.42406431      -0.35730598       0.16409284       0.58554668
N        5.82586229       5.86790844      -0.05724029      -0.14178662       1.66359655       0.07746908       0.13013921       0.17161774      -0.05234778
N        5.30328901       3.96920939       1.58722347       0.17253891      -0.23041373       0.13483379       0.28720416      -0.32757921      -1.20274747
Pb       3.66531367       0.10501510       1.12533318      -0.35330314      -0.51287146      -0.30150668       3.16487070      -3.00943222       0.24594733
Pb      31.19187573      -0.53121077       1.74930458       0.08714406      -0.18535941      -0.24448585      -1.25995418       1.31499614       2.88408275
I        5.77727462       0.70456117       3.28507869       0.21224613       0.11857614      -0.06887299      -0.61177735       1.21172790      -1.81872828
I        1.39448825       6.78021578       3.01009480      -0.15249144       0.04153233       0.23266153      -0.05455487      -0.42478662      -1.05444530
I        5.54384199       1.02849289       7.69556011       0.03476123       0.17207120      -0.24541415      -0.68914720      -0.05504616       1.38520676
I        1.50813635       5.94537458       7.52050732      -0.29392513      -0.12701273      -0.03709981      -0.94957305      -0.22435432      -1.08198842
I        5.20028136       4.63569395       5.29474427       0.25877296       0.15822291      -0.32048661       1.17739829       0.94155203      -2.96313555
I        1.88007542       2.80836671       1.48050883       0.07794853      -0.00923429       0.11559169       4.18336012       1.46655641       1.29795288
H        2.11081203      11.55632888       0.40795488       0.04297780       0.11520276       0.36302120       0.03576211       0.10792185      -0.01879504
H        1.95010536      11.72839323       2.84830878      -0.23093341       1.36207362       0.19832391       0.02041160      -0.10521366       0.13533940
H        1.66293052       9.96675287       3.07672903       0.18561734      -0.27795320      -0.04430656       0.02370883       0.06214499      -0.07422146
H        1.80084967       8.50638307       1.02784950      -0.05840341       0.25395108      -0.11407580       0.25593524       0.05780941      -0.02905364
H        1.93963661       9.47834019      -0.52575535       0.10277136      -0.67658532      -0.59505441      -0.30502597      -0.07872098       0.07509774
H        4.67572214      10.99059958       5.90849488       1.08776480       0.69296242      -1.21703343      -0.20202362       0.16190288      -0.19320827
H        3.09226676      12.72199784       5.70644868       0.45067945      -0.38930747      -0.01916752       0.13222989      -0.05542697      -0.20111086
H        4.27877993      13.79994461       4.93943685       0.00069253       0.52393462      -0.24582040       0.10821204       0.00150005      -0.06110590
H        6.83954303      13.18256463       4.76999537      -0.11164561       0.55266705      -0.43258098      -0.12696897      -0.03335517      -0.21361227
H       12.50766348      14.76108173       4.99936842       0.26007415      -1.19668748       0.88016950      -0.09441600       0.00200859      -0.06221834
C        1.99156995      10.66674270       1.08517419       0.00864655      -1.65967172       0.16203544       1.57648259       0.34115822       0.36593926
C        5.06379284      11.98318686       5.42013579      -1.65392291      -0.14340429       1.61006142      -0.40607836       0.58199015      -0.20199492
N        1.88929105      10.79438736       2.40920787      -0.10399936      -0.14929623      -0.00797907      -0.41191894       0.09456932      -0.15169868
N        1.90991734       9.42676642       0.51035475      -0.10037170       1.12939452      -0.07199004      -0.80761465      -0.54415069      -0.47729165
N        4.07646433      12.87608803       5.35220709       0.49806037       0.06503927      -0.54173996      -0.46543284       0.05474244      -0.40628055
N        6.37819530      12.25979433       5.08699743      -0.69695124      -0.35055219       0.66142647      -0.09627022       0.19937461      -0.34787365
Pb       3.41442732       7.41429718       5.51512157      -0.01486275      -0.07040797      -0.17571900      -2.85527693      -0.28028614      -2.81917682
Pb      30.97121700       6.67911445       5.98553488      -0.10851939      -0.21393038      -0.14208063       0.19293086      -0.23600373      -1.96052751
I        5.48161401       8.58279858       7.61938175       0.00763577      -0.18737703       0.03862733      -4.03537573      -2.00515442       0.08979457
I        1.33437208      14.06460421       7.49116220       0.12749727       0.04667315       0.43718333       1.22398812       1.16216897       0.39331459
I        5.07679012       8.88645428       3.18697386       0.34764405      -0.11989548       0.06761829      -1.64444919       1.59278464       0.00623414
I        1.14320150      14.28744047       3.41320292      -0.18930763      -0.04993209       0.04286717       2.99463622      -1.60019242      -3.08394779
I        4.52504856      12.61753650       1.04414109       0.11131484      -0.59386342      -0.11197966       0.32229597      -1.58930657       0.49592631
I        1.59168218      10.05781723       5.92119148       0.08791774       0.24934808       0.04209024       2.59537241      -0.33417895      -3.08246573
H        9.03984513       3.30262037       4.40382010      -0.04770304      -0.05595721      -0.00184413       0.19069983       0.22798445      -0.13259433
H        8.74430125       4.01479149       6.58306137       0.17723377       0.75291439       0.21030276      -0.00279151       0.10409628       0.03267023
H        9.30697839       2.44765297       7.28513465       0.05897631       0.12351781      -0.01687638      -0.04486555      -0.04004574      -0.00914531
H        9.99496587       0.56501025       5.56571704      -0.19883079       0.14737302      -0.09568127      -0.08913411      -0.10693892      -0.11944397
H        9.78894273       1.19891132       3.90319079       0.01927750      -0.46216621      -0.42495503      -0.24816094       0.02456687      -0.13125813
H       13.34695193       6.12671083       1.59367591      -0.11366149       0.44627157       0.01272847      -0.00992652      -0.06723755       0.09495671
H       15.39292776       4.89756047       1.89101340      -0.25290292       0.31998794       0.13957835      -0.12793908       0.14528214      -0.18671807
H       14.60568830       3.27637062       1.46687612       0.15483196      -0.55442912      -0.48716000       0.03290562       0.06829912      -0.04598570
H       12.05306821       3.30367628       0.77722834       0.66348952      -0.35327314      -0.17336243      -0.05153202       0.00271273       0.09354966
H       11.44106982       4.95409397       0.87280526      -0.97625064       0.80118808       0.13192986      -0.07407675      -0.10897861       0.18308012
C        9.27135288       2.57855523       5.23057561       0.06292972       0.28415608      -0.47654531       0.20481314      -0.38311403       0.54551289
C       13.34990923       4.99853577       1.36961975       3.33710647      -0.48479316       1.03217763       0.46764695      -0.44433290      -0.16414652
N        9.14150067       3.03872449       6.44252236      -0.31492984      -1.00983111       0.25912039      -1.02874473       0.02921614       0.51899013
N        9.69300591       1.34658349       4.89777890       0.17354806       0.05464805       0.15676465      -0.32597180      -0.31905523      -0.08856365
N       14.53370594       4.34965853       1.60580423      -2.02097822       0.83397431      -0.19009251      -0.06309695      -0.01005161       0.01319707
N       12.25236498       4.38754436       0.97310562      -0.77450900      -0.70851877      -0.54668776       0.47507655      -0.45179654       0.10843579
Pb      11.54775056      -0.26146718       0.74045781      -0.25804596       0.13862171       0.33476244       0.97948124       2.18055396      -0.07952054
Pb       7.62283963      -0.45765792       0.57084404      -0.17495139       0.06953935      -0.01806756       0.47495647      -0.93092767       0.76775568
I       13.05977149       1.26368936       3.18362628       0.10882857      -0.07939328       0.01913844       1.79194030       2.04024417       1.96283702
I        9.22807058       6.02139449       3.01571370      -0.19060283      -0.19905396      -0.14142480       1.68305569       0.34559198       1.85025664
I       13.77826644       1.55717459       7.86550106       0.28223750       0.18173004      -0.40036589       1.73495754      -0.26266303      -1.74262692
I        9.20754883       6.25675518       7.62553477      -0.17539430       0.13250225      -0.01271683       1.27354672       0.76395353      -1.27877879
I       13.26851221       4.69500368       4.96902093      -0.01441361      -0.23002131       0.07324518       0.22090049      -2.17495461       0.23891927
I        9.24604052       2.16409071       1.18072207       0.22225885       0.17587843       0.03039704       1.82181599       1.48527219       0.37407674
H        8.45577299      10.55069907       2.49722225       0.48289481      -0.69101790       0.10269857      -0.18761510       0.09667115       0.09243404
H        6.89217627      10.40922346       0.49972669      -0.24072546       0.26906539       0.66177801       0.32324705      -0.05780274       0.11342430
H        8.21358536      10.02378288      -0.52557782      -0.07865116      -0.13863220       0.21689485       0.38719095       0.11764774       0.34676890
H       10.32692433       9.49262960       0.22508820      -0.40091406       0.00533344      -0.20186087       0.21661496      -0.01441340       0.01175272
H       10.77496854       9.60666656       1.88539382       0.04730939       0.05706887       0.80834310       0.12839597       0.08345718       0.22596187
H       12.61201687      12.81497531       3.69842730       0.29018307       0.06064147       0.23442671       0.02296569       0.03888457       0.02206614
H       13.38706208      10.80989452       4.58009222      -0.26257869       0.68795308       0.75376474      -0.12455040       0.05950852      -0.04368627
H       13.49703740      11.29696878       6.28607543      -0.13865418       0.68891937       0.22720784       0.13605373       0.05434296       0.13288606
H       12.89158823      13.93334473       6.52790966       0.23979679      -0.41842818       0.26864171      -0.04279389      -0.21049759       0.10265409
H        7.05438280      11.54341409       5.26931882       0.59628562      -0.78398524       0.02659794      -0.21754732       0.10735025      -0.16312799
C        8.76882163      10.13750311       1.47389118       0.95995539       0.25777706      -1.48942674       0.46000276      -0.37090539       0.21379458
C       12.89517995      12.76897996       4.78262854      -0.15916546      -0.30176413       1.62772912       1.23348086      -0.12931140      -0.23976696
N        7.90417476      10.22967801       0.45151507       0.46531703      -0.14281219      -0.68539879      -0.09732116      -0.08979532      -0.67137020
N       10.01685765       9.72131247       1.18441720      -1.07571055       0.41132033       0.46936138      -0.89800316      -0.02639984       0.50963715
N       13.22541156      11.59205746       5.30389392       0.37628504      -1.78968424      -2.17650960      -0.44083817      -0.27321154      -0.37860297
N       12.79444866      13.85963293       5.52029806      -0.55877590       1.94614986      -1.78996088      -0.37827257      -0.04525476      -0.27046717
Pb      11.17772519       7.12317728       5.14507286       0.18014049       0.19321531       0.05007776      -1.07015201       2.05046570      -3.93117277
Pb       7.27518774       7.28142493       5.20280091      -0.23992335       0.16248708      -0.05079201       0.91220181       0.24332274       0.48638729
I       13.07695899       8.42773549       7.41624717       0.20129592       0.02126396       0.09250616       0.01284013      -1.80112275       0.69652036
I        9.52789045      13.80761340       7.05549848      -0.03122961      -0.19805351       0.00497755      -1.72208754      -0.20926453       1.97772855
I       13.07162393       8.68234437       2.95093173       0.06890059       0.06950466       0.22164355       0.01102638      -2.59314887      -2.24695111
I        9.22363346      13.54599029       3.02463642      -0.28892249      -0.13988468      -0.00486179       0.50851655      -0.70244877       3.55577422
I       12.71975821      12.74487270       0.67883486       0.29598049      -0.10536709      -0.00065293       0.00449897       0.50498613       1.65905514
I        9.39625963       9.76297044       5.34631331      -0.27118550       0.19791434       0.08791651      -1.16067189       1.71788338      -1.22951744
H        1.19974900       2.56097967      15.43469263      -0.62699178       0.02307152       0.53586576      -0.06570663       0.17601378      -0.06048839
H        3.36563623       1.98624707      15.24249919      -0.01927121       0.03052647      -1.00996187      -0.07183404      -0.22191708      -0.10052547
H        3.35541207       2.10388762      13.38989062      -0.42051401       0.22126472       2.00125526       0.03890295      -0.06211854       0.17648394
H        1.23384315       2.98136163      12.40358215      -0.11859036      -0.11008995       0.58301596       0.30668391       0.02835573       0.11371048
H       -0.10485621       3.12807756      13.60467459      -0.21468675       0.02643134      -0.31596614       0.02645785       0.02557880      -0.15491332
H        5.08686520       5.44377564      10.74062508       0.05201622      -0.91623827      -1.13818863       0.04532558       0.09794656       0.10578037
H        4.90104484       5.91182939       8.52167722       0.01419289      -0.90867946      -0.70363710      -0.04776222       0.29719021       0.25099252
H        5.34216557       4.13744682       7.98171638      -0.27346459       0.88341468      -0.50911658      -0.18156179      -0.13399218       0.03041055
H        5.93397507       2.64951219       9.81476988      -0.08314913      -0.54897081      -0.15997643       0.21025928       0.22883816      -0.13523787
H        5.83181885       3.34768825      11.41495246       0.30966686      -0.34471016       2.07554450       0.27976627       0.05977901       0.14453749
C        1.59787980       2.54456032      14.43490512       0.59643352       0.32872535      -0.97685677       0.30208409      -0.29276443      -0.42998471
C        5.30545428       4.61733105       9.93747307       0.39637718       0.40536392       3.84174037       0.77091003      -0.02625369       0.89578376
N        2.87515130       2.24517884      14.33805260       1.32127135      -0.74505753      -0.99815678      -1.08043372      -0.46787991       0.10729449
N        0.86669868       2.89738987      13.39083351      -0.47445021       0.14829812      -0.02500337       0.40573585       0.63746279       0.63381141
N        5.11438584       4.90080165       8.69420357       0.01770265       0.37719839      -0.58226248       0.66700616       0.31165972       0.85136723
N        5.71075453       3.44148610      10.45443549      -0.35341969       1.60775759      -2.74475135       0.27933947      -0.30068712       0.40243587
Pb       3.84349187      -0.38789857       9.95869755      -0.13623346       0.16755850       0.08950224      -0.75495618      -2.55865205       0.64149175
Pb      31.36798469      -0.85674249      10.15877168      -0.46269219       0.38328880      -0.11404181      -1.61226048      -2.19468973       2.44934479
I        5.75811711       0.65140800      12.31104223       0.17698288      -0.03930021      -0.19992553      -2.13422731       1.92309169      -0.19568814
I        1.56870361       6.24424841      11.78410565      -0.03458979      -0.06930522       0.06441360      -1.65737591       0.75524048       0.26015607
I        5.65934149       1.26001629      16.06774896       0.19444300      -0.04849047       0.39150945       0.33019768       1.27901735       0.43934885
I        1.73213839       5.88858683      16.11003171       0.27129427       0.10782960      -0.20277289      -0.43123009      -0.50101644      -1.01946426
I        5.93647340       4.64708311      13.91445804      -0.04043916       0.53006993      -0.13956267       0.77291991       0.76005619      -0.43343987
I        2.14833509       2.56914027       9.88859808       0.11042712      -0.33854235       0.04249646       3.25888117       1.46084863      -0.08114213
H        1.10976447      10.91781250       8.86698776      -0.04011942      -0.25041898      -0.41550360       0.06155861       0.43372459      -0.23771571
H        1.26826334      11.76032430      10.97004066      -0.18349190       0.15074288      -0.19748652       0.10109240       0.28628909       0.15759146
H        1.37130224      10.25078841      11.75119658       0.04954227      -0.75912472       0.52979002       0.21645610      -0.03489623       0.05777639
H        1.43998925       8.16349083       9.97517938       0.09551183      -0.35082549       0.11904735      -0.08823714      -0.26988401       0.39041652
H        1.41495002       8.76790672       8.33732460       0.04614716      -0.69091085      -1.56949060       0.32681477       0.20146982      -0.09880761
H        4.49600139      11.08914586      14.25536637       0.22935584      -0.20369950      -0.02782083      -0.08130719       0.07309567       0.09344548
H        3.72963370      13.45366604      14.69856691      -1.38061222      -0.02609491       0.76818354       0.02250564      -0.09535385       0.07829351
H        5.02095393      14.54445737      14.06524757       0.36434261      -0.37602856      -0.00055629       0.23968583       0.08623772      -0.04871864
H        7.13038238      12.87277693      13.44258476       0.53003361       0.85920275      -0.93003297      -0.03338361      -0.13489934       0.00492648
H       13.26547083      14.79562674      13.88953630       0.29229043      -1.44114249       0.41940727      -0.08428577       0.14722434      -0.11867000
C        1.19553207      10.16006153       9.65094042       0.44059595       2.09563937       0.27954012       0.96181503      -0.07715979       0.67080931
C        5.16422173      12.13806960      14.02876754       0.28902592       0.29460055      -0.08251907       0.14508667      -0.07389892       0.34613762
N        1.21728896      10.72677597      10.85914781      -0.04571561       0.05707176      -0.26085706      -0.83718686      -0.32339888      -0.32099693
N        1.37201289       8.92609469       9.30456561      -0.31604037       0.23563352       1.51036622       0.14113456       0.76833245      -0.64868823
N        4.63581860      13.50540369      14.30595742       1.41916016      -0.13788996      -0.80654161       1.66720775      -0.67627643       0.09164995
N        6.41509547      11.93466837      13.57745836      -0.85934832      -1.47160661       1.43340539       0.26585755       0.10529493       0.14095171
Pb       3.78286383       7.38455227      13.98489610       0.29415223      -0.29179994      -0.36278510       3.31690455      -0.32910266      -2.13097817
Pb      31.20953284       6.16363510      14.50563235       0.24782126       0.59333337      -0.02480132       3.80765335      -2.05853053      -1.34973164
I        5.73411761       8.83309608      16.01952318       0.09625597       0.23084601      -0.31589613      -0.43765824       1.38413390       2.54544459
I        1.49228947      14.34009611      16.21678401      -0.11015658      -0.34337851      -0.19032922      -0.38511419      -0.51873911       1.81242804
I        5.95974481       8.51287032      11.29820176      -0.44831818      -0.22344511       0.64108848       0.69638687      -2.02579406       1.98670858
I        1.52877849      14.22086604      12.17749279      -0.12997945      -0.08055464      -0.47811376       2.29733159      -0.98495296      -0.90358783
I        5.15922162      12.37977951       9.01793002      -0.02785966      -0.23252497       0.12094003       0.15101735      -0.98534348       1.30352029
I        1.90537057       9.86346082      14.16399719       0.04913899       0.18111355       0.19453870      -2.57002105       3.25408281      -0.69025129
H        9.65601467       3.62883522      13.05238843       0.10221167       0.10057362      -0.01168454       0.13171756      -0.07797190       0.22139080
H        9.28295853       4.05255199      15.35516303      -0.22833498      -1.35466913      -0.41216295       0.04174269       0.12106382       0.22217652
H        9.52377397       2.32905096      15.79067668      -0.17924134       0.74750152      -1.01126249       0.20773242       0.06611894       0.04949064
H       10.51730225       0.82409007      13.89709361      -0.21575621      -0.33887503      -0.13805470       0.11224558       0.00746779      -0.09886754
H       10.59746063       1.60468084      12.24124762      -0.22107822      -0.07588099       1.64778335      -0.05211797      -0.01290959      -0.14110777
H       12.36597551       5.92890329      10.67982982      -0.51880800       0.88532059      -0.06722438      -0.15931226       0.10326571      -0.05089560
H       14.85776948       5.51361775      10.85170051      -0.19833568       0.34187266       0.34668199      -0.04932228      -0.00054999       0.07386242
H       14.84094457       4.23561876       9.53660882      -0.02983925      -0.43570588      -0.11360656       0.07190998      -0.19324382      -0.14355645
H       12.67369441       3.83858938       8.05720673       0.14256377      -0.90901596      -0.34384113      -0.14763200      -0.16112700       0.18712894
H       11.16698802       4.82163992       8.60814112      -0.43881067       0.22221584       0.04342827       0.11177741      -0.02442133      -0.08631812
C        9.77104209       2.79229742      13.76471429      -0.49798548       1.69965344      -0.22878071       0.23790549       0.36848290       0.22627228
C       12.87104779       5.19534587       9.88435855       1.91022607      -1.37395165       0.96819542       0.18885818      -0.13866853      -0.11702673
N        9.28099606       3.03739927      15.00578412       0.48682078       1.12190812       2.56606950      -0.20648963       1.08132882       0.13098943
N       10.26901363       1.64694868      13.29558612       0.57896393      -1.83803480      -2.38801904      -0.36181516       1.46812381       0.52680839
N       14.23589290       4.91057014      10.23837948      -0.83704988       0.22273598      -0.90247423      -0.63507720       0.30722292      -0.19755217
N       12.15817869       4.49692426       8.86613496       0.15137076       1.08417699       0.04776280      -0.12521993      -0.11104926       0.18326001
Pb      11.84139111      -0.12348021       9.60398005       0.19679660      -0.37274444       0.11953042      -2.21985988       2.05618384      -0.89096817
Pb       7.78818822      -0.28512179       9.69485519       0.21296349      -0.29117949       0.14256851      -1.26573385      -0.44906694       2.67999517
I       13.22769797       1.18966522      12.10982349       0.42775364      -0.03570059      -0.19291432      -1.26011065       1.34605536       2.60196045
I        9.78960954       6.15851968      11.53791408       0.12755300       0.09289713       0.33493842      -0.51722527       0.96802685       3.42207608
I       13.89212723       1.35387973      16.43958928       0.11541238      -0.09702318      -0.15476452       0.14370100      -1.37394704       0.31775880
I        9.63580515       6.39575221      16.30833871      -0.09460406      -0.09641971      -0.05047557       0.77705352       0.36974892      -2.66015172
I       13.43598218       4.83429926      14.41904557       0.38810377       0.07685212      -0.23613493       0.67549738       0.44694494       1.19769398
I        9.60665086       2.27843758       9.73230223       0.05583905       0.15858521       0.26403715       2.33103229       1.04232688       2.90142132
H        9.38457746      10.39944101      11.08776339       0.06840676      -0.18043435       0.39687881       0.07553509       0.06507758       0.13961725
H        7.48902861      11.08638834       9.51717219       0.02590794      -0.10409541       0.63220083       0.14899175      -0.07043671       0.18298876
H        8.36784658      10.26679537       8.14809413      -0.02132028       0.13070826       0.14809690       0.00201666       0.24460621      -0.00565653
H       10.65730281       9.20652915       8.29346557      -0.62721571       0.20063940       0.66104505       0.00227325      -0.09705590       0.02580876
H       11.22089779       9.17701308      10.04017943       0.04130685       0.12697646      -0.99723844      -0.05505300      -0.15776286      -0.15201902
H       12.79981718      12.74074189      12.50533287      -0.05879985      -0.03733548      -0.58289992       0.13889502      -0.18080281      -0.14871937
H       12.97356251      10.58115804      13.44236385       0.37459178      -0.14665466      -0.03539573       0.07981326       0.19816282      -0.17601412
H       13.84039863      11.36422312      15.03434728      -0.33299717      -0.29534576      -0.08206722      -0.06465865      -0.06156072       0.06456566
H       13.69123378      13.71654189      15.30344249       0.02180270       0.15979804       0.42535118       0.23982710       0.26851546      -0.10353037
H        6.73381353      10.80663122      13.47895933      -0.68524608       0.92914224      -0.21110321      -0.02377424      -0.11068664      -0.17835579
C        9.40535797      10.12578318       9.96081614      -2.44195488       1.33857227      -2.46139297      -0.25056421      -0.05573758       0.01120584
C       13.18623161      12.66820019      13.55808234      -0.27587132      -0.15584401       0.52076888      -0.44304036       0.06078420      -0.84944711
N        8.33671407      10.55277965       9.19093370       0.85159047      -0.56831138      -0.11815604       0.88941997       0.15251650      -0.29972503
N       10.48613533       9.51121172       9.33976799       2.18960986      -1.06508704       1.59014119       0.60024498       0.52554575      -0.60615761
N       13.34384944      11.43708653      14.04724218       0.09203661       0.63106289       0.02454545      -1.44579359       0.48712224       0.67174678
N       13.41889977      13.79672136      14.29478017      -0.01762615       1.12901723      -0.52788438      -0.45022627      -0.20752656      -0.57184715
Pb      11.60296855       7.34725485      14.17533979       0.03947921      -0.07090178      -0.23508929       2.67465629       3.75250378       1.43338302
Pb       7.86985437       7.49525884      13.50111963      -0.32976573      -0.28608608       0.22356899      -1.57797230      -0.68047166      -4.09146448
I       13.70048738       8.37300155      16.34331052      -0.20621709       0.28000637       0.16552443      -0.80770740      -3.32783897      -0.35445393
I        9.40569453      13.99489921      15.69573100      -0.24173878       0.10355702       0.19253522      -0.99539893      -0.39202525       0.15998026
I       13.43704020       8.79394331      11.74680029       0.00218744      -0.07418112      -0.10198323       0.97294878      -0.42561467       0.92452825
I        9.17914041      13.26011517      11.56819049       0.30907881       0.06461129      -0.10995688      -1.72319467      -0.14180087      -1.33703467