768
Lattice="25.244031463055336 -0.051139010145229986 -0.15563925591508607 -0.008975214029691772 25.575374942549175 -0.11406019386377196 -0.3474594723078396 -0.009706484009668169 25.26731789926129" Properties=species:S:1:pos:R:3:forces:R:3:momenta:R:3 pbc="T T T"
H       10.98485826       9.45415366       5.27382950      -0.37845034      -0.02295045       0.17392672      -0.07376719      -0.02715258      -0.06563884
H       10.38526542       3.41013439       2.85914584      -0.08609157       0.13248664       0.15968437      -0.01602132       0.03926713      -0.19042762
H        9.53239293       2.74527576      10.28644579      -0.21355709      -0.02159886      -0.31352686      -0.01198375       0.05191221       0.13100779
H       11.32183591       9.45315605      10.43611042      -1.30158512       0.52351928       0.29314251      -0.06988196      -0.00912282      -0.06571265
H       12.63265525       9.46191093       3.65181121      -0.69372881       0.95196071      -0.00803297      -0.11507154       0.00899762      -0.16115276
H       12.09774694       4.81379540       3.72338217      -0.18702389       0.17703047       0.33916076       0.15394704       0.06795512      -0.12199669
H        2.79300145      10.68762808      11.10925591       0.12821759       0.39881845      -0.43352864       0.11792300       0.13091329       0.04424753
H        9.86028790      10.01740396      12.40933374       0.00058129       0.50539180      -1.04952843      -0.16539524       0.04661012      -0.02306484
H        5.04451136       4.74733313       2.72481619       0.51408115       0.58712701       0.09119339       0.07047444      -0.09337480       0.24100995
H        3.53527885      11.71565949       3.43426187      -0.67160403       0.47154591       0.00459121      -0.14663964       0.00435962      -0.01341448
H        3.78644106      11.86239859      10.06487379      -0.27130269       0.15153596       0.05595920      -0.16419631      -0.07599553      -0.11635269
H        9.03733239      11.31575848      11.39478468       0.06813496      -0.03120729       0.13959427      -0.05494589       0.09399711       0.20047803
H        5.02024711       5.17301690       5.23426001      -0.17690301      -0.19837001      -0.28686350      -0.07299892       0.14821797       0.02166861
H        3.12417097      11.00228857       5.79591238       0.20679306      -0.32911051      -0.21701053       0.15067871       0.02332018       0.10575311
H        6.01707947      11.26880178       9.55836396      -0.07360004      -0.60204745       0.41348368      -0.01984027      -0.11474155      -0.10740796
H        5.07106285       5.14062277      10.88618815      -0.10299794      -0.10889629      -0.00085430       0.11419599       0.16756292       0.30617362
H        9.05218231      10.83817331       5.05918208       0.65929489      -0.08475362      -0.63641100      -0.00196247       0.17244370       0.11755738
H        4.03048169       9.60967648       6.34133032      -0.08492633       0.19689556      -0.51395419      -0.03064489       0.18721741      -0.05921915
H        9.57962218       4.51810585      11.83417874       0.20112337      -0.09703687      -0.35594388       0.14028200       0.03740491       0.13548007
H        5.83410222       4.16364167       9.63056906       0.26423408      -0.12592565       0.10528701       0.03428926      -0.10078153       0.26684793
C       10.87352500      10.15686569       4.41108595      -0.46598581      -0.08248864       0.37728010      -0.31536945      -0.07535912       0.14613282
C        4.35092277      10.11863862       4.36754329       0.86652007      -1.35373196       0.36415013      -0.35559456      -0.51198485       0.19713414
C        4.55394749       9.94252308      10.49581298       1.73880938       0.15099053      -0.13665089      -0.15144355       0.01533806      -0.12236529
C        3.88846220       3.65466460       9.99651830       1.97702102       1.31356368       0.01344442      -0.09479193       0.57910899       0.09398644
N        4.30129158       4.09153200       2.87245159      -0.34832051      -0.92831340      -0.17224541       0.55592217      -0.01581451       0.55730116
N        4.11246024      10.88494294       3.34238289      -0.27866679       0.38997628       0.26254371      -0.07395559      -0.55540909       0.36966807
N        3.63913003      10.92872701      10.54585652      -0.87610045      -0.49416660       0.71145592       0.59622015      -0.23022022       0.79983194
N        9.77178681      10.56272070      11.47850928       0.34442368      -0.73377181      -0.92308519       0.28758540       0.44866550       0.27657679
N        4.23293135       4.49112650       5.21336403       0.09193337       0.22803011       0.25148243      -0.31655287       0.17631626       0.34182275
N        3.75596058      10.21738337       5.53178590      -0.00946629       0.26126722       0.57808945       0.96498322      -0.09053253      -0.84015823
N       10.09660602       4.69094211      10.94488617       0.09391489      -0.53553582      -0.03443245      -0.11632458       0.02346259       0.02810563
N        5.06196546       4.30729353      10.28211241      -1.47511171      -1.32939322      -0.70677110       0.19958353      -0.14475815       0.45954524
Pb       6.93141611       0.88555132      13.76086599       0.16364934       0.02801964      -0.34158395       0.26427414       0.93502464       0.89547868
Pb       0.70078528       0.96536435      13.72364032       0.18759972      -0.08196292      -0.11613397       1.31578395      -0.75896770      -0.41663989
Pb       7.29026510       7.32488628       7.41989421       0.03625730      -0.13670161      -0.24206246       0.67680318      -0.35137950      -0.92144469
Pb       7.31787662       0.91164012       7.19642094       0.28031095      -0.16315129       0.04274697       0.05406168       0.68886330      -3.47669036
I       10.35939673       0.50627200      14.27316785      -0.48298690       0.01394506      -0.04348353      -0.21400252      -0.46758891       1.67707946
I        3.90574334      14.33444866      12.86580812       0.17044528      -0.18777043       0.00760697      -2.21098258      -1.17778840       1.05074084
I        4.27575027       0.46580481       7.75277687      -0.38747911       0.02498131       0.10799699       0.08104436      -0.66448934      -0.28027582
I       10.45456065       0.82323928       6.34993602       0.22119160       0.14778860       0.30996636      -0.07236238       0.23869526       0.12388760
I        6.72099438      10.41927853      13.61058615      -0.06779384       0.09907434       0.10093658      -0.01408695       2.66985318       0.79152137
I        7.78778826       4.04901673       0.79754401      -0.07766423      -0.00805398       0.18117329      -1.22594630      -3.32365960       2.08820678
I        7.01245978       3.89754418       7.29634648       0.01399384       0.36762406       0.09800374       0.27155997       1.50971873       2.04653469
I        7.16466069      10.35857859       6.75176231       0.18509526       0.03624991       0.02691910      -2.61116651       0.57059086       0.10775948
I        6.40591293      13.79735885       3.95447236       0.11583925       0.10214877       0.25391840      -1.27338593      -1.42475075      -0.23822339
I        1.39582547       0.63923481       3.98205448       0.21357286       0.02712073       0.48710221       1.81081977       0.68945707      -2.15138024
I        0.25206800       1.17049341      10.38151573       0.02762997      -0.01279417      -0.02274136       0.31630771      -0.22470935      -0.06167796
I        7.70181414       0.51373382      10.42652397       0.07189556       0.01126237      -0.12675475       0.09393940      -1.90358533       1.65533619
H        2.98350243       3.16277031       4.14769145      -0.51371804      -0.60244108       0.16726899      -0.27365770      -0.17340063       0.12260454
H        5.10597052       9.28720540       4.23120060      -0.83423522       0.75903667       0.13359248       0.01312428      -0.22144112      -0.08453923
H        4.43219414       8.89772007      10.98258698      -0.43436374       0.04555344      -0.12580886       0.12879130      -0.00091387       0.10331332
H        3.91662054       2.78386494       9.29269610       0.10040796       0.56888477       0.37275032      -0.08486751      -0.01407156      -0.19123747
H        4.07694646       3.50601143       2.02702173      -0.20870988       0.17030013       0.53825071      -0.01135420      -0.08931381       0.14505544
H        4.64288381      10.80307314       2.50454577       0.75458007      -0.28013129      -0.82208272      -0.09276035       0.02072824       0.06146960
H       10.59478836       3.10583878       8.13003007      -0.08649429      -0.06789620       0.39072848      -0.05866872       0.15777012       0.10145166
H        1.81073431       3.49117145      10.21803386       0.52468887       0.37221939       0.44649214       0.08421534      -0.09944846      -0.20379553
H       11.93681813      10.80967845       2.73095346      -0.13908258      -0.21410566       0.29219666       0.13687946       0.12221137      -0.05317903
H       11.09905014       5.25053746       5.29175461       0.58484243       0.15168221      -0.22789625       0.10892711      -0.12282595      -0.14342194
H       11.24134859       4.64395273       8.60280230       0.24637084       0.46551466       0.00483829       0.01583902       0.05496688      -0.16499430
H        2.56839974       4.82364113      11.13280893       0.08765500       0.05134766       0.14615831      -0.15644420      -0.22304473      -0.28196760
H        9.62275129      11.51198210       3.42515702       0.18453633      -0.55758475       0.61520741      -0.00778001       0.08322761      -0.13309092
H        8.97761666       4.19552214       5.53049027      -0.77319093       0.02956112       0.36282164       0.09830059       0.05693259      -0.09346193
H       10.71673637       5.52167249      10.88427881      -0.27341867      -0.07580815      -0.17027611      -0.07765296       0.02372719      -0.02130941
H        9.84663511      11.73153472       9.09926966      -0.37619115       0.30244353       0.03321880       0.03055424      -0.00715715       0.09560980
H        3.67069016       4.45602068       6.06094656      -0.15050019      -0.26270147       0.11057789       0.14799899       0.01282980       0.11606371
H        8.41442123       3.05785833       4.06718027       0.14318087       0.88560846       0.70359432      -0.01805627      -0.15438466       0.08185031
H        6.45351455       9.42372867       9.90884918      -0.28959103       0.21224948       0.02827884       0.05491100      -0.05842534      -0.14420494
H       11.17492757      10.82256252       8.45779694       0.06566029      -0.50854065       0.22012031      -0.13556983       0.02724390      -0.14050437
C        3.80258819       3.85893272       4.09845152       0.84689938       1.07358126      -0.73877472      -0.06268323       0.68720032      -0.06472664
C       10.25222844       3.94607005       3.88073208      -0.11999505      -0.08638685      -0.02276500      -0.39844150       0.10457416      -0.27360072
C       10.07191206       3.71117819      10.01635200      -0.17294881       0.72569924       1.46054113       0.46836712       1.01366123      -0.33609491
C       10.46385403      10.22021474      10.35038229       1.68927526       0.25447348       0.70031206       0.46661644      -0.47237953       0.16543047
N       11.90153621      10.23573925       3.61632715       2.13767465      -0.78665889      -0.96535814      -0.28905058       0.03097796      -0.43578201
N       11.27672928       4.69229408       4.37041093      -0.93546098      -0.53511755      -0.22227283       0.14717104      -0.29727304       0.24921738
N       10.64717930       3.84603265       8.85183837       0.09779554      -0.60938849      -1.00180505      -0.26197602       0.61870154       0.65233084
N        2.72220667       3.99079949      10.53706654      -1.50465751      -0.67730767      -0.19193630       0.19582180       0.35135725      -0.46458300
N        9.76267742      10.83868475       4.24703871      -1.30422911       0.76230944       0.12249610       0.60986213       0.31577243      -0.53870400
N        9.08147431       3.77153472       4.54800690       1.45056375      -0.94496835      -1.58292155      -0.23849945      -0.00701774       0.14250188
N        5.74702522      10.21204479       9.94292641      -0.22322143       0.30591702      -0.22750545      -0.28994319       0.37305481       0.25123491
N       10.44298160      10.90617105       9.18839818      -0.47320135      -0.30932528       0.71717849      -0.02749373       0.68351495       0.06851137
Pb       1.16858363       7.26988335      13.80639054      -0.20572519       0.09999480      -0.12142413       2.30622084      -0.11418699       2.99089531
Pb       7.43506213       7.33281729      13.71776946      -0.22889778      -0.19690006       0.22187549       0.98441797       2.13810929       0.65967086
Pb       1.04523442       0.96503744       7.49053064      -0.26445235      -0.05854264      -0.36727299       2.52533128      -0.08319566      -0.73365411
Pb       1.01943320       7.35114839       7.50279752      -0.15783561       0.00528515       0.09047435       1.30847143       2.45690426      -2.65753502
I        4.01816156       6.68763310      12.80064661       0.37069008       0.09613822       0.11311613       0.94074480       0.56084499      -0.57504596
I       10.48602987       7.70494592      14.04325880      -0.28666336       0.04091456      -0.04744989       1.45579140       1.31443285       1.84774291
I       10.36923809       7.05289515       6.60273841       0.01063638       0.05698182       0.30380184       2.33090063      -1.89537365       0.69818996
I        4.06222793       7.58405073       7.92981359       0.15099009      -0.20275736       0.11956146       1.73501035      -1.10433232      -3.73337306
I        0.57461833       4.17969330      14.00964155      -0.12690540      -0.19298139      -0.03320205      -1.69603901      -1.05557461      -0.70698356
I        1.31065699      10.46925621       0.72369273       0.09740952       0.22029911      -0.21505605      -1.05965896      -0.22534028      -0.47121258
I        0.79686248      10.51023972       7.27852678      -0.06710781       0.15438683       0.13749559      -0.45197139       2.09618751       0.61233131
I        1.11011233       4.18231273       7.22480085       0.13880915      -0.20366156      -0.08700963       2.87633584      -0.00327989       1.25123814
I       14.23958274       7.32434615       4.35100594      -0.05212458       0.05301083      -0.45522854       2.89090481      -0.70237025       0.01427334
I        6.82032691       7.01828735       4.23369357      -0.11061130      -0.07484505      -0.09616747       0.73070444       0.64059205       0.47795752
I        7.61965273       7.26422292      10.56318701       0.18004603       0.03462583      -0.16728051       1.55491894       0.86889606      -0.79919745
I       -0.06951531       7.18878344      10.59654234       0.31960364      -0.07859024       0.06730549       0.16917788      -0.79295015       1.76416608
H       10.81112852       9.44930042      17.90748845      -0.37845034      -0.02295045       0.17392672      -0.07376719      -0.02715258      -0.06563884
H       10.21153568       3.40528115      15.49280479      -0.08609157       0.13248664       0.15968437      -0.01602132       0.03926713      -0.19042762
H        9.35866319       2.74042252      22.92010474      -0.21355709      -0.02159886      -0.31352686      -0.01198375       0.05191221       0.13100779
H       11.14810617       9.44830281      23.06976937      -1.30158512       0.52351928       0.29314251      -0.06988196      -0.00912282      -0.06571265
H       12.45892551       9.45705769      16.28547016      -0.69372881       0.95196071      -0.00803297      -0.11507154       0.00899762      -0.16115276
H       11.92401720       4.80894216      16.35704112      -0.18702389       0.17703047       0.33916076       0.15394704       0.06795512      -0.12199669
H        2.61927171      10.68277484      23.74291486       0.12821759       0.39881845      -0.43352864       0.11792300       0.13091329       0.04424753
H        9.68655816      10.01255072      25.04299269       0.00058129       0.50539180      -1.04952843      -0.16539524       0.04661012      -0.02306484
H        4.87078162       4.74247989      15.35847514       0.51408115       0.58712701       0.09119339       0.07047444      -0.09337480       0.24100995
H        3.36154911      11.71080625      16.06792082      -0.67160403       0.47154591       0.00459121      -0.14663964       0.00435962      -0.01341448
H        3.61271132      11.85754535      22.69853274      -0.27130269       0.15153596       0.05595920      -0.16419631      -0.07599553      -0.11635269
H        8.86360265      11.31090524      24.02844363       0.06813496      -0.03120729       0.13959427      -0.05494589       0.09399711       0.20047803
H        4.84651737       5.16816366      17.86791896      -0.17690301      -0.19837001      -0.28686350      -0.07299892       0.14821797       0.02166861
H        2.95044123      10.99743533      18.42957133       0.20679306      -0.32911051      -0.21701053       0.15067871       0.02332018       0.10575311
H        5.84334973      11.26394854      22.19202291      -0.07360004      -0.60204745       0.41348368      -0.01984027      -0.11474155      -0.10740796
H        4.89733311       5.13576953      23.51984710      -0.10299794      -0.10889629      -0.00085430       0.11419599       0.16756292       0.30617362
H        8.87845257      10.83332007      17.69284103       0.65929489      -0.08475362      -0.63641100      -0.00196247       0.17244370       0.11755738
H        3.85675195       9.60482324      18.97498927      -0.08492633       0.19689556      -0.51395419      -0.03064489       0.18721741      -0.05921915
H        9.40589244       4.51325261      24.46783769       0.20112337      -0.09703687      -0.35594388       0.14028200       0.03740491       0.13548007
H        5.66037248       4.15878843      22.26422801       0.26423408      -0.12592565       0.10528701       0.03428926      -0.10078153       0.26684793
C       10.69979526      10.15201245      17.04474490      -0.46598581      -0.08248864       0.37728010      -0.31536945      -0.07535912       0.14613282
C        4.17719303      10.11378538      17.00120224       0.86652007      -1.35373196       0.36415013      -0.35559456      -0.51198485       0.19713414
C        4.38021775       9.93766984      23.12947193       1.73880938       0.15099053      -0.13665089      -0.15144355       0.01533806      -0.12236529
C        3.71473246       3.64981136      22.63017725       1.97702102       1.31356368       0.01344442      -0.09479193       0.57910899       0.09398644
N        4.12756184       4.08667876      15.50611054      -0.34832051      -0.92831340      -0.17224541       0.55592217      -0.01581451       0.55730116
N        3.93873050      10.88008970      15.97604184      -0.27866679       0.38997628       0.26254371      -0.07395559      -0.55540909       0.36966807
N        3.46540029      10.92387377      23.17951547      -0.87610045      -0.49416660       0.71145592       0.59622015      -0.23022022       0.79983194
N        9.59805707      10.55786746      24.11216823       0.34442368      -0.73377181      -0.92308519       0.28758540       0.44866550       0.27657679
N        4.05920161       4.48627326      17.84702298       0.09193337       0.22803011       0.25148243      -0.31655287       0.17631626       0.34182275
N        3.58223084      10.21253013      18.16544485      -0.00946629       0.26126722       0.57808945       0.96498322      -0.09053253      -0.84015823
N        9.92287628       4.68608887      23.57854512       0.09391489      -0.53553582      -0.03443245      -0.11632458       0.02346259       0.02810563
N        4.88823572       4.30244029      22.91577136      -1.47511171      -1.32939322      -0.70677110       0.19958353      -0.14475815       0.45954524
Pb       7.10514585       0.89040456       1.12720704       0.16364934       0.02801964      -0.34158395       0.26427414       0.93502464       0.89547868
Pb       0.87451502       0.97021759       1.08998137       0.18759972      -0.08196292      -0.11613397       1.31578395      -0.75896770      -0.41663989
Pb       7.11653536       7.32003304      20.05355316       0.03625730      -0.13670161      -0.24206246       0.67680318      -0.35137950      -0.92144469
Pb       7.14414688       0.90678688      19.83007989       0.28031095      -0.16315129       0.04274697       0.05406168       0.68886330      -3.47669036
I       10.53312647       0.51112524       1.63950890      -0.48298690       0.01394506      -0.04348353      -0.21400252      -0.46758891       1.67707946
I        4.07947308      14.33930190       0.23214917       0.17044528      -0.18777043       0.00760697      -2.21098258      -1.17778840       1.05074084
I        4.10202053       0.46095157      20.38643582      -0.38747911       0.02498131       0.10799699       0.08104436      -0.66448934      -0.28027582
I       10.28083091       0.81838604      18.98359497       0.22119160       0.14778860       0.30996636      -0.07236238       0.23869526       0.12388760
I        6.89472412      10.42413177       0.97692720      -0.06779384       0.09907434       0.10093658      -0.01408695       2.66985318       0.79152137
I        7.61405852       4.04416349      13.43120296      -0.07766423      -0.00805398       0.18117329      -1.22594630      -3.32365960       2.08820678
I        6.83873004       3.89269094      19.93000543       0.01399384       0.36762406       0.09800374       0.27155997       1.50971873       2.04653469
I        6.99093095      10.35372535      19.38542126       0.18509526       0.03624991       0.02691910      -2.61116651       0.57059086       0.10775948
I        6.23218319      13.79250561      16.58813131       0.11583925       0.10214877       0.25391840      -1.27338593      -1.42475075      -0.23822339
I        1.22209573       0.63438157      16.61571343       0.21357286       0.02712073       0.48710221       1.81081977       0.68945707      -2.15138024
I        0.07833826       1.16564017      23.01517468       0.02762997      -0.01279417      -0.02274136       0.31630771      -0.22470935      -0.06167796
I        7.52808440       0.50888058      23.06018292       0.07189556       0.01126237      -0.12675475       0.09393940      -1.90358533       1.65533619
H        2.80977269       3.15791707      16.78135040      -0.51371804      -0.60244108       0.16726899      -0.27365770      -0.17340063       0.12260454
H        4.93224078       9.28235216      16.86485955      -0.83423522       0.75903667       0.13359248       0.01312428      -0.22144112      -0.08453923
H        4.25846440       8.89286683      23.61624593      -0.43436374       0.04555344      -0.12580886       0.12879130      -0.00091387       0.10331332
H        3.74289080       2.77901170      21.92635505       0.10040796       0.56888477       0.37275032      -0.08486751      -0.01407156      -0.19123747
H        3.90321672       3.50115819      14.66068068      -0.20870988       0.17030013       0.53825071      -0.01135420      -0.08931381       0.14505544
H        4.46915407      10.79821990      15.13820472       0.75458007      -0.28013129      -0.82208272      -0.09276035       0.02072824       0.06146960
H       10.42105862       3.10098554      20.76368902      -0.08649429      -0.06789620       0.39072848      -0.05866872       0.15777012       0.10145166
H        1.63700457       3.48631821      22.85169281       0.52468887       0.37221939       0.44649214       0.08421534      -0.09944846      -0.20379553
H       11.76308839      10.80482521      15.36461241      -0.13908258      -0.21410566       0.29219666       0.13687946       0.12221137      -0.05317903
H       10.92532040       5.24568422      17.92541356       0.58484243       0.15168221      -0.22789625       0.10892711      -0.12282595      -0.14342194
H       11.06761885       4.63909949      21.23646125       0.24637084       0.46551466       0.00483829       0.01583902       0.05496688      -0.16499430
H        2.39467000       4.81878789      23.76646788       0.08765500       0.05134766       0.14615831      -0.15644420      -0.22304473      -0.28196760
H        9.44902155      11.50712886      16.05881597       0.18453633      -0.55758475       0.61520741      -0.00778001       0.08322761      -0.13309092
H        8.80388692       4.19066890      18.16414922      -0.77319093       0.02956112       0.36282164       0.09830059       0.05693259      -0.09346193
H       10.54300663       5.51681925      23.51793776      -0.27341867      -0.07580815      -0.17027611      -0.07765296       0.02372719      -0.02130941
H        9.67290537      11.72668148      21.73292861      -0.37619115       0.30244353       0.03321880       0.03055424      -0.00715715       0.09560980
H        3.49696042       4.45116744      18.69460551      -0.15050019      -0.26270147       0.11057789       0.14799899       0.01282980       0.11606371
H        8.24069149       3.05300509      16.70083922       0.14318087       0.88560846       0.70359432      -0.01805627      -0.15438466       0.08185031
H        6.27978481       9.41887543      22.54250813      -0.28959103       0.21224948       0.02827884       0.05491100      -0.05842534      -0.14420494
H       11.00119783      10.81770928      21.09145589       0.06566029      -0.50854065       0.22012031      -0.13556983       0.02724390      -0.14050437
C        3.62885845       3.85407948      16.73211047       0.84689938       1.07358126      -0.73877472      -0.06268323       0.68720032      -0.06472664
C       10.07849870       3.94121681      16.51439103      -0.11999505      -0.08638685      -0.02276500      -0.39844150       0.10457416      -0.27360072
C        9.89818232       3.70632495      22.65001095      -0.17294881       0.72569924       1.46054113       0.46836712       1.01366123      -0.33609491
C       10.29012429      10.21536150      22.98404124       1.68927526       0.25447348       0.70031206       0.46661644      -0.47237953       0.16543047
N       11.72780647      10.23088601      16.24998610       2.13767465      -0.78665889      -0.96535814      -0.28905058       0.03097796      -0.43578201
N       11.10299954       4.68744084      17.00406988      -0.93546098      -0.53511755      -0.22227283       0.14717104      -0.29727304       0.24921738
N       10.47344956       3.84117941      21.48549732       0.09779554      -0.60938849      -1.00180505      -0.26197602       0.61870154       0.65233084
N        2.54847693       3.98594625      23.17072549      -1.50465751      -0.67730767      -0.19193630       0.19582180       0.35135725      -0.46458300
N        9.58894768      10.83383151      16.88069766      -1.30422911       0.76230944       0.12249610       0.60986213       0.31577243      -0.53870400
N        8.90774457       3.76668148      17.18166585       1.45056375      -0.94496835      -1.58292155      -0.23849945      -0.00701774       0.14250188
N        5.57329548      10.20719155      22.57658536      -0.22322143       0.30591702      -0.22750545      -0.28994319       0.37305481       0.25123491
N       10.26925186      10.90131781      21.82205713      -0.47320135      -0.30932528       0.71717849      -0.02749373       0.68351495       0.06851137
Pb       1.34231337       7.27473659       1.17273159      -0.20572519       0.09999480      -0.12142413       2.30622084      -0.11418699       2.99089531
Pb       7.60879187       7.33767053       1.08411051      -0.22889778      -0.19690006       0.22187549       0.98441797       2.13810929       0.65967086
Pb       0.87150468       0.96018420      20.12418959      -0.26445235      -0.05854264      -0.36727299       2.52533128      -0.08319566      -0.73365411
Pb       0.84570346       7.34629515      20.13645647      -0.15783561       0.00528515       0.09047435       1.30847143       2.45690426      -2.65753502
I        4.19189130       6.69248634       0.16698766       0.37069008       0.09613822       0.11311613       0.94074480       0.56084499      -0.57504596
I       10.65975961       7.70979916       1.40959985      -0.28666336       0.04091456      -0.04744989       1.45579140       1.31443285       1.84774291
I       10.19550835       7.04804191      19.23639736       0.01063638       0.05698182       0.30380184       2.33090063      -1.89537365       0.69818996
I        3.88849819       7.57919749      20.56347254       0.15099009      -0.20275736       0.11956146       1.73501035      -1.10433232      -3.73337306
I        0.74834807       4.18454654       1.37598260      -0.12690540      -0.19298139      -0.03320205      -1.69603901      -1.05557461      -0.70698356
I        1.13692725      10.46440297      13.35735168       0.09740952       0.22029911      -0.21505605      -1.05965896      -0.22534028      -0.47121258
I        0.62313274      10.50538648      19.91218573      -0.06710781       0.15438683       0.13749559      -0.45197139       2.09618751       0.61233131
I        0.93638259       4.17745949      19.85845980       0.13880915      -0.20366156      -0.08700963       2.87633584      -0.00327989       1.25123814
I       14.06585300       7.31949291      16.98466489      -0.05212458       0.05301083      -0.45522854       2.89090481      -0.70237025       0.01427334
I        6.64659717       7.01343411      16.86735252      -0.11061130      -0.07484505      -0.09616747       0.73070444       0.64059205       0.47795752