768
Lattice="31.52003920688824 -1.0395494997101957 0.3212732111417801 -0.9162685860741572 30.3547437254124 0.028757121508259497 0.35595936046071336 -0.14720492652102254 17.2635365134837" Properties=species:S:1:pos:R:3:forces:R:3:momenta:R:3 energy=-3599.5058463622177 stress="0.0 0.0 0.0 0.0 0.0 0.0 0.0 0.0 0.0" pbc="T T T"
H        1.19018927       3.20981236       6.73668238       0.34985198      -0.51830864      -2.41110894      -0.39383088       0.04300144       0.07820480
H        3.19539922       1.50057830       6.06531044      -2.91097764       0.82368176      -1.77624348      -0.46064067      -0.31677073       0.25014177
H        2.55462630       0.95587104       4.42935013      -0.12623416      -0.03189686      -1.30696594       0.19557441       0.03460341       0.30447431
H        0.83849733       2.77285128       3.67012582      -0.36138313      -0.42588065      -1.00189744       0.18073337      -0.15256743       0.07344274
H       -0.36284467       3.30196220       4.88763102      -0.22420460       0.69196218      -0.36834333      -0.07163022       0.35236633      -0.16053076
H        5.34889967       5.89074495       2.16406397       0.36049689      -1.67773747      -1.09589285       0.07908817      -0.19662670      -0.02046219
H        4.79027479       7.31571672       0.04577940       0.41102367      -2.27353608       1.26810878      -0.01383668      -0.06363961      -0.06503117
H        5.06625502       5.80323120      -0.84884851      -0.38021627      -0.86249836      -2.35302625       0.21301197       0.47638495       0.09260474
H        5.57937882       3.50055924      -0.11377033       0.42451164       0.26761143       1.69298925       0.03969049       0.05927376       0.00712889
H        6.12092099       3.38031214       1.81734932      -0.03365805      -0.40948027       1.57551614       0.32741085      -0.10884871       0.10053689
C        1.31630181       2.59054676       5.60034702       0.84783383      -0.61188870       3.37171304       0.24688277       0.43526343      -0.20222762
C        5.37312961       5.33746139       1.07889053       0.02742773       2.40909237       4.28131208       0.76849244      -0.39244301      -0.55603877
N        2.29160814       1.49258916       5.34188609       3.99416020      -0.31668660       3.26845545      -1.59216653      -0.66991884      -0.27787870
N        0.54709317       2.94586559       4.63255266      -1.25026773       0.48907994       0.63325578       0.90758213       0.37669190       0.70596708
N        4.93286756       6.21463373       0.07625924      -0.04315604       1.35006411      -0.25333735       0.04981945       0.51328058       1.29006040
N        5.71224005       3.96462816       0.99959418      -0.72835366       0.98998179      -4.64441944       0.33197940      -0.04047327      -0.18129156
Pb       3.75754298       0.23220353       1.04525292       0.01538906      -0.46579846       0.72075315      -2.11697365       1.26942751      -4.87793149
Pb      31.42692723      -1.16885453       1.42561850      -0.60401263      -0.08074343       0.34996378       1.10870171       2.13169950      -4.80403227
I        5.44979934       0.89861557       3.65963439       0.41728208       0.04547896      -0.30795304      -0.48135254       6.71416026       4.65084912
I        1.22335903       6.48800279       2.65319067       0.24448787      -0.22343186       0.18299500       2.56607854      -1.50137756       3.45024626
I        5.81400510       1.47070586       7.78338888       0.31773485       0.20923021       0.21407716      -5.79757220       2.89780829      -2.29306674
I        1.54002514       5.94145777       6.95955922       0.18163045      -0.09360268       0.10838148       2.60251114      -2.43375445      -3.88340952
I        5.45653733       4.70307546       4.51724095      -0.14568005      -0.52518712       0.09498807      -3.76727261      -4.28098206      -2.93238505
I        1.35250523       2.77208396       1.48432665       0.44276521      -0.37374118      -0.44638604       0.25509546      -1.12633016      -2.98383128
H       -0.19162571      11.02681451      -0.05327559       0.29587737      -0.88637879       1.55129026      -0.00705645       0.09752360      -0.15969820
H        1.75645694      12.26361832       2.27902418      -0.13969736      -1.36097767      -0.28448943      -0.12787525      -0.21770069      -0.21976327
H        2.54855607      10.82148201       3.17105313      -0.19989401      -0.35834309      -0.02123227      -0.09194396       0.04256971       0.26609060
H        0.88160281       8.61916489       1.66734301       0.27633153      -1.69274584       0.07620279      -0.26508796       0.12038129      -0.01513180
H       -0.19784797       8.70629815      -0.21163693       0.06977416      -0.89157126      -1.23148307       0.02343392       0.02560438       0.33254433
H        5.82524829      10.79974526       6.18946725       0.73608345       1.33218329      -1.54052315      -0.22365554       0.11417623       0.22667330
H        4.02347839      12.63965810       6.66868346       0.39039389      -0.42031390      -0.13913438      -0.38294140      -0.28992878      -0.00518155
H        4.57569268      13.52444218       5.17728223       0.43807494       1.35410354      -0.77673036      -0.28443723      -0.00940490      -0.19248030
H        6.66960207      12.91059569       3.76450051      -0.24102753       0.56997172      -0.36393451      -0.03660994       0.07594375       0.67236235
H       12.27847172      14.62655679       4.97187342      -0.16088277      -0.93677243       1.73278713       0.21603605       0.10074227      -0.19318179
C        0.58441332      10.47887899       0.96687529       0.27073141       0.39011775      -2.98099897      -1.75845002      -1.22426414       1.18675208
C        5.76275999      11.75015031       5.43402671      -3.25875748       0.76924581       2.35461644      -0.79144663      -0.28301332       0.10490554
N        1.69230158      11.17572187       2.21027812      -0.34825586       2.85622059       1.52088959      -0.41604206       0.42120183       1.11867362
N        0.38180958       9.11913208       0.75102635      -0.27823181       2.31417176       0.88438916       0.52314146      -0.40330139       1.50374844
N        4.72305727      12.72371015       5.82107485       0.24703943      -2.38189354       0.83364187       0.79164383       0.61750979       0.89428326
N        6.67425985      12.00160360       4.35787176       2.35321316      -1.27445907      -0.53374522      -2.00931877      -0.76607176      -0.63992179
Pb       3.54066157       7.05115148       4.71192390       0.23806357       0.78834503       0.45360887      -0.55691563       3.62914730      -1.82800959
Pb      31.24703768       6.53690734       5.52358746      -0.75089428       0.68486046      -0.01310286       1.17147250      -4.38675159       4.33235916
I        5.47976502       8.12778767       7.27105814      -0.05267360      -0.42301353      -0.32413894       3.35374132       3.28998043      -0.41860040
I        1.48364379      13.65099627       7.54198022      -0.03120140       0.00762257      -0.27941283       1.37293228       2.06047937      -1.08951966
I        5.86905898       8.71138978       2.82694601      -0.22573884      -0.12133191       0.11120190       0.24896884      -0.91651167      -2.16913057
I        1.15414062      14.38971751       3.43988770      -0.25351888      -0.05137051       0.43100255      -3.04281067      -0.35871623       2.61037383
I        4.77248086      12.26050369       1.74934959       0.15457386       0.07378596      -0.26482702       1.57565013       1.87556272       1.75613711
I        2.09467622      10.22907275       5.25488539      -0.11501326      -0.60411744       0.14819251      -2.19689248      -2.01791051       1.09082008
H        9.78432844       3.80617089       4.79965807      -0.54720058       1.56792075      -0.41906880       0.27393541      -0.03616015       0.33353294
H        9.95694847       3.53884776       7.45827953      -0.07897000       0.18107498      -0.41663972       0.18304520      -0.18018500       0.18749627
H       10.42467941       1.74647165       7.31772675      -0.20793303      -1.27057612       0.31111610      -0.08101692       0.17322316       0.14278029
H       10.56577875       0.69240217       4.70567108      -0.40845870       0.10898204       0.01548610      -0.02818274       0.22285465       0.15924198
H       10.21750135       2.12463073       3.30317760      -0.15615571      -0.89088557      -0.44241701       0.14242393       0.09799485       0.12056962
H       12.86135819       6.42003137       1.55384591       0.60769313       0.41511293       0.81419025       0.23704024       0.13802774      -0.20243845
H       15.11426292       5.56562402       1.52919576       0.03662650      -0.50104187      -0.40750428       0.32754688      -0.10223795      -0.07583897
H       14.66917843       4.19398356       0.41717899       0.10175824       0.09843567       0.11516591      -0.36488713       0.26975974      -0.01015118
H       12.37443399       4.01960607       0.06119566      -1.09331186      -1.62712440      -1.65485889       0.14928872      -0.04517994      -0.21541804
H       11.14964923       5.23112661       0.83450431      -0.53745487      -0.44298684      -0.86215292      -0.38827986      -0.14642823       0.27427733
C        9.94162749       2.81880345       5.30728574       0.76250590      -0.97156043       1.58024618       0.49903648       0.87293233      -0.67427850
C       13.13166237       5.49509905       1.04632159       2.55906346      -0.85493297      -0.04342443       1.11792767       0.39524882       0.56948047
N       10.09159246       2.63413472       6.75562112      -0.16038854       1.97586951       0.15530583       1.57050045       0.75964867       0.19404357
N       10.15041110       1.76511086       4.40168649       0.46279980      -1.16336037      -0.80160219       0.78290441      -1.16544204      -0.55218563
N       14.42440871       5.04188329       0.94631341      -1.33632493       1.73621483       0.72138339       0.00354406      -1.25703195      -0.83113604
N       12.15385611       4.92716044       0.43071568      -0.32635784       1.00979459       1.18255857       2.12824613       0.56306495       0.62606370
Pb      11.55531744       0.72697328       0.60574514       0.03722660      -0.70804047       0.17757692       0.35534408       4.19608703      -1.23739427
Pb       7.75759396      -0.20175079       1.06760370      -0.51006832       0.29402227       0.36205530       1.95845179       3.70695907       4.08061155
I       13.27163396       1.08763376       3.36128223      -0.14469580       0.28461133      -0.26094158      -2.25711047      -1.57798766       2.47178338
I        9.61877442       5.80510494       2.66959844       0.11847891       0.27697210       0.25639413      -3.79210005      -3.80713646       2.90813072
I       13.66085758       1.57945416       7.65972390       0.14931304      -0.18233527       0.06434851       0.51748136      -0.67641711      -3.87212860
I        9.55008994       5.85132624       7.46618274      -0.24898727       0.38108705      -0.07895725      -2.76960960       3.35776702       2.44407989
I       13.75044747       4.76069048       4.63980881       0.06191141      -0.71144783       0.15804440      -1.33165302       0.78166730      -3.17839437
I        9.15763134       2.92225314       0.71116208       0.28689836      -0.16916036       0.44383448      -1.54056473       4.97818116      -1.71434906
H        8.38658340       9.89027406       2.29846092      -0.26647833       0.21370955       2.38089994      -0.11258176       0.04452588      -0.35327817
H        6.97528661      10.64985000       1.09583218      -0.95036516       0.30363080      -0.77533077      -0.24736879       0.14490093      -0.11590982
H        7.90686988      10.66917108      -0.51665144       0.57799074       0.00089121      -0.13041157       0.01432029      -0.33105382       0.12366420
H       10.55594974       9.87039772       0.11281704      -1.34710758       0.48415279       1.44716916      -0.23769385      -0.24085837       0.32583204
H       10.74753247       9.50047229       1.78652753      -0.58975930       0.11882173       0.33825614       0.05187669      -0.11250987      -0.11748107
H       12.83155218      12.94688520       3.79627783      -0.00735143      -0.13132302      -0.24146368       0.32152094       0.07913053      -0.03095006
H       14.00137691      10.92454174       4.68233546       0.11532136      -1.49462755      -0.52450162      -0.07687620       0.06209752       0.36852296
H       13.72897484      11.53160788       6.35208358       0.44326183      -0.30176934      -0.55669912      -0.34733177      -0.09671239      -0.16465044
H       12.71417323      14.03010845       6.62748890      -0.02570601      -0.53561393       0.52269937       0.04438442       0.22109221       0.51110905
H        7.63571884      11.35704375       4.11794586      -0.75831479       0.06776346       0.32741455      -0.11805517       0.00272414       0.16669388
C        8.77592119      10.11308297       1.33801134       4.50163033      -1.77195618      -0.11405419       0.40744937       0.24183676       0.00286772
C       12.98274678      12.81358058       4.87937762       1.27481699      -2.39552091       1.23363071      -1.59894937      -0.33080858      -1.87484682
N        7.89755273      10.54759503       0.54083872      -2.13540136       0.55768532      -1.65761670       0.09808534      -2.39577188       0.61297271
N       10.08025605       9.84559702       1.07670443       0.55794650      -0.15393515      -1.66876074      -0.28576974      -1.51742312      -0.20100556
N       13.87970891      11.68161506       5.31368622      -1.36714446       2.32684345       0.62858433       0.96430008       0.20554105      -0.69981737
N       12.40057412      13.79854963       5.65859767      -0.26085461       3.13622205      -2.96425307       0.80511343      -0.11556304       0.90205684
Pb      11.54872608       6.84441971       5.21871665      -0.41467907       0.63070395      -0.08760647       2.53521036       0.85271183       0.59441732
Pb       7.48663966       6.91816353       4.81617857       0.29406538       0.31775358       0.46379465       7.82204673      -1.15756127      -1.29875110
I       13.19073142       8.58398195       7.54284333       0.12207846      -0.12675478      -0.08349919       3.46055143      -5.36253470       2.77830097
I        8.93754080      13.81982056       7.15321131       0.54189414      -0.55385709      -0.24055149       0.30506878      -1.12132977       0.32027418
I       13.54073893       8.52705568       3.16388757      -0.08217143       0.23486564      -0.05607882      -0.19241996       1.05462969      -1.12104288
I        9.77365151      12.88202387       2.75699053      -0.02091573       0.48679530      -0.03404251       2.61402493       2.18120269      -1.89270174
I       13.64398730      12.58442684       0.75512715       0.02933079      -0.10438367      -0.02501428       0.77564312      -1.42257772       1.55636684
I        9.49566450       9.51997899       5.48751504       0.08049419       0.20175223      -0.18364458       0.33388109      -3.21330745       1.09776663
H        0.44091928       3.53594397      14.69192337       0.80646097       0.71041792      -0.66122932      -0.04890003       0.20941871       0.02287619
H        2.73358897       2.05261860      15.48660259      -0.45757871      -0.09953396       0.07854179      -0.00666164      -0.02380090      -0.15924592
H        3.36854380       1.61083400      13.69800168       0.56338616       0.34020420      -1.90597111      -0.26131642       0.19205237      -0.20352822
H        1.73950565       3.78197131      11.52701393       1.23522213      -0.41515166      -0.74585260      -0.20799270      -0.09014903       0.12323049
H        0.26390297       4.87924350      12.11678240       0.77283979      -0.58310813       0.65976298       0.06383115      -0.00562013      -0.46257341
H        5.60472158       6.47053429       9.91188759       0.23221984      -0.75164126      -0.72446847       0.11013513       0.38705116       0.03322034
H        5.29556806       5.24034985       7.18135454       0.02362704       0.20752638       0.52880745       0.22512543      -0.09474519      -0.03820725
H        5.92619094       3.28752596       7.74769226       0.31477200      -0.74219310       0.63340739       0.06390683      -0.08522761       0.01666181
H        6.92018627       2.95050866      10.78251107       0.34485110       1.93292092       1.65958987       0.02731958       0.34771244      -0.28414437
H        6.64606806       4.65398916      12.15121111       0.11895646       0.54460769      -0.14981464      -0.14497601      -0.00831512      -0.19447250
C        1.41989713       3.36240531      13.82823750      -1.41481514      -1.02993553       1.92879166       0.36354372      -0.41659051      -0.71993888
C        6.04297417       5.06959595       9.68692130      -0.18413554       0.94372166       0.36193300      -0.76975195      -0.39890119      -0.12307431
N        2.55428732       2.29442147      14.35308102       0.92521341      -0.36997886       1.35994151       0.55802133      -0.14390259      -1.07635641
N        1.15974033       3.89614965      12.42838968      -2.33181468       1.25452206      -0.44082831      -0.56897994       1.24098035      -1.43378692
N        5.73894490       4.43290154       8.13761594      -0.12763838       0.59908085      -0.25571843       1.95806930      -0.05238209       0.02760222
N        6.82364806       4.21371864      10.96455724      -0.80754243      -2.74426925      -2.14861764       0.52881204       1.01587303       1.06023914
Pb       4.13470110      -0.25549937       9.83978937      -0.10032400       0.45696681      -0.19952146      -2.07703928       3.96929346       0.94008934
Pb      31.84645269      -0.54065971      10.00814415      -0.31034817      -0.54760675       0.05457367       0.89351347      -1.43709484       0.31816685
I        5.99264162       0.86028451      12.33653354      -0.07776554      -0.17556252       0.37705937       2.67139899       0.75855605       0.96269376
I        2.05693476       6.17249358      11.33126128      -0.20140558       0.47625371       0.02486427       1.28782576      -2.94609130      -2.03459370
I        5.76476192       1.35044522      16.38724250       0.13158888      -0.01765667      -0.68828962       1.29484796       0.93125703       2.92095517
I        1.64160721       5.77925780      16.09220491      -0.05883208       0.66047856      -0.67108394       5.94547861       6.18541875      -3.56795587
I        5.86569670       5.04627930      14.19251698      -0.23236772       0.34999304      -0.32995261      -1.82131300       0.51880419       4.77937417
I        2.32404189       2.73807626       9.40361233       0.33201073       0.07404002      -0.16461593      -1.06841547       1.94574770       1.38129331
H        1.16386517      11.30325370       9.14378028      -0.36500904       0.50908231      -0.31227450       0.04318035      -0.15409679      -0.43596648
H        1.43809567      11.09996205      11.58650807      -0.03800889      -1.01098013      -0.16422954      -0.09305920       0.01248873      -0.10327459
H        2.04984466       9.30711423      11.58984440      -0.08599158      -0.61221479       0.41208209       0.05251389      -0.27353695       0.10296522
H        2.12104168       8.14676726       9.02737177       0.23347346       1.04244000      -1.37747865      -0.37180815      -0.14476666      -0.18097227
H        1.85371638       9.54544226       7.59506358       0.21805063      -1.05892793      -2.62609403       0.19470072       0.41125516      -0.27752334
H        5.66849585      10.90634492      14.49740726       0.97575171       0.01394582       0.07627679      -0.04028996      -0.54212281       0.12744959
H        3.72285522      12.40956357      15.19738591       2.03781758       0.29146463      -1.89784428       0.01487394      -0.24328051      -0.03383098
H        4.44479492      13.60587636      13.72497017      -1.50023711      -0.41632641       1.01270187       0.27982070      -0.05937996      -0.00715726
H        6.72146609      13.38112563      12.65208037       0.76529684      -0.36759919      -0.05010060      -0.39592126      -0.36013344      -0.02061009
H       13.06615131      14.60868349      12.26125029      -0.29754708      -1.23150158      -0.35460288      -0.19180791      -0.01826608       0.23732435
C        1.45855924      10.26063654       9.61713398       2.00877658      -2.49322356      -2.10066899       0.78656723      -0.95513756       0.68476508
C        5.67001639      11.96611795      13.99145903      -1.30646104      -1.04167530       1.08920508       0.26258228       0.32866262       0.43113235
N        1.61613803      10.14650315      11.01056094      -0.66088134       1.93210034       1.05570984      -0.44612134      -1.36547388       0.08786679
N        1.95278583       9.20172521       8.64785633      -1.25300323       1.27119586       4.81711854      -0.08187870       1.93783249       0.77067788
N        4.40328783      12.62536559      14.20404873      -0.36837234       1.76566916      -0.17453283       0.97617007       1.28943445      -0.68775698
N        6.77368092      12.39374274      13.19139501      -3.44767537       1.83468439       0.63064491       0.23225889       0.51450824      -0.46261114
Pb       3.46779064       7.68853286      13.86907699       0.93248483      -0.36363216       0.40253212       2.54859097      -5.74716284      -6.69766801
Pb      31.41727194       6.39064281      14.02182406      -0.15363198      -0.41562003       0.24696700      -0.44719987       3.31571224      -1.12467979
I        5.50162243       9.08134532      16.06606240      -0.11862764      -0.08414776      -0.17238801      -1.15728996      -0.22129502       0.22724522
I        1.64013178      14.32927230      16.06805620       0.10266241       0.00198003       0.48842893       4.47268797      -1.61401810      -0.80773847
I        5.40250542       8.98085722      11.52438407      -0.14874945      -0.32457146       0.41334006       1.75543330      -0.13167043      -0.77750715
I        1.47185111      13.26311195      11.69142413      -0.10899082       0.47567272       0.75968057       0.26142988       4.07145694       1.23501673
I        4.93864908      11.67459056       9.80870861       0.31936430       0.58132459      -0.28545230       2.35879517       0.78941431       0.04553770
I        1.67449375      10.16569221      14.45012456      -0.23799540      -0.24521031       0.02838670       0.38645458       0.50686050       0.54347966
H        8.73790977       3.07869777      12.50753733       0.51219663       1.78306603      -1.64702009       0.37033380      -0.23259082       0.11702259
H        9.02674373       4.39939274      14.59454309      -0.81185793       1.26227640       0.29643392      -0.19503576       0.15294132      -0.31250676
H        8.77160599       2.95575454      15.67634132       0.31795550       0.41671897      -1.01610218      -0.13758562      -0.13397060       0.18531885
H        9.13726222       0.69047719      14.51399528       0.39301907      -0.13880729       0.26675760      -0.15459170      -0.01578037       0.27220695
H        9.51121225       0.51042188      12.69609816      -0.40125466       0.69800134      -1.17227725       0.03427124      -0.08069394      -0.16477843
H       13.30701842       6.07186796       9.90118464      -0.35697590      -0.75848365      -1.12110212      -0.43655144      -0.28446438       0.61196700
H       15.43667506       4.94182189      10.39620453      -1.60820988       0.59521382      -0.21457021       0.12529291      -0.04714936      -0.29338189
H       14.98797885       3.56719527       9.51490833      -0.40468771      -0.12590945      -0.34724460       0.02463943       0.04832210       0.14339241
H       12.61814603       3.63090934       8.10427667      -0.13848861       2.33640476       1.33876979       0.42348095       0.30132641      -0.34005375
H       11.64799893       5.13738510       8.49520928      -1.41681809       0.84620342      -0.30734941       0.07771931       0.00443396       0.40612149
C        8.88238325       2.62805225      13.48889961       0.79447529      -4.61780791       2.31585122       0.08117424      -0.63286592       0.65198598
C       13.47754000       5.11555329       9.31593900       0.79239973       1.91731662       2.56709370      -0.31992780       1.10817191      -0.48779094
N        8.74538528       3.35235695      14.64783460       0.11238514      -1.56630882      -1.16472643       0.75616999      -1.00346494       1.01308847
N        9.21736804       1.21218584      13.54465257      -0.73025366       2.29931373       2.08762568      -0.32626339       0.96668431      -0.58042913
N       14.67111966       4.55226447       9.77885942       0.32225170      -1.12930563      -0.87021165      -0.22864136       0.23432876       0.40400914
N       12.52546442       4.68647203       8.48197237       2.92535980      -3.45646787      -0.75645720       0.64712310       0.04049546      -0.31429592
Pb      11.91364905      -0.02230043      10.01517805      -0.27505133       0.25370618      -0.78109342       2.87619455      -0.91730229      -0.90168171
Pb       7.94463262       0.00023647       9.95255043       0.64782347       0.14950623      -0.51406964       3.00006930      -3.07929167       1.86684881
I       13.98058726       1.81035002      11.65738710       0.07171793      -0.34348361       0.25226043      -1.86293899      -2.99732427       6.78074962
I        9.32510326       6.40902852      11.45005421       0.41852371       0.40024039       0.84723858      -0.97328177       0.13393010       2.06340761
I       14.13606898       1.89705022      16.06321416       0.12894976      -0.12206008       0.02204448       0.73037058       1.33457000       1.75424922
I        9.45606467       6.42568622      15.94865861       0.01631039       0.27931051       0.15202760       2.29323645      -5.26275029       0.64728143
I       13.72329114       4.86525053      13.18499930      -0.11951934       0.37846599       0.24459672       2.04581009      -0.08434691       1.55142763
I        9.96842796       2.65807413      10.43022228      -0.02239844      -0.45431582      -0.37157408      -3.62318250      -2.83952267       5.67321052
H        9.17473061       9.99578559      10.74532643       0.22107415      -0.67938800       0.51917127       0.01729596      -0.36513882       0.03485715
H        7.37202490       9.84148290       8.78547825      -2.16483035       0.28458226       1.79101581       0.05884219      -0.02761955       0.30107996
H        8.74581421       9.49819281       7.81161568      -0.98045484       0.39114629       1.13654454       0.10089895      -0.16994591      -0.01300755
H       11.24240470      10.15214508       8.39158167       0.51990181      -0.46689287      -0.54615198      -0.23463494       0.06177343      -0.03955407
H       11.59489836      10.13064459      10.13537242       1.04585400      -0.52165857       0.47200725       0.14413721       0.13918006      -0.27728952
H       13.49534694      11.66390469      12.45388768      -0.04198632      -0.43534775       1.40985624      -0.13778337      -0.21536511       0.30475043
H       14.99436654      10.78084351      14.88993609      -0.90510202      -0.28511957       0.46198224      -0.20344152      -0.07835851      -0.25097774
H       14.18035660      12.53366800      16.01672372       0.38181947      -0.07824780       0.77984530       0.31662833       0.02255087      -0.25129036
H       13.54598553      14.82889971      14.16102787      -0.08989759       0.42827369       0.26689755       0.43015326      -0.42051359       0.53501757
H        7.53961938      11.80792166      13.34200574       2.70432352      -1.81412383      -0.49282153      -0.39960212      -0.24133771      -0.24577207
C        9.42501512       9.81047488       9.69623552       1.21494764       1.26433666       0.48031920       1.17484630      -0.10920228      -1.20931085
C       13.53480676      12.45355971      13.57207036       1.43732471       1.28800557      -4.55623127       0.31951684       0.04854483      -0.42950532
N        8.36686545       9.72154263       8.81006647       3.55076349      -1.19674916      -4.47449588       0.83425793       1.69539301       0.51195951
N       10.88423014      10.00944116       9.35529180      -3.56612850       0.84268892       0.97065229       0.31420186      -0.38052009       0.31692525
N       14.22022847      11.87918160      14.96333618      -0.03806558      -1.51981701      -0.54593756      -0.05654954      -0.43488829       2.14808268
N       13.19284198      14.01189535      13.25642853      -0.55574966       1.59488965       2.56011869       0.18118486      -0.67153981      -1.68446543
Pb      11.73319452       7.68657233      13.96512587      -1.00148097      -0.78069347      -0.83260668      -5.76428577       1.56690324      -0.42717362
Pb       7.58177441       7.86718626      13.71050584       0.16858025      -0.25493303      -0.15915727       2.01888090       1.93031252       3.37663282
I       13.39271949       8.28576927      16.26105628       0.26920052       0.17888225       0.42144098      -1.05442248      -0.89881275      -0.59648859
I        9.22422205      13.68963684      15.87862924       0.09860111      -0.20267707      -0.25765353       0.75591658      -0.78813066      -7.66028695
I       13.85010709       9.23064329      12.09928463      -0.01969575       0.18727088      -0.18069942      -1.41226831      -1.74157779      -0.80650556
I        9.87786383      13.33653264      11.47064704      -0.35538028       0.14398245      -0.04196567      -1.96549727      -1.07454342      -0.32936419