768
Lattice="31.52003920688824 -1.0395494997101957 0.3212732111417801 -0.9162685860741572 30.3547437254124 0.028757121508259497 0.35595936046071336 -0.14720492652102254 17.2635365134837" Properties=species:S:1:pos:R:3:forces:R:3:momenta:R:3 pbc="T T T"
H        1.46600691       3.35619609       6.38518444       0.08362395       0.05216685       0.12252212       0.05394919       0.01335803      -0.03680923
H        3.67515872       2.76056948       5.75918142      -0.65072615       0.18181459      -0.65533992       0.07132590       0.13603804      -0.06540712
H        3.24447207       2.80171735       4.03796298      -0.00530450      -0.00527055       0.26346815      -0.19549583      -0.00453028      -0.13936247
H        0.80210201       3.69343775       3.48562147       0.40922229      -0.31947197      -0.72164897       0.07703679      -0.08386808       0.04706284
H       31.33485337       2.73955490       5.22308389      -0.90853869       0.41725436       0.29051684       0.16756980      -0.03163263      -0.07251150
H        6.00228215       6.60973066       1.83767975      -0.30312709       0.57394000       0.33553361       0.10108666       0.09578304       0.05952926
H        5.36604858       7.11959180      17.01815509       0.30003504      -0.96706083       0.06220845       0.16394261      -0.06871903      -0.08102593
H        5.40598052       5.43235929      16.42247633      -0.01774420       0.36629539      -0.01575037      -0.10851886      -0.00443128       0.00473321
H        5.81299274       3.88724472       0.70597384       0.12993292       0.15104145       0.83774558       0.10526257      -0.03676842       0.21435978
H        6.28843663       4.38976590       2.37872157       0.04509764      -0.03234891       0.14212916       0.10209707       0.11343322      -0.10381354
C        1.71270338       3.31256075       5.32093205       0.74800595      -0.82431918       0.60994755       0.12617948      -0.50021610       0.13809366
C        5.73126647       5.85337126       1.08655526       0.39536560       0.97582759       0.66893764       0.10061797      -0.25276964       0.15952811
N        2.93933070       2.90183285       5.01500165      -0.27543030       0.38719300       0.12533727      -0.32034251      -0.03636660      -0.42944737
N        0.71803537       3.57801097       4.50102082       0.42850918       0.09457610       0.10632996       1.00752497      -0.88593983      -0.20340924
N        5.61889001       6.10474566      17.19192750      -0.51649185       0.54731500      -0.61730097      -0.53124601      -0.52580528       0.07886183
N        6.00207401       4.63473291       1.43165640      -0.10873207      -1.58341453      -1.27397623       0.47530592      -0.24736043      -0.00085709
Pb       3.54953400       0.69611116       0.80059354      -0.09727394       0.05151210       0.15590471       1.41760079      -0.67863893      -1.14009713
Pb      31.08984338       0.00407645       1.06050636       0.04220852      -0.03006726       0.23563368      -2.12240881      -1.94913452       0.19290337
I        5.72111276       1.50601856       3.26656770      -0.07773300      -0.15297894      -0.21281719      -1.04185070      -0.73198736       1.36487501
I        1.07500348       7.22249974       2.64696799      -0.07280219      -0.24352591      -0.17505716       0.78861003       0.04655263       0.62507081
I        5.69362922       1.99643608       7.30791207      -0.04020401      -0.05411415       0.27506634      -1.01796373       3.07117783      -0.02664063
I        1.19104148       6.68409748       7.04471280       0.17974477      -0.01517021      -0.05556574       2.10845097       1.83683950      -0.35886300
I        5.39820510       5.69805777       5.09275524       0.00181802      -0.36134414      -0.26536092       0.41494131       0.25214097      -0.87683667
I        1.69407299       3.50954993       0.92304404       0.17680699      -0.26484388      -0.06025706      -1.52782257       2.95509101      -0.07008818
H        1.37468074      11.82072121      17.09958117      -0.33600102       0.15229550      -0.41343750      -0.01371998       0.06649872      -0.04277156
H        0.57960283      12.78609893       1.98677970       0.42928792      -0.92126825      -0.10127093      -0.00099746      -0.05832486      -0.19472580
H        0.90008476      11.19152779       2.68771090      -0.14698020      -0.37208445       0.78797458      -0.02531342       0.28878506       0.04449735
H        0.97124465       9.23739558       1.07839169       0.13349362      -0.69973311       0.47899185       0.05299474       0.06734713      -0.06456961
H        1.36761257       9.48061319      16.64502140       0.25296090       0.14811754       0.02411140      -0.07560851      -0.13420134      -0.01117897
H        4.53468107      12.18145497       6.16178785       0.29605709      -0.39983142       0.50357532       0.34440344      -0.03298739       0.05586800
H        2.96455024      13.75715401       5.51244405      -0.63864523      -0.30569301       0.19956964       0.04216416       0.00995988      -0.06246535
H        3.84388324      14.32316481       4.11515690       0.47189348       0.87795921      -0.43753763      -0.00294262      -0.06611490       0.01592056
H        6.31848799      13.46587612       4.13174032       0.01339865       0.58042337      -0.42484098       0.01794499       0.24044844       0.10178915
H       13.41464224      15.16927095       5.09490779      -0.07049400      -0.25755055       0.32765441      -0.12621200       0.11586211       0.00650674
C        0.94266058      11.24730367       0.65127819       0.28037331      -0.45661510      -0.05693107      -0.23890997       0.21402978      -0.47223690
C        4.78905992      12.87314635       5.35396514      -0.75085464       0.32090021      -0.13340785       0.70879171       0.12967358      -0.02196674
N        0.80198191      11.75604385       1.85849100      -0.15514118       0.98779079      -0.66146559      -0.72000489      -0.42919414       0.21979379
N        1.09138870       9.95814349       0.36400376      -0.41231491       1.16694957      -0.24184816       0.36889737       0.24609651       0.47216907
N        3.76894703      13.64937199       4.89095551       0.41308033      -0.35969799       0.02900728       0.45905341      -0.30937416      -0.25169814
N        5.98814735      12.82580407       4.83746055       0.61143048      -0.42871770       0.35286122      -0.18181188       0.33317715      -0.08679733
Pb       3.27293764       8.00436539       4.86626596       0.04676316       0.24956879       0.02509299       0.81993771       1.29725460      -2.05051345
Pb      30.81555854       7.11790756       5.34469241      -0.20299531      -0.03762998       0.22141207      -2.67362061      -0.79356309      -1.96380955
I        4.90459321       9.48130662       7.09921265       0.15946071       0.04166679       0.22119200      -0.70153379       0.04701108       0.86008711
I        1.27200316      14.55853431       7.29124146      -0.03639054       0.11138269       0.13109484       0.77070512      -0.76588993       1.55729241
I        5.43651193       9.39553460       2.74998595      -0.10983520      -0.12156074       0.17661746      -0.11031444       0.36628186      -0.85303879
I        0.80787453      14.99687311       3.22450116       0.20292986       0.07975289      -0.23622766       2.56916770       0.17860931       1.02357142
I        4.85607267      13.03715157       0.79218027      -0.08778497       0.16348902       0.01311216       1.21529024       0.45668126      -0.90757341
I        1.20897923      10.61867171       5.25844771       0.13279448       0.08668600       0.06348042       1.55386372       0.51807045      -2.19113926
H        9.02753292       4.15160255       4.21618239       0.13413256      -0.27539982      -0.84556774       0.15220303      -0.03309931       0.17261975
H        8.97403468       4.71054935       6.41897258       0.10080678       0.39345990      -0.11065265      -0.13083944      -0.15907049      -0.10376216
H        9.34131565       3.08456955       6.98304682       0.07573225       0.44872372      -0.60601264      -0.05372483      -0.10998867      -0.05635479
H        9.88325679       1.34207347       5.31579906      -0.30497414       0.17726074      -0.42394368      -0.05841131      -0.00213964      -0.01611523
H        9.54061359       1.90645577       3.56993864       0.02372927      -0.27210404       0.54568747       0.05367158       0.07661606      -0.00919797
H       12.67561830       6.67980077       1.45128280      -0.07411879       0.05007618       0.11033314      -0.03302349       0.21571979       0.16010461
H       14.68283332       5.49512692       1.53834425       1.08971646       0.58874851       0.68094100      -0.05956063      -0.04650660       0.06730681
H       14.08795571       4.20676922       0.55523705       0.04420353       0.20529720      -0.02245212      -0.08714050       0.03626127      -0.15493870
H       12.37432668       4.30198541      16.84185079      -0.44775856       0.19301542       0.06907390      -0.05405814      -0.19179695      -0.22067731
H       10.86837851       5.72925071       0.14251319       0.45106413      -0.15617702      -0.13574331       0.07649021      -0.00174907      -0.12061206
C        9.27482630       3.32614910       4.92080358      -0.31525572       0.53321034       1.38903513       0.29820828       0.37480063      -0.47046123
C       12.80103307       5.74184801       0.90838927      -0.83345787       0.45363098      -0.13925859      -0.18447170       0.10458270       0.46390146
N        9.24578054       3.73714208       6.17304189      -0.14306761      -1.24770940       1.00610404      -0.20516876       0.98454033      -0.05597819
N        9.53797188       2.08348239       4.59109910       0.38744150       0.10661986      -0.84994637      -0.13619981      -0.13768861      -0.07268892
N       13.94731461       5.13325442       0.98781984      -0.22936376      -1.14817035      -0.59194513      -0.54806141       0.36307584      -0.22120246
N       11.80559265       5.28283388       0.17092243       0.13921579      -0.17522303       0.02123636       0.06734837      -0.04703685      -0.15368105
Pb      11.35756774       0.44132183       0.75884814       0.30069309      -0.02026735      -0.27319600       0.28442865       1.71714205       2.54516941
Pb       7.49052915       0.19536441       0.84510415      -0.28267107       0.24826476      -0.44973611      -1.87873401       1.20820418      -0.58987231
I       13.22989352       1.65588004       3.12870668       0.05284535      -0.07861867      -0.14411681       0.05792207      -0.40387353      -0.28496129
I        9.30392603       7.04463214       3.10971329      -0.15399872      -0.38742136      -0.40736219      -0.41813386       0.30786872       2.59356778
I       13.72568733       1.98540486       7.46680124      -0.08222261       0.28479822      -0.13189857      -0.83601789      -0.32120624      -0.80748823
I        9.05541228       6.80403795       7.54256104      -0.09066511       0.37482166       0.18760811      -0.32475380      -1.77470862       1.55200337
I       12.84671841       5.25399348       5.06747026      -0.01002233       0.04187982      -0.00290825      -2.79923012      -1.75492950      -0.12114309
I        9.35708568       2.83896389       1.20641878      -0.11754322       0.22612707      -0.22835028       0.55283219       0.22211931       0.01267210
H        8.37488292      11.17212006       2.34507394      -0.15337996      -0.39875941      -0.36517062       0.02879922       0.05252541      -0.13382202
H        6.99652328      11.53584993       0.52338553      -0.05916622       0.07889846       0.07672752      -0.03333135       0.32718253       0.13451530
H        8.48679662      10.85170288      16.59288016       0.43546535      -0.22245966      -0.70115465      -0.03508222      -0.12562147      -0.26836303
H       10.42659385      10.01113210       0.43218079      -0.36480177       0.03430543      -0.32427056      -0.15482851      -0.01253147       0.11179168
H       10.46289755      10.00071256       2.09063133      -0.53438145       0.29979497       0.46239298       0.02453846       0.17192711      -0.15053027
H       13.56111004      13.26908473       3.66636811      -0.10766686      -0.01297478       0.74389224       0.10271231      -0.26384473      -0.15631022
H       13.49643096      11.09106671       4.59725773      -0.04828253       1.29563329       1.02545361      -0.01906817      -0.01202911       0.07283754
H       13.41629642      11.65880251       6.29070975       0.08489052       0.11289294       0.68150000      -0.04153327      -0.00940624      -0.01038831
H       13.30879610      14.05108886       6.58681566       0.03739129       0.51074166       0.76757362      -0.00852022       0.01166502      -0.12322865
H        6.79374402      12.26397487       5.36048906      -0.22127017      -0.19545444      -0.11367213       0.04819446      -0.11628691      -0.06536926
C        8.71314580      10.82320292       1.31653438      -1.05257102       0.82193458       0.75838692       0.43676673      -0.15387195       0.08410070
C       13.46090820      13.12322218       4.79908894       0.16973849       1.83209744      -1.31109878      -0.19544234       0.28528124       0.10482074
N        7.90474949      11.10603958       0.30406830       0.25649256      -0.16148573       0.94600741       1.37818336       0.04428391       0.29958408
N        9.90056196      10.28417119       1.28515179       1.62791117      -0.61372481      -1.04562547      -0.01565918       0.68878452      -0.32445392
N       13.52364303      11.92602547       5.29147835       0.06938824      -3.53438024      -1.14970846      -0.39306774       0.04588598       0.34237801
N       13.39548878      14.21568512       5.55327109      -0.24224899      -0.05424260      -1.02659511       0.37451934       0.71602568       0.50928183
Pb      11.20615584       7.95777528       5.37777050       0.08228342      -0.04332298       0.14151878       1.04667225      -0.04475610       2.00247856
Pb       7.31579893       8.31335111       5.12666355      -0.33463804       0.00866445       0.01010198       3.23171865       0.34456020       1.23073259
I       13.14281475       8.99140641       7.61934956       0.11550477       0.09213850       0.07119336       1.02726136       0.67528581       1.33806822
I        9.11862306      14.57640329       6.88822700       0.05924748       0.03482347       0.34194880       2.47481490      -0.48635641       0.33163782
I       13.07587371       9.17851151       3.07449179       0.01770243       0.12781659      -0.15789848      -1.23400156      -0.61664368       0.21595420
I        9.03031152      14.06755348       2.67278738      -0.01522636      -0.29979127       0.44247879       0.06489633       0.54640425       1.06182994
I       12.93889299      13.11275417       0.53580839       0.01181185      -0.05529620      -0.01852670      -0.25171749      -0.79497788       0.04062933
I        9.22650998      10.72656314       5.31277129       0.08859495       0.22570096       0.07062944       0.11262794      -1.45418579      -1.14688312
H        1.64398659       3.28259363      15.01695270       0.08362395       0.05216685       0.12252212       0.05394919       0.01335803      -0.03680923
H        3.85313840       2.68696702      14.39094968      -0.65072615       0.18181459      -0.65533992       0.07132590       0.13603804      -0.06540712
H        3.42245175       2.72811489      12.66973124      -0.00530450      -0.00527055       0.26346815      -0.19549583      -0.00453028      -0.13936247
H        0.98008169       3.61983529      12.11738973       0.40922229      -0.31947197      -0.72164897       0.07703679      -0.08386808       0.04706284
H       31.51283305       2.66595244      13.85485215      -0.90853869       0.41725436       0.29051684       0.16756980      -0.03163263      -0.07251150
H        6.18026183       6.53612820      10.46944801      -0.30312709       0.57394000       0.33553361       0.10108666       0.09578304       0.05952926
H        5.18806890       7.19319427       8.38638684       0.30003504      -0.96706083       0.06220845       0.16394261      -0.06871903      -0.08102593
H        5.22800084       5.50596176       7.79070808      -0.01774420       0.36629539      -0.01575037      -0.10851886      -0.00443128       0.00473321
H        5.99097242       3.81364226       9.33774210       0.12993292       0.15104145       0.83774558       0.10526257      -0.03676842       0.21435978
H        6.46641631       4.31616344      11.01048983       0.04509764      -0.03234891       0.14212916       0.10209707       0.11343322      -0.10381354
C        1.89068306       3.23895829      13.95270031       0.74800595      -0.82431918       0.60994755       0.12617948      -0.50021610       0.13809366
C        5.90924615       5.77976880       9.71832352       0.39536560       0.97582759       0.66893764       0.10061797      -0.25276964       0.15952811
N        3.11731038       2.82823039      13.64676991      -0.27543030       0.38719300       0.12533727      -0.32034251      -0.03636660      -0.42944737
N        0.89601505       3.50440851      13.13278908       0.42850918       0.09457610       0.10632996       1.00752497      -0.88593983      -0.20340924
N        5.44091033       6.17834813       8.56015925      -0.51649185       0.54731500      -0.61730097      -0.53124601      -0.52580528       0.07886183
N        6.18005369       4.56113045      10.06342466      -0.10873207      -1.58341453      -1.27397623       0.47530592      -0.24736043      -0.00085709
Pb       3.72751368       0.62250870       9.43236180      -0.09727394       0.05151210       0.15590471       1.41760079      -0.67863893      -1.14009713
Pb      31.26782306      -0.06952601       9.69227462       0.04220852      -0.03006726       0.23563368      -2.12240881      -1.94913452       0.19290337
I        5.89909244       1.43241610      11.89833596      -0.07773300      -0.15297894      -0.21281719      -1.04185070      -0.73198736       1.36487501
I        1.25298316       7.14889728      11.27873625      -0.07280219      -0.24352591      -0.17505716       0.78861003       0.04655263       0.62507081
I        5.87160890       1.92283362      15.93968033      -0.04020401      -0.05411415       0.27506634      -1.01796373       3.07117783      -0.02664063
I        1.36902116       6.61049502      15.67648106       0.17974477      -0.01517021      -0.05556574       2.10845097       1.83683950      -0.35886300
I        5.57618478       5.62445531      13.72452350       0.00181802      -0.36134414      -0.26536092       0.41494131       0.25214097      -0.87683667
I        1.87205267       3.43594747       9.55481230       0.17680699      -0.26484388      -0.06025706      -1.52782257       2.95509101      -0.07008818
H        1.19670106      11.89432368       8.46781292      -0.33600102       0.15229550      -0.41343750      -0.01371998       0.06649872      -0.04277156
H        0.75758251      12.71249647      10.61854796       0.42928792      -0.92126825      -0.10127093      -0.00099746      -0.05832486      -0.19472580
H        1.07806444      11.11792533      11.31947916      -0.14698020      -0.37208445       0.78797458      -0.02531342       0.28878506       0.04449735
H        1.14922433       9.16379312       9.71015995       0.13349362      -0.69973311       0.47899185       0.05299474       0.06734713      -0.06456961
H        1.18963289       9.55421566       8.01325315       0.25296090       0.14811754       0.02411140      -0.07560851      -0.13420134      -0.01117897
H        4.71266075      12.10785251      14.79355611       0.29605709      -0.39983142       0.50357532       0.34440344      -0.03298739       0.05586800
H        3.14252992      13.68355155      14.14421231      -0.63864523      -0.30569301       0.19956964       0.04216416       0.00995988      -0.06246535
H        4.02186292      14.24956235      12.74692516       0.47189348       0.87795921      -0.43753763      -0.00294262      -0.06611490       0.01592056
H        6.49646767      13.39227366      12.76350858       0.01339865       0.58042337      -0.42484098       0.01794499       0.24044844       0.10178915
H       13.59262192      15.09566849      13.72667605      -0.07049400      -0.25755055       0.32765441      -0.12621200       0.11586211       0.00650674
C        1.12064026      11.17370121       9.28304645       0.28037331      -0.45661510      -0.05693107      -0.23890997       0.21402978      -0.47223690
C        4.96703960      12.79954389      13.98573340      -0.75085464       0.32090021      -0.13340785       0.70879171       0.12967358      -0.02196674
N        0.97996159      11.68244139      10.49025926      -0.15514118       0.98779079      -0.66146559      -0.72000489      -0.42919414       0.21979379
N        1.26936838       9.88454103       8.99577202      -0.41231491       1.16694957      -0.24184816       0.36889737       0.24609651       0.47216907
N        3.94692671      13.57576953      13.52272377       0.41308033      -0.35969799       0.02900728       0.45905341      -0.30937416      -0.25169814
N        6.16612703      12.75220161      13.46922881       0.61143048      -0.42871770       0.35286122      -0.18181188       0.33317715      -0.08679733
Pb       3.45091732       7.93076293      13.49803422       0.04676316       0.24956879       0.02509299       0.81993771       1.29725460      -2.05051345
Pb      30.99353822       7.04430510      13.97646067      -0.20299531      -0.03762998       0.22141207      -2.67362061      -0.79356309      -1.96380955
I        5.08257289       9.40770416      15.73098091       0.15946071       0.04166679       0.22119200      -0.70153379       0.04701108       0.86008711
I        1.44998284      14.48493185      15.92300972      -0.03639054       0.11138269       0.13109484       0.77070512      -0.76588993       1.55729241
I        5.61449161       9.32193214      11.38175421      -0.10983520      -0.12156074       0.17661746      -0.11031444       0.36628186      -0.85303879
I        0.98585421      14.92327065      11.85626942       0.20292986       0.07975289      -0.23622766       2.56916770       0.17860931       1.02357142
I        5.03405235      12.96354911       9.42394853      -0.08778497       0.16348902       0.01311216       1.21529024       0.45668126      -0.90757341
I        1.38695891      10.54506925      13.89021597       0.13279448       0.08668600       0.06348042       1.55386372       0.51807045      -2.19113926
H        9.20551260       4.07800009      12.84795065       0.13413256      -0.27539982      -0.84556774       0.15220303      -0.03309931       0.17261975
H        9.15201436       4.63694689      15.05074084       0.10080678       0.39345990      -0.11065265      -0.13083944      -0.15907049      -0.10376216
H        9.51929533       3.01096709      15.61481508       0.07573225       0.44872372      -0.60601264      -0.05372483      -0.10998867      -0.05635479
H       10.06123647       1.26847101      13.94756732      -0.30497414       0.17726074      -0.42394368      -0.05841131      -0.00213964      -0.01611523
H        9.71859327       1.83285331      12.20170690       0.02372927      -0.27210404       0.54568747       0.05367158       0.07661606      -0.00919797
H       12.85359798       6.60619831      10.08305106      -0.07411879       0.05007618       0.11033314      -0.03302349       0.21571979       0.16010461
H       14.86081300       5.42152446      10.17011251       1.08971646       0.58874851       0.68094100      -0.05956063      -0.04650660       0.06730681
H       14.26593539       4.13316676       9.18700531       0.04420353       0.20529720      -0.02245212      -0.08714050       0.03626127      -0.15493870
H       12.19634700       4.37558788       8.21008254      -0.44775856       0.19301542       0.06907390      -0.05405814      -0.19179695      -0.22067731
H       11.04635819       5.65564825       8.77428145       0.45106413      -0.15617702      -0.13574331       0.07649021      -0.00174907      -0.12061206
C        9.45280598       3.25254664      13.55257184      -0.31525572       0.53321034       1.38903513       0.29820828       0.37480063      -0.47046123
C       12.97901275       5.66824555       9.54015753      -0.83345787       0.45363098      -0.13925859      -0.18447170       0.10458270       0.46390146
N        9.42376022       3.66353962      14.80481015      -0.14306761      -1.24770940       1.00610404      -0.20516876       0.98454033      -0.05597819
N        9.71595156       2.00987993      13.22286736       0.38744150       0.10661986      -0.84994637      -0.13619981      -0.13768861      -0.07268892
N       14.12529429       5.05965196       9.61958810      -0.22936376      -1.14817035      -0.59194513      -0.54806141       0.36307584      -0.22120246
N       11.98357233       5.20923142       8.80269069       0.13921579      -0.17522303       0.02123636       0.06734837      -0.04703685      -0.15368105
Pb      11.53554742       0.36771937       9.39061640       0.30069309      -0.02026735      -0.27319600       0.28442865       1.71714205       2.54516941
Pb       7.66850883       0.12176195       9.47687241      -0.28267107       0.24826476      -0.44973611      -1.87873401       1.20820418      -0.58987231
I       13.40787320       1.58227758      11.76047494       0.05284535      -0.07861867      -0.14411681       0.05792207      -0.40387353      -0.28496129
I        9.48190571       6.97102968      11.74148155      -0.15399872      -0.38742136      -0.40736219      -0.41813386       0.30786872       2.59356778
I       13.90366701       1.91180240      16.09856950      -0.08222261       0.28479822      -0.13189857      -0.83601789      -0.32120624      -0.80748823
I        9.23339196       6.73043549      16.17432930      -0.09066511       0.37482166       0.18760811      -0.32475380      -1.77470862       1.55200337
I       13.02469809       5.18039102      13.69923852      -0.01002233       0.04187982      -0.00290825      -2.79923012      -1.75492950      -0.12114309
I        9.53506536       2.76536143       9.83818704      -0.11754322       0.22612707      -0.22835028       0.55283219       0.22211931       0.01267210
H        8.55286260      11.09851760      10.97684220      -0.15337996      -0.39875941      -0.36517062       0.02879922       0.05252541      -0.13382202
H        7.17450296      11.46224747       9.15515379      -0.05916622       0.07889846       0.07672752      -0.03333135       0.32718253       0.13451530
H        8.30881694      10.92530535       7.96111191       0.43546535      -0.22245966      -0.70115465      -0.03508222      -0.12562147      -0.26836303
H       10.60457353       9.93752964       9.06394905      -0.36480177       0.03430543      -0.32427056      -0.15482851      -0.01253147       0.11179168
H       10.64087723       9.92711010      10.72239959      -0.53438145       0.29979497       0.46239298       0.02453846       0.17192711      -0.15053027
H       13.73908972      13.19548227      12.29813637      -0.10766686      -0.01297478       0.74389224       0.10271231      -0.26384473      -0.15631022
H       13.67441064      11.01746425      13.22902599      -0.04828253       1.29563329       1.02545361      -0.01906817      -0.01202911       0.07283754
H       13.59427610      11.58520005      14.92247801       0.08489052       0.11289294       0.68150000      -0.04153327      -0.00940624      -0.01038831
H       13.48677578      13.97748640      15.21858392       0.03739129       0.51074166       0.76757362      -0.00852022       0.01166502      -0.12322865
H        6.97172370      12.19037241      13.99225732      -0.22127017      -0.19545444      -0.11367213       0.04819446      -0.11628691      -0.06536926
C        8.89112548      10.74960046       9.94830264      -1.05257102       0.82193458       0.75838692       0.43676673      -0.15387195       0.08410070
C       13.63888788      13.04961972      13.43085720       0.16973849       1.83209744      -1.31109878      -0.19544234       0.28528124       0.10482074
N        8.08272917      11.03243712       8.93583656       0.25649256      -0.16148573       0.94600741       1.37818336       0.04428391       0.29958408
N       10.07854164      10.21056873       9.91692005       1.62791117      -0.61372481      -1.04562547      -0.01565918       0.68878452      -0.32445392
N       13.70162271      11.85242301      13.92324661       0.06938824      -3.53438024      -1.14970846      -0.39306774       0.04588598       0.34237801
N       13.57346846      14.14208266      14.18503935      -0.24224899      -0.05424260      -1.02659511       0.37451934       0.71602568       0.50928183
Pb      11.38413552       7.88417282      14.00953876       0.08228342      -0.04332298       0.14151878       1.04667225      -0.04475610       2.00247856
Pb       7.49377861       8.23974865      13.75843181      -0.33463804       0.00866445       0.01010198       3.23171865       0.34456020       1.23073259
I       13.32079443       8.91780395      16.25111782       0.11550477       0.09213850       0.07119336       1.02726136       0.67528581       1.33806822
I        9.29660274      14.50280083      15.51999526       0.05924748       0.03482347       0.34194880       2.47481490      -0.48635641       0.33163782
I       13.25385339       9.10490905      11.70626005       0.01770243       0.12781659      -0.15789848      -1.23400156      -0.61664368       0.21595420
I        9.20829120      13.99395102      11.30455564      -0.01522636      -0.29979127       0.44247879       0.06489633       0.54640425       1.06182994