768
Lattice="25.244031463055336 -0.051139010145229986 -0.15563925591508607 -0.008975214029691772 25.575374942549175 -0.11406019386377196 -0.3474594723078396 -0.009706484009668169 25.26731789926129" Properties=species:S:1:pos:R:3:forces:R:3:momenta:R:3 pbc="T T T"
H       10.47103337       8.17953305       3.79382503       0.15299539      -0.03113113       0.12603499      -0.01127798      -0.11781565      -0.05616860
H       10.02434281       1.84247114       2.10540688       0.21571111      -0.24114057      -0.31434851      -0.09066446       0.15774399       0.07518679
H        9.46388227       2.06746105       9.15858330      -0.55447868      -0.64340028      -0.02023183       0.00209132       0.26291883       0.07638037
H       11.20385236       8.46559203       8.98983793      -0.04416590      -0.28540245      -0.12445418      -0.03003175      -0.23728046       0.07848074
H       12.42181562       8.59909356       2.65614732      -0.23770569       0.31502620      -0.15463922       0.01686474      -0.04681588       0.16242286
H       11.99505227       3.15079593       1.98503357       0.29449499       0.26758013      -0.12011200      -0.18900604       0.06255584      -0.07939944
H        2.06749278       9.82799034       9.53639490       0.50041979      -0.30870703       0.13363617      -0.02320878       0.05810759       0.07814249
H       10.47716687       8.40848381      11.14912674      -0.20241147      -0.19455361       0.75885451      -0.10813864       0.06820472       0.01450178
H        5.17023163       3.65680461       1.43594695       0.01460382       0.00993528       0.11502072       0.05837845      -0.11515934      -0.01996165
H        3.65005989      10.44982948       2.04945763      -0.49627137       0.72828691       0.10001448       0.08320153      -0.02011256       0.01870329
H        3.09788998      10.70952791       8.46136492       0.08806351       0.99862764      -0.98501525       0.05434668      -0.10105836      -0.09527257
H        9.67597617      10.10538547      11.19657015      -0.15475495       0.06268267      -0.02815225      -0.17819959       0.10451655      -0.16373437
H        4.72213742       4.25009876       3.91316869       0.17182790      -0.09580735      -0.17423235      -0.14301335       0.08029205       0.04710127
H        3.06173000       9.88611746       4.67532443       1.07682964      -0.75414840      -0.85412045       0.10830501      -0.25923422      -0.12036416
H        5.55411139      10.18039469       8.42043207       0.49835650      -0.23840463      -0.05581535       0.14774471       0.20131382      -0.07223279
H        5.11067049       4.41356456      10.35222314      -0.10557478       0.06097499       0.20833755       0.08302311      -0.03080515       0.06241933
H        8.77499161       9.81680463       3.91329483       0.10895611       0.03342930      -0.32753915      -0.05619995       0.05634018      -0.02476659
H        3.98813713       8.55486941       5.23017226       0.26324321      -0.02631338      -0.27373249      -0.24691885      -0.12114409       0.00822601
H        9.32525589       4.16281170      10.52660635       0.48140782      -0.31020568      -0.84379365       0.11597924      -0.20575658       0.03504086
H        6.14689871       3.74532180       9.05647607      -0.81808078       0.08777494       0.19663825       0.05948054       0.11879679       0.02503743
C       10.56625427       9.12507178       3.20735468      -0.01058314       0.66006349      -0.48866844      -0.19942559       0.61595002       0.14299921
C        4.48898074       9.06091198       3.32048724       1.30926624      -0.84228523       0.44249129       0.81936948       0.21266879      -0.68357697
C        4.12331053       9.28318603       9.50515516      -0.81069413       0.00901114       0.77288280      -0.30843810      -0.60486317       0.19757314
C        4.15228900       3.05983661       8.98282253      -0.25565878       0.68043507       0.04614260      -0.21008858      -0.44192753      -0.25418287
N        4.54887151       2.86378626       1.65386300       0.26519474       0.24258509       0.08834939       0.11314801       0.79321367      -0.04267830
N        4.38094952       9.75631521       2.22508989       0.84601660      -0.34888969      -1.92499174       0.05399105      -0.26440736      -0.16638435
N        3.02585798       9.97378256       9.12231305       1.14012346      -1.18740898       0.36275329       0.06943412       0.38963190       0.32590100
N       10.19835781       9.29843426      10.64595089       0.05396804       0.32250995      -0.28040813      -0.17666771      -0.40626250       0.41372483
N        4.20415260       3.34752292       3.92331045      -0.43719647       0.28552535       0.02127778       0.06706535       0.05967651      -0.10965679
N        3.83941256       9.20976916       4.44390833      -1.37342053       0.69623157       1.17716186      -0.78679450       0.37312996       0.13888471
N       10.03904417       4.03379789       9.73394690       0.07355673       0.26858158      -0.21969611       0.50205378      -0.11920920       0.79830464
N        5.18479989       3.80455281       9.50027519      -0.10205458      -1.05105464      -0.59577028      -0.19587624      -0.47933979      -0.08108843
Pb       6.94135053      25.54975554      12.40774687       0.26943498      -0.09363251       0.00234077       1.09960864      -0.49121642       1.81983658
Pb       0.74845101       0.04083856      12.45944776      -0.17818418       0.06747070      -0.05579554      -0.35688339      -1.14917607      -1.74953322
Pb       7.12547041       6.31336222       6.40101791       0.23916375      -0.07109298      -0.17218555      -1.46214012      -0.31195993      -0.09039565
Pb       7.29812871      25.49395344       6.06296436      -0.17837812       0.03490134       0.03518538      -0.01864568      -4.03828361       1.65252524
I       10.18648847      25.32289427      13.09113256       0.07854859      -0.22204579      -0.05892659      -0.07474227       1.13021508       0.93180033
I        3.87121496      12.78015999      11.98135393       0.10842862       0.09167557      -0.09861387      -2.41727732       0.94406755      -0.85427346
I        3.91046888      25.13460135       6.58745163       0.58546496       0.12013668      -0.03295079      -0.71343109       0.68517495       0.84025977
I       10.41541751       0.03299340       5.49570812      -0.17236368       0.00110738       0.01063494       1.91572429       0.91307472       0.09882991
I        6.92147354       9.52669660      12.57301031       0.07319554      -0.09915630      -0.02852265      -0.13003617      -1.06948339      -0.50582257
I        7.42925872       3.07645876      24.86685233      -0.11093744       0.30596914       0.09124992      -0.68740740      -0.06871377      -1.04469018
I        6.93778411       3.05297751       6.42271702      -0.01209337       0.19226001       0.06571225       2.63802729       1.46574706      -0.44663311
I        7.48146538       9.51623787       6.00028336      -0.02518551      -0.12284775       0.04639332       0.07708821      -0.01291518      -0.85523657
I        6.86996537      13.06315567       2.97110147      -0.14608473      -0.11784208       0.02424616       0.18195606       0.35507358      -1.01115247
I        1.68945203      25.14008298       2.85912014      -0.07177870      -0.04141596      -0.05792901      -0.28707887       1.38475884      -0.12199104
I        0.35610922       0.36626175       9.24806781       0.05655293      -0.12591189       0.06606562      -0.47294104       2.06165466      -0.53091032
I        7.65781940       0.03558578       9.37420796       0.12398476      -0.25725995      -0.07222923      -0.91153563       1.13563555       0.76671819
H        3.36433768       1.75128602       2.92659054      -0.28012083      -0.25956220       0.12756099      -0.00493652       0.08741887       0.12974858
H        5.32802865       8.30628158       3.28444658      -0.85249550       0.40871126       0.34411645      -0.14016717      -0.00051817       0.14235705
H        3.90348944       8.53278156      10.27263450       0.24638064      -0.27364948       0.02222035       0.22562979       0.01038345       0.01074830
H        4.26983652       2.54027944       7.95182842       0.26983683      -0.19926636       0.29226883      -0.10849631      -0.03749166      -0.22486880
H        4.46268382       2.11937215       0.97185106      -0.16387016      -0.30879668      -0.60723735       0.06719309      -0.08771681      -0.11110538
H        5.01651202       9.46960761       1.40558848      -0.82707053       0.40947798       0.97409652      -0.09881075      -0.16010749      -0.04886861
H       10.85298649       1.73648756       7.32771496      -0.05876185       0.07050362      -0.15538975       0.06168496       0.02619769       0.00822076
H        2.19439421       2.30229311       9.13968742       0.41266671       0.65933367       0.26270603       0.04681290       0.08493768      -0.11262612
H       11.96740288      10.12992863       1.92588917      -0.56854292      -0.04932431       0.41526282      -0.00998919      -0.00514237      -0.16382125
H       11.39570675       4.41064254       3.17541697      -0.05318146      -0.27210768      -0.16849515       0.02684035       0.19355543       0.04458830
H       11.45177343       3.47856671       7.37260199       0.55467801       0.49539469       0.39309452      -0.03967265       0.20626337       0.09544190
H        2.79269880       3.50041158      10.43152193      -0.55140132      -0.34727526       0.10568927       0.09587005       0.04227015       0.08958953
H        9.57910842      10.86791872       2.69878698      -0.18857693       0.21189572      -0.12640485       0.17176981       0.01739119       0.17921704
H        8.90315858       3.91638271       4.03430245       0.05258626       0.15663641       0.10967713       0.11747452      -0.17939752       0.00911620
H       10.66899149       4.84798050       9.54904006      -0.13392227      -0.13155337       0.12010377       0.06640398       0.14694746      -0.08683705
H       10.01644221      11.38808494       8.76817673       0.15846395      -0.60433147       0.13702048      -0.07898015      -0.16662971      -0.16607406
H        3.51221229       3.22605940       4.67525166       0.10638620      -0.01477512       0.26180038      -0.11209872       0.17368296       0.00451654
H        8.23367585       2.42079641       3.25643432       0.33044796       0.77120149       0.62715082      -0.10340954       0.10441670       0.08057723
H        6.23858664       8.85239114       9.39741616      -0.73652575       0.24900701       0.05873689       0.20591627       0.01035655      -0.14121302
H       10.86579075      10.18030478       7.56941918      -0.43984963       0.41078452       0.76993352       0.11487905       0.09138946      -0.17068451
C        4.00803928       2.62980201       2.84031622       0.46554844       0.42399742      -0.02856255      -0.20246034      -0.39252772       0.22722255
C       10.10039331       2.78401302       2.70225271       0.32751714       1.16957812       0.61176745       0.23953019       0.05495340      -0.01581425
C       10.10757302       2.90531827       8.90880947       0.66466520       0.92502069       0.83073042      -0.28594450      -0.15448110      -0.18455635
C       10.60738045       9.36291395       9.36844049       0.44762564      -0.25846010       0.50882635       0.02611483       0.44830289      -0.31499508
N       11.70330000       9.34213960       2.55491761       0.63941186      -0.77873382       0.29173132       0.62085010       0.15904844      -0.77661281
N       11.24648416       3.51358941       2.63293203      -0.58491693      -0.45766809       0.13177091      -1.12515240       0.00530877       0.20707747
N       10.91849795       2.68144389       7.84506794      -0.95119360      -0.54419298      -0.09872187       0.39740798      -0.52549916       0.25163502
N        2.92758747       2.97166974       9.53744587       1.18926743      -0.00410446      -0.57367374      -0.47674604       1.10541895      -0.71169439
N        9.52667586       9.95969575       3.20620704       0.36878542      -0.32594641       0.22433725       0.43460173      -0.21879309      -0.08642565
N        9.01651474       3.10250285       3.41610808      -0.38323754      -1.19174679      -0.82098240       0.68920817      -0.26785939       0.22867440
N        5.41389457       9.44292307       9.11629123      -0.79774680       0.80568496      -0.23569022       0.31408894       0.71465533       0.18476182
N       10.48029376      10.42022895       8.56134978       0.13391777       0.74152879      -1.82733774       0.50780983      -0.43320250       0.43475972
Pb       0.95164211       6.49959568      12.35769749       0.11421284      -0.09796405       0.09991214       0.04628749      -2.80249476       1.99090933
Pb       7.34328046       6.33175631      12.67950278       0.00628319       0.05100488      -0.14805016      -3.07750804       0.05397039       0.65726629
Pb       1.00560414       0.00406357       6.09234696      -0.12258209      -0.36828294       0.04785968      -1.74215420      -1.00184356       1.77251489
Pb       1.00684971       6.24387162       6.00592000      -0.02392246       0.40948986       0.12738336       0.92245517      -2.96435412       1.31202126
I        4.21928884       6.22646002      11.94949160      -0.00170129      -0.06404892       0.10124661      -1.45467955       0.11960124       0.77583576
I       10.58062027       6.87393180      13.08845416      -0.30716741      -0.31480527      -0.03148637      -0.59850551      -0.69118937      -0.95224780
I       10.47274866       5.75642849       5.75154583      -0.05512190       0.03675530      -0.22536400      -0.25718652       0.13830629       1.41913723
I        4.17229933       6.79062053       7.01416395      -0.11571190      -0.19927948      -0.07095408       0.13141460       1.33486757      -0.51930200
I        0.79531824       3.29779633      12.33267707      -0.13949648      -0.04730709       0.32931211      -0.05279606       2.30165033      -1.89521833
I        0.91938385       9.69747573      24.64833567      -0.10280185      -0.14758068       0.16649072      -0.90104865      -3.93662887       1.70853147
I        0.73173005       9.45643391       6.48329308      -0.16457494       0.30437595      -0.07251457       2.08219488       2.73591782      -2.07829238
I        1.53203466       3.19685843       6.11296131      -0.12780705      -0.36144064      -0.01750922       0.81829252      -1.01317285       2.19665236
I       14.39608263       6.58038790       2.92754857      -0.15230115      -0.03457628      -0.22171924       0.33679074       0.96502089       0.16700761
I        6.86045197       5.96544128       3.04200994      -0.11792783      -0.04288861       0.02443881       1.19212477      -0.20475400       0.77293742
I        7.84658951       6.53958524       9.32349229      -0.01005766       0.10315079       0.31212496      -1.53042075       0.00730102      -0.85928991
I        0.46007469       6.12273745       9.26139575      -0.06784622       0.05341150       0.07217298      -1.13929916       1.10267165       0.17403126
H       10.29730363       8.17467981      16.42748398       0.15299539      -0.03113113       0.12603499      -0.01127798      -0.11781565      -0.05616860
H        9.85061307       1.83761790      14.73906583       0.21571111      -0.24114057      -0.31434851      -0.09066446       0.15774399       0.07518679
H        9.29015253       2.06260781      21.79224225      -0.55447868      -0.64340028      -0.02023183       0.00209132       0.26291883       0.07638037
H       11.03012262       8.46073879      21.62349688      -0.04416590      -0.28540245      -0.12445418      -0.03003175      -0.23728046       0.07848074
H       12.24808588       8.59424032      15.28980627      -0.23770569       0.31502620      -0.15463922       0.01686474      -0.04681588       0.16242286
H       11.82132253       3.14594269      14.61869252       0.29449499       0.26758013      -0.12011200      -0.18900604       0.06255584      -0.07939944
H        1.89376304       9.82313710      22.17005385       0.50041979      -0.30870703       0.13363617      -0.02320878       0.05810759       0.07814249
H       10.30343713       8.40363057      23.78278569      -0.20241147      -0.19455361       0.75885451      -0.10813864       0.06820472       0.01450178
H        4.99650189       3.65195137      14.06960590       0.01460382       0.00993528       0.11502072       0.05837845      -0.11515934      -0.01996165
H        3.47633015      10.44497624      14.68311658      -0.49627137       0.72828691       0.10001448       0.08320153      -0.02011256       0.01870329
H        2.92416024      10.70467467      21.09502387       0.08806351       0.99862764      -0.98501525       0.05434668      -0.10105836      -0.09527257
H        9.50224643      10.10053223      23.83022910      -0.15475495       0.06268267      -0.02815225      -0.17819959       0.10451655      -0.16373437
H        4.54840768       4.24524552      16.54682764       0.17182790      -0.09580735      -0.17423235      -0.14301335       0.08029205       0.04710127
H        2.88800026       9.88126422      17.30898338       1.07682964      -0.75414840      -0.85412045       0.10830501      -0.25923422      -0.12036416
H        5.38038165      10.17554145      21.05409102       0.49835650      -0.23840463      -0.05581535       0.14774471       0.20131382      -0.07223279
H        4.93694075       4.40871132      22.98588209      -0.10557478       0.06097499       0.20833755       0.08302311      -0.03080515       0.06241933
H        8.60126187       9.81195139      16.54695378       0.10895611       0.03342930      -0.32753915      -0.05619995       0.05634018      -0.02476659
H        3.81440739       8.55001617      17.86383121       0.26324321      -0.02631338      -0.27373249      -0.24691885      -0.12114409       0.00822601
H        9.15152615       4.15795846      23.16026530       0.48140782      -0.31020568      -0.84379365       0.11597924      -0.20575658       0.03504086
H        5.97316897       3.74046856      21.69013502      -0.81808078       0.08777494       0.19663825       0.05948054       0.11879679       0.02503743
C       10.39252453       9.12021854      15.84101363      -0.01058314       0.66006349      -0.48866844      -0.19942559       0.61595002       0.14299921
C        4.31525100       9.05605874      15.95414619       1.30926624      -0.84228523       0.44249129       0.81936948       0.21266879      -0.68357697
C        3.94958079       9.27833279      22.13881411      -0.81069413       0.00901114       0.77288280      -0.30843810      -0.60486317       0.19757314
C        3.97855926       3.05498337      21.61648148      -0.25565878       0.68043507       0.04614260      -0.21008858      -0.44192753      -0.25418287
N        4.37514177       2.85893302      14.28752195       0.26519474       0.24258509       0.08834939       0.11314801       0.79321367      -0.04267830
N        4.20721978       9.75146197      14.85874884       0.84601660      -0.34888969      -1.92499174       0.05399105      -0.26440736      -0.16638435
N        2.85212824       9.96892932      21.75597200       1.14012346      -1.18740898       0.36275329       0.06943412       0.38963190       0.32590100
N       10.02462807       9.29358102      23.27960984       0.05396804       0.32250995      -0.28040813      -0.17666771      -0.40626250       0.41372483
N        4.03042286       3.34266968      16.55696940      -0.43719647       0.28552535       0.02127778       0.06706535       0.05967651      -0.10965679
N        3.66568282       9.20491592      17.07756728      -1.37342053       0.69623157       1.17716186      -0.78679450       0.37312996       0.13888471
N        9.86531443       4.02894465      22.36760585       0.07355673       0.26858158      -0.21969611       0.50205378      -0.11920920       0.79830464
N        5.01107015       3.79969957      22.13393414      -0.10205458      -1.05105464      -0.59577028      -0.19587624      -0.47933979      -0.08108843
Pb       6.76762079      25.54490230      25.04140582       0.26943498      -0.09363251       0.00234077       1.09960864      -0.49121642       1.81983658
Pb       0.57472127       0.03598532      25.09310671      -0.17818418       0.06747070      -0.05579554      -0.35688339      -1.14917607      -1.74953322
Pb       6.95174067       6.30850898      19.03467686       0.23916375      -0.07109298      -0.17218555      -1.46214012      -0.31195993      -0.09039565
Pb       7.12439897      25.48910020      18.69662331      -0.17837812       0.03490134       0.03518538      -0.01864568      -4.03828361       1.65252524
I       10.36021820      25.32774751       0.45747361       0.07854859      -0.22204579      -0.05892659      -0.07474227       1.13021508       0.93180033
I        3.69748522      12.77530675      24.61501288       0.10842862       0.09167557      -0.09861387      -2.41727732       0.94406755      -0.85427346
I        3.73673914      25.12974811      19.22111058       0.58546496       0.12013668      -0.03295079      -0.71343109       0.68517495       0.84025977
I       10.24168777       0.02814016      18.12936707      -0.17236368       0.00110738       0.01063494       1.91572429       0.91307472       0.09882991
I        7.09520328       9.53154984      -0.06064864       0.07319554      -0.09915630      -0.02852265      -0.13003617      -1.06948339      -0.50582257
I        7.60298845       3.08131200      12.23319338      -0.11093744       0.30596914       0.09124992      -0.68740740      -0.06871377      -1.04469018
I        6.76405437       3.04812427      19.05637597      -0.01209337       0.19226001       0.06571225       2.63802729       1.46574706      -0.44663311
I        7.30773564       9.51138463      18.63394231      -0.02518551      -0.12284775       0.04639332       0.07708821      -0.01291518      -0.85523657
I        6.69623563      13.05830243      15.60476042      -0.14608473      -0.11784208       0.02424616       0.18195606       0.35507358      -1.01115247
I        1.51572229      25.13522974      15.49277909      -0.07177870      -0.04141596      -0.05792901      -0.28707887       1.38475884      -0.12199104
I        0.18237948       0.36140851      21.88172676       0.05655293      -0.12591189       0.06606562      -0.47294104       2.06165466      -0.53091032
I        7.48408966       0.03073254      22.00786691       0.12398476      -0.25725995      -0.07222923      -0.91153563       1.13563555       0.76671819
H        3.19060794       1.74643278      15.56024949      -0.28012083      -0.25956220       0.12756099      -0.00493652       0.08741887       0.12974858
H        5.15429891       8.30142834      15.91810553      -0.85249550       0.40871126       0.34411645      -0.14016717      -0.00051817       0.14235705
H        3.72975970       8.52792832      22.90629345       0.24638064      -0.27364948       0.02222035       0.22562979       0.01038345       0.01074830
H        4.09610678       2.53542620      20.58548737       0.26983683      -0.19926636       0.29226883      -0.10849631      -0.03749166      -0.22486880
H        4.28895408       2.11451891      13.60551001      -0.16387016      -0.30879668      -0.60723735       0.06719309      -0.08771681      -0.11110538
H        4.84278228       9.46475437      14.03924743      -0.82707053       0.40947798       0.97409652      -0.09881075      -0.16010749      -0.04886861
H       10.67925675       1.73163432      19.96137391      -0.05876185       0.07050362      -0.15538975       0.06168496       0.02619769       0.00822076
H        2.02066447       2.29743987      21.77334637       0.41266671       0.65933367       0.26270603       0.04681290       0.08493768      -0.11262612
H       11.79367314      10.12507539      14.55954812      -0.56854292      -0.04932431       0.41526282      -0.00998919      -0.00514237      -0.16382125
H       11.22197701       4.40578930      15.80907592      -0.05318146      -0.27210768      -0.16849515       0.02684035       0.19355543       0.04458830
H       11.27804369       3.47371347      20.00626094       0.55467801       0.49539469       0.39309452      -0.03967265       0.20626337       0.09544190
H        2.61896906       3.49555834      23.06518088      -0.55140132      -0.34727526       0.10568927       0.09587005       0.04227015       0.08958953
H        9.40537868      10.86306548      15.33244593      -0.18857693       0.21189572      -0.12640485       0.17176981       0.01739119       0.17921704
H        8.72942884       3.91152947      16.66796140       0.05258626       0.15663641       0.10967713       0.11747452      -0.17939752       0.00911620
H       10.49526175       4.84312726      22.18269901      -0.13392227      -0.13155337       0.12010377       0.06640398       0.14694746      -0.08683705
H        9.84271247      11.38323170      21.40183568       0.15846395      -0.60433147       0.13702048      -0.07898015      -0.16662971      -0.16607406
H        3.33848255       3.22120616      17.30891061       0.10638620      -0.01477512       0.26180038      -0.11209872       0.17368296       0.00451654
H        8.05994611       2.41594317      15.89009327       0.33044796       0.77120149       0.62715082      -0.10340954       0.10441670       0.08057723
H        6.06485690       8.84753790      22.03107511      -0.73652575       0.24900701       0.05873689       0.20591627       0.01035655      -0.14121302
H       10.69206101      10.17545154      20.20307813      -0.43984963       0.41078452       0.76993352       0.11487905       0.09138946      -0.17068451
C        3.83430954       2.62494877      15.47397517       0.46554844       0.42399742      -0.02856255      -0.20246034      -0.39252772       0.22722255
C        9.92666357       2.77915978      15.33591166       0.32751714       1.16957812       0.61176745       0.23953019       0.05495340      -0.01581425
C        9.93384328       2.90046503      21.54246842       0.66466520       0.92502069       0.83073042      -0.28594450      -0.15448110      -0.18455635
C       10.43365071       9.35806071      22.00209944       0.44762564      -0.25846010       0.50882635       0.02611483       0.44830289      -0.31499508
N       11.52957026       9.33728636      15.18857656       0.63941186      -0.77873382       0.29173132       0.62085010       0.15904844      -0.77661281
N       11.07275442       3.50873617      15.26659098      -0.58491693      -0.45766809       0.13177091      -1.12515240       0.00530877       0.20707747
N       10.74476821       2.67659065      20.47872689      -0.95119360      -0.54419298      -0.09872187       0.39740798      -0.52549916       0.25163502
N        2.75385773       2.96681650      22.17110482       1.18926743      -0.00410446      -0.57367374      -0.47674604       1.10541895      -0.71169439
N        9.35294612       9.95484251      15.83986599       0.36878542      -0.32594641       0.22433725       0.43460173      -0.21879309      -0.08642565
N        8.84278500       3.09764961      16.04976703      -0.38323754      -1.19174679      -0.82098240       0.68920817      -0.26785939       0.22867440
N        5.24016483       9.43806983      21.74995018      -0.79774680       0.80568496      -0.23569022       0.31408894       0.71465533       0.18476182
N       10.30656402      10.41537571      21.19500873       0.13391777       0.74152879      -1.82733774       0.50780983      -0.43320250       0.43475972
Pb       0.77791237       6.49474244      24.99135644       0.11421284      -0.09796405       0.09991214       0.04628749      -2.80249476       1.99090933
Pb       7.51701020       6.33660955       0.04584383       0.00628319       0.05100488      -0.14805016      -3.07750804       0.05397039       0.65726629
Pb       0.83187440      -0.00078967      18.72600591      -0.12258209      -0.36828294       0.04785968      -1.74215420      -1.00184356       1.77251489
Pb       0.83311997       6.23901838      18.63957895      -0.02392246       0.40948986       0.12738336       0.92245517      -2.96435412       1.31202126
I        4.04555910       6.22160678      24.58315055      -0.00170129      -0.06404892       0.10124661      -1.45467955       0.11960124       0.77583576
I       10.75435001       6.87878504       0.45479521      -0.30716741      -0.31480527      -0.03148637      -0.59850551      -0.69118937      -0.95224780
I       10.29901892       5.75157525      18.38520478      -0.05512190       0.03675530      -0.22536400      -0.25718652       0.13830629       1.41913723
I        3.99856959       6.78576729      19.64782290      -0.11571190      -0.19927948      -0.07095408       0.13141460       1.33486757      -0.51930200
I        0.62158850       3.29294309      24.96633602      -0.13949648      -0.04730709       0.32931211      -0.05279606       2.30165033      -1.89521833
I        1.09311358       9.70232897      12.01467672      -0.10280185      -0.14758068       0.16649072      -0.90104865      -3.93662887       1.70853147
I        0.55800031       9.45158067      19.11695203      -0.16457494       0.30437595      -0.07251457       2.08219488       2.73591782      -2.07829238
I        1.35830492       3.19200519      18.74662026      -0.12780705      -0.36144064      -0.01750922       0.81829252      -1.01317285       2.19665236
I       14.22235289       6.57553466      15.56120752      -0.15230115      -0.03457628      -0.22171924       0.33679074       0.96502089       0.16700761
I        6.68672223       5.96058804      15.67566889      -0.11792783      -0.04288861       0.02443881       1.19212477      -0.20475400       0.77293742