768
Lattice="31.52003920688824 -1.0395494997101957 0.3212732111417801 -0.9162685860741572 30.3547437254124 0.028757121508259497 0.35595936046071336 -0.14720492652102254 17.2635365134837" Properties=species:S:1:pos:R:3:forces:R:3:momenta:R:3 pbc="T T T"
H        1.26309586       1.82749732       6.53973995      -0.25311160       0.11390611      -0.04898550      -0.20104796      -0.03251972       0.00332149
H        3.57245755       1.74802078       5.86682167      -0.25933353       0.04361703      -0.22223502       0.17614936       0.00760407      -0.08442511
H        3.33841365       2.29475280       4.19552608       0.00501471       0.05640266      -0.45127190       0.01987224       0.17610145      -0.07075071
H        1.00441826       2.78140153       3.63598871      -0.08791935       0.14745033      -0.50786372      -0.21607131       0.15832493      -0.09494368
H       31.20959846       1.49869277       5.19835325      -1.51547076       0.59662468       0.58734591       0.05340206       0.17641850       0.15121845
H        5.85731563       5.92072181       1.56678055       0.09535302       0.89285669       1.04685103      -0.16694166      -0.04630188       0.20298986
H        5.42499512       6.02950167      16.72286366      -0.11536266      -0.25956606      -0.22935331       0.21123709      -0.11583029       0.17087854
H        5.68293844       4.31918528      16.28091402       0.01480051       0.26906714       0.13537553       0.07295565      -0.05772431       0.02320846
H        6.52200331       3.06173476       0.90452814       0.02978376       0.16647830       0.14171039       0.02710840      -0.10942510      -0.13607180
H        6.74067481       3.87059722       2.47486911      -0.15073803       0.36125350      -0.72361442      -0.01206246       0.02065199       0.20835059
C        1.58672170       2.15126012       5.47256753       0.69667243       0.18629911       0.35069019      -0.78739690       0.04092089       0.77958878
C        5.89661198       5.04973090       0.94494013       0.20347881      -0.32419709       0.16339384      -0.30482876       0.32861790       0.55977626
N        2.90776294       2.07288279       5.14076469       0.23474667      -0.20730004       0.66419659       0.50619277       0.77124960       0.54098059
N        0.71823051       2.64345671       4.61711678       1.25499800      -0.89158577      -0.44355563      -0.20416093       0.05031700       0.14980488
N        5.68968442       5.05978916      17.00480707      -0.18395539       0.31343000      -1.10634725       0.96443083      -0.25201654      -0.07021027
N        6.52689883       3.94363337       1.45053059      -0.00464204      -1.38597597       0.31630771       0.09305767      -0.88104825       0.25264330
Pb       3.84993903      -0.10908539       0.79521833      -0.01693569      -0.07906023      -0.01651381      -0.22876232      -0.10102481       1.48313447
Pb      31.47499350      -0.73573707       0.91806456      -0.35794109      -0.32748233       0.46869574      -2.47792251       1.53215327       1.60659105
I        6.00203829       0.68551146       3.10532608      -0.03863783       0.15440602      -0.01483985       0.43955255      -0.04128255      -0.34058862
I        1.41906099       6.44329650       2.19840841       0.14949376       0.05800155       0.20688515      -0.77132108      -1.45144904       0.24299704
I        5.88018673       1.19700964       7.10793138       0.17645110       0.20950149       0.31821292       0.27262612      -1.01644190       0.89457904
I        1.41979626       5.87230972       6.74343880       0.11918999       0.11940249      -0.32890923       0.54064562      -0.65539569       0.81024325
I        5.44742525       4.90594831       4.74055793       0.15061756       0.30962537       0.08700025       1.03965507      -0.73749418      -1.51583660
I        2.01084193       2.63065665       1.22530950       0.10299697       0.13962875      -0.21919789      -1.04802695       1.04672862      -1.83790524
H        1.30131609      11.12380608      16.77507992      -0.08185146      -0.24424088       0.00944018       0.11273688       0.05198743       0.01815631
H        0.79338682      11.87224062       1.68457165       0.05067250      -0.66858559       0.02151343       0.05568395       0.00019832      -0.13536669
H        0.73637204      10.24897305       2.32555506       0.04272728      -0.73045017       0.54727234       0.07322093      -0.07973096      -0.09317642
H        0.88812279       8.41533761       0.49290673       0.02155050       0.04155246      -0.58322440       0.25526265      -0.01337075      -0.23009912
H        1.39888090       8.86115574      16.05201548      -0.12340747       0.10693983       0.52584711      -0.13085655       0.09589750      -0.08436206
H        4.54374820      11.06346583       5.69389623      -0.04529400      -0.01887791       0.34599691       0.06465047       0.05281362      -0.05227621
H        3.29862057      13.13018577       5.55057380      -0.04096453       0.06318867      -0.08239144       0.07031967      -0.04638616       0.00858792
H        4.67481918      14.05064653       4.77320369      -0.14156594      -0.21057889       0.19706902       0.09725097      -0.03190467       0.05781814
H        6.87740165      12.94042490       4.64884796      -0.25834862       0.58622023      -0.38447136       0.14526572       0.13194941      -0.21668041
H       13.30367498      14.00398061       5.05348251      -0.05432665       0.37466927      -0.12336781      -0.01648314       0.00964349       0.05389976
C        0.85260509      10.43372121       0.24005417       0.03490105       0.62506196       0.64751479      -0.51589563      -0.00021334       0.22088178
C        5.02235646      12.07004287       5.34949354      -0.47296679       0.54891521      -0.73682817       0.14810930      -0.80368356       0.19538607
N        0.72081424      10.82757175       1.50699829       0.08965375       0.94245146      -1.73139393      -0.09479714       0.49305521      -0.29612162
N        1.24902197       9.04209934      17.06189162       0.09181316      -0.15940903       0.54394743      -0.98391747       0.57702822      -0.34943040
N        4.27213398      13.14943754       5.19065962       0.14499462      -0.07157800       0.16706511      -0.12326015      -0.33418552      -0.26206778
N        6.30139339      12.09380916       4.98986405       1.17201313      -0.62388226       0.08135710       0.25653682       0.64701323       0.07136274
Pb       3.44556939       7.47257798       4.67339797      -0.08002071       0.03479711       0.00024620      -0.29510564       0.20788336      -0.08491568
Pb      31.00134545       6.28732445       4.93541098       0.34001708      -0.03504855       0.15440614       1.63613982      -2.14074398      -0.21161633
I        5.27803654       8.61494097       7.10569641      -0.14206247       0.03834167       0.05925827       3.03654063       0.48370301      -1.22832153
I        1.50656805      13.97921147       7.08939914       0.01578193       0.08875233       0.09294738       1.26834376       1.45984984      -0.39228663
I        5.71450186       8.89264734       2.68607132      -0.08301592      -0.13000944       0.09001259      -0.19612554       1.34579762      -1.31522561
I        1.28774016      13.96731181       2.89713129      -0.08158531       0.07403650       0.17601639       0.45701777       1.51581853       0.48966632
I        5.19297510      12.52039049       0.67608313       0.00420047      -0.28787995      -0.12915836       0.17792783       1.45056390      -0.97711606
I        1.39863722      10.15680614       5.00696386       0.14243611      -0.41505046      -0.08237352      -0.71449245      -0.73158628      -0.05590313
H        8.85443339       3.36180566       4.08319504       0.14465945      -0.54718341       0.19651117       0.10132986       0.07353506       0.14829026
H        8.62991275       4.03229320       6.22566136       0.14239320       0.20025224       0.08947829      -0.25231846       0.18090211       0.07898445
H        8.94221445       2.48782049       6.97070998       0.01301666      -0.24694779      -0.10245174      -0.01820735      -0.11147473       0.04028830
H        9.11146178       0.57150876       5.23953245       0.27329626       0.33020850      -0.27830033       0.20048429      -0.01376340      -0.20468931
H        9.28202709       1.10120836       3.57156796       0.05803520      -0.10222507      -0.51665781       0.04282573      -0.05149179       0.08847480
H       13.42286917       6.11300986       1.04957786       0.29281433      -0.06187895       0.56008456      -0.06015257      -0.32234216      -0.02770757
H       15.19095289       4.43786554       1.22763191       0.26423738       0.17849764       0.08323199      -0.06910589       0.03707773      -0.09895416
H       14.74087153       3.19443709      17.35590841      -0.28766339       0.22387439       0.09278726      -0.00030963      -0.05600551       0.24391060
H       12.53337086       3.97261978      16.49916598      -0.25410562       0.58560747       0.34467729       0.02728895       0.02584283      -0.12660106
H       11.85175067       5.54516781      16.94386208      -0.01521228       0.16286821       0.08014219       0.04510885       0.02713665      -0.11235740
C        8.94208446       2.57618588       4.87026464      -0.17772785       1.62453649       0.08858064       0.04096308       0.11516507       0.52997334
C       13.35047943       5.11855409       0.58039077       0.28187818       0.18186113      -0.99014249      -0.23426061       0.39415232       0.42224254
N        8.81320249       3.02831373       6.09669356      -0.15604200       0.31959442       0.26779173       0.26909590       0.22484282      -0.29894541
N        9.15109934       1.34698858       4.54429757      -0.02877935      -1.44219614       0.22193119      -0.39282244      -0.67547661       0.06437659
N       14.37725450       4.24531604       0.60740320      -0.50246825       0.04574916       0.35763495      -0.58498597       0.18292996       1.03711767
N       12.60591950       4.83320734      17.07632417       0.27315418      -1.56395165      -0.54826711       0.56825087       0.56103430       0.38282798
Pb      10.76368886      29.84445819       0.47171276       0.42426437       0.08292503       0.36423076      -0.12637159      -0.75847994      -0.44783184
Pb       6.88338902      30.00419660       0.57251317      -0.19361411      -0.07219424       0.17117782       1.19323933      -2.34433003       1.10556180
I       13.40792639       0.50487587       3.15732112       0.05738533      -0.08341513      -0.45920434       0.00062949       2.39970145       2.48548612
I        9.23776980       6.08863453       2.80777099      -0.02740282      -0.20077769      -0.32409489       0.19101642      -2.39162995       1.92872074
I       14.13204586       1.09553762       7.30674084      -0.15134159       0.52963829      -0.16908708       0.46218583      -0.66444968       0.13626193
I        9.40197405       6.45549936       7.35226289       0.07167689      -0.07486274      -0.15023966       1.28396707      -0.82889321      -1.57352412
I       13.13821831       4.48359710       4.52593626      -0.10972497      -0.07998740       0.03757498       0.71237007      -1.14802770       0.72977516
I        9.90785426       2.14074700       0.94378432      -0.11662116       0.14861197      -0.09105741      -0.53575547      -0.31792861      -0.42029744
H        8.83415211       9.97299397       1.64163317      -0.22312194       0.23997034       0.42240671      -0.00637972      -0.06920429      -0.05535104
H        7.76048679      10.31005444      17.19043337      -0.35981225       0.21330930      -0.15190955      -0.06724761       0.09086140      -0.02189670
H        8.96405977      10.02599319      15.92251819       0.03705468       0.18656343       0.03414992      -0.08186848       0.05720160       0.00613821
H       11.29983798       9.37714487      16.88372226       0.64401914      -0.09827827      -1.40540692      -0.03322861       0.16854414      -0.11444683
H       10.99217350       9.35915433       1.29965955       0.63432780      -0.11076465       0.69978942       0.10902288      -0.03914971      -0.10380992
H       13.49648046      12.16150181       3.64447127      -0.01550986      -0.11935229      -0.42377233       0.14964820      -0.26875079      -0.08686082
H       13.79244173      10.04620110       4.39121334       0.17672503       0.35852891       0.85730687       0.11724743      -0.15794789       0.13733996
H       13.93338079      10.52938405       6.18946203      -0.11140430       0.09378197      -1.05967903       0.01641187       0.04993460       0.12835377
H       13.55722149      12.92771105       6.53279491      -0.12409687       0.37739124      -0.12038660       0.04474647       0.17665515      -0.04369961
H        6.86359637      11.23589734       5.05230156      -0.16318273      -0.24114270       0.16931560      -0.02591475       0.13879554      -0.16967173
C        9.21505960       9.99525495       0.63011295       0.71626774      -0.54652741      -0.71780736      -0.44232394       0.41279772       0.14793488
C       13.60263400      12.01206018       4.72483179      -0.38527957       1.31395267      -0.18092168      -0.25613046       0.18602908       0.27500527
N        8.72960988      10.13793601      16.92035720       0.54462060      -0.36317204       0.56335157      -0.66893857      -0.55724355       0.74927149
N       10.49645162       9.65938774       0.48513270      -2.03072933       0.51236526       0.75830019      -0.07473344      -0.00036658      -0.38967330
N       13.84684370      10.80442514       5.16088830       0.20401406      -1.67771973       0.31594057      -0.30093117      -0.09229587       0.06316572
N       13.44647440      13.08516022       5.48833325       0.31630723      -0.60965744       0.62289271       0.54387138      -0.49070571       0.01357810
Pb      11.42659238       7.12783787       4.71265732      -0.02175428       0.10208335       0.32850231      -1.18296109       0.16427796      -2.80885329
Pb       7.54450684       7.67084466       4.96674157      -0.35966455      -0.19017392      -0.08984362      -1.62903101      -3.48885881       1.56194037
I       13.42966351       7.97672364       7.13070212      -0.00528734       0.10298609       0.10427512       2.80770517       0.43673693      -1.77662245
I        9.34769053      13.83746662       6.83714588      -0.03700627      -0.22526963      -0.31552081       0.79842913       0.57695072       0.56509332
I       13.49214231       8.45180414       2.53244082      -0.19378568      -0.03027047       0.01059761      -0.29010281       0.76235161       1.29813562
I        9.39502852      13.24054805       2.51837199      -0.27569683       0.00975531       0.07817827       0.01524110       0.49826031      -0.15363406
I       13.67864186      12.04485312      17.28247292       0.06713018       0.19051525       0.19116234      -1.05986121       0.31951119      -1.07356742
I        9.70441824      10.09162232       4.82480955      -0.10514371      -0.21959858       0.00206761      -1.03026293       0.57565305      -0.36756276
H        1.44107554       1.75389486      15.17150821      -0.25311160       0.11390611      -0.04898550      -0.20104796      -0.03251972       0.00332149
H        3.75043723       1.67441832      14.49858993      -0.25933353       0.04361703      -0.22223502       0.17614936       0.00760407      -0.08442511
H        3.51639333       2.22115034      12.82729434       0.00501471       0.05640266      -0.45127190       0.01987224       0.17610145      -0.07075071
H        1.18239794       2.70779907      12.26775697      -0.08791935       0.14745033      -0.50786372      -0.21607131       0.15832493      -0.09494368
H       31.38757814       1.42509031      13.83012151      -1.51547076       0.59662468       0.58734591       0.05340206       0.17641850       0.15121845
H        6.03529531       5.84711935      10.19854881       0.09535302       0.89285669       1.04685103      -0.16694166      -0.04630188       0.20298986
H        5.24701544       6.10310414       8.09109541      -0.11536266      -0.25956606      -0.22935331       0.21123709      -0.11583029       0.17087854
H        5.50495876       4.39278775       7.64914577       0.01480051       0.26906714       0.13537553       0.07295565      -0.05772431       0.02320846
H        6.69998299       2.98813230       9.53629640       0.02978376       0.16647830       0.14171039       0.02710840      -0.10942510      -0.13607180
H        6.91865449       3.79699476      11.10663737      -0.15073803       0.36125350      -0.72361442      -0.01206246       0.02065199       0.20835059
C        1.76470138       2.07765766      14.10433579       0.69667243       0.18629911       0.35069019      -0.78739690       0.04092089       0.77958878
C        6.07459166       4.97612844       9.57670839       0.20347881      -0.32419709       0.16339384      -0.30482876       0.32861790       0.55977626
N        3.08574262       1.99928033      13.77253295       0.23474667      -0.20730004       0.66419659       0.50619277       0.77124960       0.54098059
N        0.89621019       2.56985425      13.24888504       1.25499800      -0.89158577      -0.44355563      -0.20416093       0.05031700       0.14980488
N        5.51170474       5.13339163       8.37303882      -0.18395539       0.31343000      -1.10634725       0.96443083      -0.25201654      -0.07021027
N        6.70487851       3.87003091      10.08229885      -0.00464204      -1.38597597       0.31630771       0.09305767      -0.88104825       0.25264330
Pb       4.02791871      -0.18268785       9.42698659      -0.01693569      -0.07906023      -0.01651381      -0.22876232      -0.10102481       1.48313447
Pb      31.65297318      -0.80933953       9.54983282      -0.35794109      -0.32748233       0.46869574      -2.47792251       1.53215327       1.60659105
I        6.18001797       0.61190900      11.73709434      -0.03863783       0.15440602      -0.01483985       0.43955255      -0.04128255      -0.34058862
I        1.59704067       6.36969404      10.83017667       0.14949376       0.05800155       0.20688515      -0.77132108      -1.45144904       0.24299704
I        6.05816641       1.12340718      15.73969964       0.17645110       0.20950149       0.31821292       0.27262612      -1.01644190       0.89457904
I        1.59777594       5.79870726      15.37520706       0.11918999       0.11940249      -0.32890923       0.54064562      -0.65539569       0.81024325
I        5.62540493       4.83234585      13.37232619       0.15061756       0.30962537       0.08700025       1.03965507      -0.73749418      -1.51583660
I        2.18882161       2.55705419       9.85707776       0.10299697       0.13962875      -0.21919789      -1.04802695       1.04672862      -1.83790524
H        1.12333641      11.19740855       8.14331167      -0.08185146      -0.24424088       0.00944018       0.11273688       0.05198743       0.01815631
H        0.97136650      11.79863816      10.31633991       0.05067250      -0.66858559       0.02151343       0.05568395       0.00019832      -0.13536669
H        0.91435172      10.17537059      10.95732332       0.04272728      -0.73045017       0.54727234       0.07322093      -0.07973096      -0.09317642
H        1.06610247       8.34173515       9.12467499       0.02155050       0.04155246      -0.58322440       0.25526265      -0.01337075      -0.23009912
H        1.22090122       8.93475821       7.42024723      -0.12340747       0.10693983       0.52584711      -0.13085655       0.09589750      -0.08436206
H        4.72172788      10.98986337      14.32566449      -0.04529400      -0.01887791       0.34599691       0.06465047       0.05281362      -0.05227621
H        3.47660025      13.05658331      14.18234206      -0.04096453       0.06318867      -0.08239144       0.07031967      -0.04638616       0.00858792
H        4.85279886      13.97704407      13.40497195      -0.14156594      -0.21057889       0.19706902       0.09725097      -0.03190467       0.05781814
H        7.05538133      12.86682244      13.28061622      -0.25834862       0.58622023      -0.38447136       0.14526572       0.13194941      -0.21668041
H       13.48165466      13.93037815      13.68525077      -0.05432665       0.37466927      -0.12336781      -0.01648314       0.00964349       0.05389976
C        1.03058477      10.36011875       8.87182243       0.03490105       0.62506196       0.64751479      -0.51589563      -0.00021334       0.22088178
C        5.20033614      11.99644041      13.98126180      -0.47296679       0.54891521      -0.73682817       0.14810930      -0.80368356       0.19538607
N        0.89879392      10.75396929      10.13876655       0.08965375       0.94245146      -1.73139393      -0.09479714       0.49305521      -0.29612162
N        1.07104229       9.11570181       8.43012337       0.09181316      -0.15940903       0.54394743      -0.98391747       0.57702822      -0.34943040
N        4.45011366      13.07583508      13.82242788       0.14499462      -0.07157800       0.16706511      -0.12326015      -0.33418552      -0.26206778
N        6.47937307      12.02020670      13.62163231       1.17201313      -0.62388226       0.08135710       0.25653682       0.64701323       0.07136274
Pb       3.62354907       7.39897552      13.30516623      -0.08002071       0.03479711       0.00024620      -0.29510564       0.20788336      -0.08491568
Pb      31.17932513       6.21372199      13.56717924       0.34001708      -0.03504855       0.15440614       1.63613982      -2.14074398      -0.21161633
I        5.45601622       8.54133851      15.73746467      -0.14206247       0.03834167       0.05925827       3.03654063       0.48370301      -1.22832153
I        1.68454773      13.90560901      15.72116740       0.01578193       0.08875233       0.09294738       1.26834376       1.45984984      -0.39228663
I        5.89248154       8.81904488      11.31783958      -0.08301592      -0.13000944       0.09001259      -0.19612554       1.34579762      -1.31522561
I        1.46571984      13.89370935      11.52889955      -0.08158531       0.07403650       0.17601639       0.45701777       1.51581853       0.48966632
I        5.37095478      12.44678803       9.30785139       0.00420047      -0.28787995      -0.12915836       0.17792783       1.45056390      -0.97711606
I        1.57661690      10.08320368      13.63873212       0.14243611      -0.41505046      -0.08237352      -0.71449245      -0.73158628      -0.05590313
H        9.03241307       3.28820320      12.71496330       0.14465945      -0.54718341       0.19651117       0.10132986       0.07353506       0.14829026
H        8.80789243       3.95869074      14.85742962       0.14239320       0.20025224       0.08947829      -0.25231846       0.18090211       0.07898445
H        9.12019413       2.41421803      15.60247824       0.01301666      -0.24694779      -0.10245174      -0.01820735      -0.11147473       0.04028830
H        9.28944146       0.49790630      13.87130071       0.27329626       0.33020850      -0.27830033       0.20048429      -0.01376340      -0.20468931
H        9.46000677       1.02760590      12.20333622       0.05803520      -0.10222507      -0.51665781       0.04282573      -0.05149179       0.08847480
H       13.60084885       6.03940740       9.68134612       0.29281433      -0.06187895       0.56008456      -0.06015257      -0.32234216      -0.02770757
H       15.36893257       4.36426308       9.85940017       0.26423738       0.17849764       0.08323199      -0.06910589       0.03707773      -0.09895416
H       14.56289185       3.26803956       8.72414016      -0.28766339       0.22387439       0.09278726      -0.00030963      -0.05600551       0.24391060
H       12.35539118       4.04622225       7.86739773      -0.25410562       0.58560747       0.34467729       0.02728895       0.02584283      -0.12660106
H       11.67377099       5.61877028       8.31209383      -0.01521228       0.16286821       0.08014219       0.04510885       0.02713665      -0.11235740
C        9.12006414       2.50258342      13.50203290      -0.17772785       1.62453649       0.08858064       0.04096308       0.11516507       0.52997334
C       13.52845911       5.04495163       9.21215903       0.28187818       0.18186113      -0.99014249      -0.23426061       0.39415232       0.42224254
N        8.99118217       2.95471127      14.72846182      -0.15604200       0.31959442       0.26779173       0.26909590       0.22484282      -0.29894541
N        9.32907902       1.27338612      13.17606583      -0.02877935      -1.44219614       0.22193119      -0.39282244      -0.67547661       0.06437659
N       14.55523418       4.17171358       9.23917146      -0.50246825       0.04574916       0.35763495      -0.58498597       0.18292996       1.03711767
N       12.42793982       4.90680981       8.44455592       0.27315418      -1.56395165      -0.54826711       0.56825087       0.56103430       0.38282798
Pb      10.94166854      29.77085572       9.10348102       0.42426437       0.08292503       0.36423076      -0.12637159      -0.75847994      -0.44783184
Pb       7.06136870      29.93059413       9.20428143      -0.19361411      -0.07219424       0.17117782       1.19323933      -2.34433003       1.10556180
I       13.58590607       0.43127341      11.78908938       0.05738533      -0.08341513      -0.45920434       0.00062949       2.39970145       2.48548612
I        9.41574948       6.01503207      11.43953925      -0.02740282      -0.20077769      -0.32409489       0.19101642      -2.39162995       1.92872074
I       14.31002554       1.02193516      15.93850910      -0.15134159       0.52963829      -0.16908708       0.46218583      -0.66444968       0.13626193
I        9.57995373       6.38189690      15.98403115       0.07167689      -0.07486274      -0.15023966       1.28396707      -0.82889321      -1.57352412
I       13.31619799       4.40999464      13.15770452      -0.10972497      -0.07998740       0.03757498       0.71237007      -1.14802770       0.72977516
I       10.08583394       2.06714454       9.57555258      -0.11662116       0.14861197      -0.09105741      -0.53575547      -0.31792861      -0.42029744
H        9.01213179       9.89939151      10.27340143      -0.22312194       0.23997034       0.42240671      -0.00637972      -0.06920429      -0.05535104
H        7.58250711      10.38365691       8.55866512      -0.35981225       0.21330930      -0.15190955      -0.06724761       0.09086140      -0.02189670
H        8.78608009      10.09959566       7.29074994       0.03705468       0.18656343       0.03414992      -0.08186848       0.05720160       0.00613821
H       11.12185830       9.45074734       8.25195401       0.64401914      -0.09827827      -1.40540692      -0.03322861       0.16854414      -0.11444683
H       11.17015318       9.28555187       9.93142781       0.63432780      -0.11076465       0.69978942       0.10902288      -0.03914971      -0.10380992
H       13.67446014      12.08789935      12.27623953      -0.01550986      -0.11935229      -0.42377233       0.14964820      -0.26875079      -0.08686082
H       13.97042141       9.97259864      13.02298160       0.17672503       0.35852891       0.85730687       0.11724743      -0.15794789       0.13733996
H       14.11136047      10.45578159      14.82123029      -0.11140430       0.09378197      -1.05967903       0.01641187       0.04993460       0.12835377
H       13.73520117      12.85410859      15.16456317      -0.12409687       0.37739124      -0.12038660       0.04474647       0.17665515      -0.04369961
H        7.04157605      11.16229488      13.68406982      -0.16318273      -0.24114270       0.16931560      -0.02591475       0.13879554      -0.16967173
C        9.39303928       9.92165249       9.26188121       0.71626774      -0.54652741      -0.71780736      -0.44232394       0.41279772       0.14793488
C       13.78061368      11.93845772      13.35660005      -0.38527957       1.31395267      -0.18092168      -0.25613046       0.18602908       0.27500527
N        8.55163020      10.21153848       8.28858895       0.54462060      -0.36317204       0.56335157      -0.66893857      -0.55724355       0.74927149
N       10.67443130       9.58578528       9.11690096      -2.03072933       0.51236526       0.75830019      -0.07473344      -0.00036658      -0.38967330
N       14.02482338      10.73082268      13.79265656       0.20401406      -1.67771973       0.31594057      -0.30093117      -0.09229587       0.06316572
N       13.62445408      13.01155776      14.12010151       0.31630723      -0.60965744       0.62289271       0.54387138      -0.49070571       0.01357810
Pb      11.60457206       7.05423541      13.34442558      -0.02175428       0.10208335       0.32850231      -1.18296109       0.16427796      -2.80885329
Pb       7.72248652       7.59724220      13.59850983      -0.35966455      -0.19017392      -0.08984362      -1.62903101      -3.48885881       1.56194037
I       13.60764319       7.90312118      15.76247038      -0.00528734       0.10298609       0.10427512       2.80770517       0.43673693      -1.77662245
I        9.52567021      13.76386416      15.46891414      -0.03700627      -0.22526963      -0.31552081       0.79842913       0.57695072       0.56509332
I       13.67012199       8.37820168      11.16420908      -0.19378568      -0.03027047       0.01059761      -0.29010281       0.76235161       1.29813562
I        9.57300820      13.16694559      11.15014025      -0.27569683       0.00975531       0.07817827       0.01524110       0.49826031      -0.15363406