768
Lattice="38.994998665037166 0.07106821782705662 0.35547318029268 0.20366633889610405 23.235525993811105 -0.050934670340891476 0.6633844787472418 -0.16287480069770385 18.246656201326342" Properties=species:S:1:pos:R:3:forces:R:3:momenta:R:3 pbc="T T T"
H        8.53371535       0.38838472       4.94865266       0.95848395      -0.97656917      -0.21495167      -0.12402527      -0.12612803       0.05807095
H       12.92943665      11.70893602       3.44776625       0.16938216      -0.18610173      -0.10690262       0.03948621      -0.10121906      -0.01318470
H        3.55099812       5.86050241       5.36827173      -0.26125818      -0.05475190      -0.34361686      -0.00623652      -0.06948002       0.04617810
H       18.52323525       6.09695705       2.89743547      -0.58621877      -0.41454729      -0.12369641      -0.00649377      -0.25996089      -0.14472526
H        7.11644323      23.01681089      11.02021318       0.38105892      -0.06865418      -0.12652375       0.04481106       0.13781378       0.01473586
H       13.15658406       9.49606875       4.20176463       0.74037839       0.53396149      -0.57421125       0.02803884      -0.00359443      -0.03192753
H        5.53108916       5.27553890       8.35612890       0.10684464       1.39439671       0.49581424       0.02968469      -0.15767612       0.19690185
H       16.74688869       6.95660537       4.24751606       0.39598721       0.31256235      -0.00107282      -0.06744208       0.30014372       0.09700178
H        5.98649498       1.12607669       6.16312075      -0.53065251       0.04567831       0.15025894       0.01563419       0.25252575      -0.05133431
H       14.66027816       9.28085729       3.29906506       0.65587494      -0.42776313      -0.17582221      -0.04010095      -0.07086988       0.02335147
H        6.12084983       7.01634608       8.29540186       0.87100338       0.42807930      -0.22310190      -0.16877015       0.28005547       0.02753899
H       15.76648345       5.59217437       4.12512782      -0.23722149      -0.86877913      -0.24047259       0.06872167      -0.11541569       0.11595528
H        7.14884706       3.01702683       4.85428710       0.12682034      -0.46398036      -0.04663372       0.25145690      -0.10291863      -0.07046230
H       15.41344811      11.18061158       1.89207411       0.55653311      -0.44649695      -0.29799864      -0.06639247      -0.15482213       0.08326709
H        4.84343869       8.59438029       5.37698807      -0.06392732      -0.35663997      -0.27000780       0.05499332      -0.07286168       0.03140660
H       16.62383554       3.71862517       2.67555758      -0.30140546      -0.21918843      -0.05018713       0.14170058       0.02149108       0.08417547
H        8.73274630       2.49964457       4.20639351      -0.30476377      -0.13045308       0.11215034      -0.03254732      -0.08118121       0.22613312
H       14.46617954      12.64244221       1.91834556      -0.16467928       0.09927623       0.05515573      -0.13394983       0.07698595       0.10633572
H        3.38210469       8.11242213       6.17736544       0.32573577      -0.61788413      -0.58592375      -0.04874486      -0.00768369       0.21040375
H       18.15437100       3.97222754       6.22686639      -0.16652330      -0.11912555       0.41042362       0.03301481      -0.36216498       0.11868239
C        7.70358360       0.99229502       5.18574546       0.40768112       2.12971311      -1.88149757       0.43540873      -0.46991688      -0.44770460
C       13.78690661      11.10664885       3.09602558      -0.51946965       0.42949363       0.22870743       0.07988559       0.14054199      -0.15762683
C        4.26684205       6.62950327       5.01956215       0.34190492      -0.30204565       0.66664065       0.30894146       0.42142150       0.13201786
C       17.57411568       5.50665313       3.03976517      -0.73866770      -0.34702328       0.68825761      -0.51568738      -0.13775627      -0.21155083
N        6.70250093       0.47783625       5.83105418      -0.79127631      -0.46456936       1.13252217       0.12984589      -0.65015931       0.97826403
N       13.92147746       9.89711347       3.59713662      -1.17989889       0.08068240       0.47196920       0.21356505      -0.18155284       0.26314067
N        5.50534669       6.29709085       8.70071092      -0.39880173      -1.97118467      -0.36062068       0.09553216      -0.03008000       0.04624331
N       16.66942713       6.01100381       3.87066749       0.55645200       0.45931019      -0.34010532       0.08902361       0.24577497       0.50039496
N        7.80073105       2.23164426       4.64789128      -0.00044170      -0.54214471       0.82202050      -1.05540830      -0.10380908       0.18718349
N       14.59370197      11.67340746       2.22066809      -0.27134929       0.16395138       0.24288942       0.97849109       0.11831660      -1.06649394
N        4.15497197       7.83737738       5.53041300      -0.31847553       1.46388719       0.93864557       0.51730933      -0.13953360       0.05008024
N       17.41558068       4.31746369       2.46512147       1.30856896       1.05281002      -0.31351417      -0.12465223       0.10142851       0.58250407
Pb       1.81439595       2.03982966       2.95065558      -0.06201456       0.07178061      -0.13794723      -2.10361402      -0.55574554       1.04834842
Pb      19.40061012      10.23967712       5.49445343       0.13685856      -0.15937230       0.00763833       0.79866303      -0.50018483       0.82483078
Pb       9.60701728       7.95979036       3.28866294      -0.05119075       0.12716334      -0.11739506       1.08928164       1.38016758       0.34184813
Pb      11.79216064       4.44921276       5.02523781       0.13735804      -0.26775707      -0.15356574      -0.85847666       0.07244727      -2.59725997
I        1.15171408       4.19832278       5.19341196      -0.00335505      -0.11196758       0.05397508      -0.18113394       0.17307256       0.82404340
I        1.09248356       8.24798212       3.01834934      -0.01301642      -0.04875586      -0.15618564      -0.70953342      -0.85165093       0.15431152
I       10.94118887      10.00055864       5.37968788      -0.14877409       0.08039754       0.22736161       1.84214173      -0.27401852      -0.50506941
I       10.73510045       2.31794113       2.69848157       0.11684830       0.07615298       0.04143639      -0.48633957       0.86403103      -0.95738850
I       18.38414875       0.64859505       3.27589543      -0.17021791       0.25853690      -0.03169674      -1.66531962       1.99249787      -1.04159416
I        3.06871703      11.52356856       4.99110378      -0.00859159       0.01489793       0.10911751      -0.71311103      -2.66697034       1.05299541
I       12.65084355       6.49880568       2.82134272       0.08928554       0.25000527      -0.18162674       0.43466083       1.15186355       1.33217944
I        8.67064318       5.85151708       5.42853086       0.16928922      -0.03639238       0.18367744      -1.27465657       1.07786256      -0.11366975
I        4.61628306       3.18705287       2.38074036       0.12386974       0.50001452       0.22140748       1.39541504       0.57818406       0.40612599
I       16.59642437       8.94299486       5.70035263       0.02827007       0.08212282       0.24551587      -0.06933499       0.92341901      -1.58996370
I        6.70180902       9.27197031       3.27260931       0.24824702       0.11235657      -0.00990522       1.83631064      -1.15903808      -1.49713641
I       14.58594401       2.92475902       4.54292500      -0.03515671       0.22508378       0.20961713       0.09672849      -1.12066745       1.26114664
H        8.99660125       0.54440317       9.90706022      -0.44425979       0.36988516       0.18625811       0.08566541       0.10916063      -0.00034233
H       13.01638850      11.86894625       8.00271248      -1.39166820       0.76550994       0.21007390       0.09010300      -0.11430664      -0.16329214
H        3.86216868       5.86657822       9.85291322      -0.09752207      -0.15709107       0.29097495       0.12259767      -0.09918932      -0.01857939
H       18.57616760       5.92470967       7.54340613       0.04235749       0.01019588      -0.33578899       0.01837168       0.04960528      -0.12894092
H        6.91108156      22.74153201       6.15986647       0.16080225       0.37934013      -0.14983064       0.11600890       0.08548500       0.13940425
H       14.63150208      12.70560064       6.48580778      -0.16604193       0.46205083      -0.11406550      -0.08419058       0.03522075      -0.20647305
H        5.30468066       5.25712503       3.88756620      -0.05009047       0.64379448       0.22927149      -0.05629878       0.13019119       0.06800541
H       16.82843790       6.91607964       8.71548774      -0.04827484       0.39192538       0.43107720       0.04126089      -0.12267946      -0.06423135
H        6.16026216       1.37088727      10.79321223      -0.00243348      -0.09689066       0.01562863      -0.15419623       0.19262034       0.18886559
H       15.58758467      11.25303861       6.69000173      -0.09105376       0.07473188      -0.02096207       0.06805582      -0.21979538       0.05676450
H        5.98672799       6.91817307       3.95959852       0.10162045       0.12144787      -0.09129603      -0.01247963      -0.15470228      -0.34847892
H       15.65237898       5.55049940       8.41582514       0.03407253       0.21138797       0.26652623       0.20326030       0.07474767       0.09914446
H        7.08240531       2.83403306       9.26662717      -0.27468855       0.74367821       0.28627000       0.03612699      -0.18355962      -0.09191423
H       15.01336828       9.62285474       8.31825693      -0.57289483       0.47562392      -0.04745621       0.03141845       0.02770496       0.07044818
H        5.14262825       8.61434709       9.95787794      -0.24194013      -0.21151720      -0.11018046      -0.20111028      -0.08478410      -0.02683846
H       16.44173744       3.75460301       6.88075576       0.89654545       0.36319851      -0.33890703      -0.05992457       0.00253717      -0.01664243
H        8.84251840       2.70366349       8.78743708      -0.51338982      -0.49866778       0.66432179       0.01815044       0.08038720       0.04134308
H       13.33555549       9.75033199       8.93152829      -0.26375028      -0.05034017       0.39766623      -0.05826848      -0.08945236       0.06614933
H        3.63955645       8.00712039      10.69845045      -0.11152788       0.23920078       0.26217413      -0.04021193      -0.01287768      -0.07953602
H       18.19899883       4.02224001       1.84884578      -0.52441671      -0.18516593       0.29466995       0.08559292       0.19028964       0.23792504
C        8.06626329       1.18741032       9.98429898       0.21831428      -1.05811977       0.32857044      -0.40778846      -0.01810509      -0.31826104
C       13.86988433      11.30837747       7.77384858       1.88686297      -0.67955325      -0.36875424       0.19320712      -0.19508023       0.27082340
C        4.60853198       6.62860642       9.59373298      -0.60468174       0.23382748      -0.41846893       0.55471041       0.42102168      -0.26405200
C       17.56357300       5.40519686       7.55457799      -0.51058046       0.15948382       1.11220641      -0.35943498       0.47124014      -0.51803698
N        6.97823699       0.72578506      10.64223451       0.22831387       0.18894029      -0.39701835      -0.54747636      -0.38732406      -0.92505474
N       14.75617432      11.80717699       6.94676191       0.24340990      -0.24686030      -0.14378437      -0.35570044      -0.05019684      -0.03092758
N        5.27187701       6.24253857       4.25893946      -0.21380496      -0.98405209      -0.49756769      -0.16977787       0.32588815       0.19277986
N       16.62813125       5.99462713       8.33412213       0.88141218      -1.54612806      -1.78937615       0.45596247      -0.14488588      -0.89629140
N        8.09547818       2.38560337       9.44902790       0.58601081      -0.00923997      -1.17519673       0.00079559       0.44100925       0.28493490
N       14.09996295      10.16214419       8.39335164       0.53000316      -0.83850127      -0.05600536      -0.12397739      -0.01489550       0.19802217
N        4.44620050       7.85836989      10.07822430       0.25406281       0.04438507       0.26881306      -0.03649956       0.51806417       0.59985392
N       17.43776659       4.23984354       6.92650093      -1.14654289       0.57146515       0.36746106       0.71918317       0.46031384       0.22154003
Pb       2.23595451       2.02168320       7.44888786      -0.29191825       0.00817618      -0.13665514       2.08607139      -0.77516476       2.93410872
Pb      19.90078385      10.24851217       9.93533864      -0.28635715      -0.22646384       0.16970973       0.48714770       3.48392373       1.15142409
Pb       9.96961466       8.04265165       7.78180773      -0.25210102      -0.10346787      -0.12417843       0.68820645      -0.52149681      -0.31260200
Pb      11.94056893       4.41372932       9.59030430      -0.13078867      -0.05807900       0.01161908       0.95209727       2.19940777      -3.60289485
I        1.31780102       4.09507080       9.61825021      -0.02803129       0.02196282       0.12507604       0.38266081       0.38386322      -0.50835160
I        1.09125817       8.10944368       7.52736119       0.06747506      -0.11566459      -0.07901880       0.96239138      -0.44468676       2.74127774
I       11.05581512       9.86426597       9.99293562      -0.13398454       0.13993383       0.09980525       2.17066160      -1.44927482       0.02582348
I       10.94700582       2.39931523       7.19841627      -0.15258688      -0.16892151       0.28779710       1.34727071      -0.59574736      -3.26818686
I       18.42610849       0.75872414       7.78948975       0.29805438       0.06080038       0.09975372      -0.20857305       0.67396101       0.59720240
I        3.18826411      11.45095250       9.66127546       0.28166814       0.10691652      -0.07892220       0.64388020      -0.72445750       0.65579965
I       13.00801276       6.47302185       7.20803313      -0.12459207       0.12731876       0.12966804      -1.64700194       0.93170101       1.93656201
I        8.92693365       5.98254920      10.15301114      -0.07820246      -0.13409147      -0.27110788       1.50571280       0.92030987       0.92069302
I        5.08579882       3.29297761       7.12894133      -0.02525696      -0.07101871      -0.08851357       2.33839481      -2.02905738       1.93596965
I       17.08699767       8.86433355      10.55085667      -0.17239863      -0.18815722      -0.26799268       0.98422270       0.70186382      -1.12790725
I        7.03830363       9.30734936       7.89115529       0.23496966       0.03883070      -0.06636913       2.05317096       1.33174189      -0.19627098
I       14.60349801       3.11883748       9.39922106       0.37443702      -0.11618691      -0.01799496       1.58890501      -1.31379345       1.62109739
H        8.86540759       0.30694732      14.07198076       0.95848395      -0.97656917      -0.21495167      -0.12402527      -0.12612803       0.05807095
H       13.26112889      11.62749862      12.57109435       0.16938216      -0.18610173      -0.10690262       0.03948621      -0.10121906      -0.01318470
H        3.88269036       5.77906501      14.49159983      -0.26125818      -0.05475190      -0.34361686      -0.00623652      -0.06948002       0.04617810
H       18.85492749       6.01551965      12.02076357      -0.58621877      -0.41454729      -0.12369641      -0.00649377      -0.25996089      -0.14472526
H        6.78475099      23.09824829       1.89688508       0.38105892      -0.06865418      -0.12652375       0.04481106       0.13781378       0.01473586
H       13.48827630       9.41463135      13.32509273       0.74037839       0.53396149      -0.57421125       0.02803884      -0.00359443      -0.03192753
H        5.86278140       5.19410150      17.47945700       0.10684464       1.39439671       0.49581424       0.02968469      -0.15767612       0.19690185
H       17.07858093       6.87516797      13.37084416       0.39598721       0.31256235      -0.00107282      -0.06744208       0.30014372       0.09700178
H        6.31818722       1.04463929      15.28644885      -0.53065251       0.04567831       0.15025894       0.01563419       0.25252575      -0.05133431
H       14.99197040       9.19941989      12.42239316       0.65587494      -0.42776313      -0.17582221      -0.04010095      -0.07086988       0.02335147
H        6.45254207       6.93490868      17.41872996       0.87100338       0.42807930      -0.22310190      -0.16877015       0.28005547       0.02753899
H       16.09817569       5.51073697      13.24845592      -0.23722149      -0.86877913      -0.24047259       0.06872167      -0.11541569       0.11595528
H        7.48053930       2.93558943      13.97761520       0.12682034      -0.46398036      -0.04663372       0.25145690      -0.10291863      -0.07046230
H       15.74514035      11.09917418      11.01540221       0.55653311      -0.44649695      -0.29799864      -0.06639247      -0.15482213       0.08326709
H        5.17513093       8.51294289      14.50031617      -0.06392732      -0.35663997      -0.27000780       0.05499332      -0.07286168       0.03140660
H       16.95552778       3.63718777      11.79888568      -0.30140546      -0.21918843      -0.05018713       0.14170058       0.02149108       0.08417547
H        9.06443854       2.41820717      13.32972161      -0.30476377      -0.13045308       0.11215034      -0.03254732      -0.08118121       0.22613312
H       14.79787178      12.56100481      11.04167366      -0.16467928       0.09927623       0.05515573      -0.13394983       0.07698595       0.10633572
H        3.71379693       8.03098473      15.30069354       0.32573577      -0.61788413      -0.58592375      -0.04874486      -0.00768369       0.21040375
H       18.48606324       3.89079014      15.35019449      -0.16652330      -0.11912555       0.41042362       0.03301481      -0.36216498       0.11868239
C        8.03527584       0.91085762      14.30907356       0.40768112       2.12971311      -1.88149757       0.43540873      -0.46991688      -0.44770460
C       14.11859885      11.02521145      12.21935368      -0.51946965       0.42949363       0.22870743       0.07988559       0.14054199      -0.15762683
C        4.59853429       6.54806587      14.14289025       0.34190492      -0.30204565       0.66664065       0.30894146       0.42142150       0.13201786
C       17.90580792       5.42521573      12.16309327      -0.73866770      -0.34702328       0.68825761      -0.51568738      -0.13775627      -0.21155083
N        7.03419317       0.39639885      14.95438228      -0.79127631      -0.46456936       1.13252217       0.12984589      -0.65015931       0.97826403
N       14.25316970       9.81567607      12.72046472      -1.17989889       0.08068240       0.47196920       0.21356505      -0.18155284       0.26314067
N        5.83703893       6.21565345      17.82403902      -0.39880173      -1.97118467      -0.36062068       0.09553216      -0.03008000       0.04624331
N       17.00111937       5.92956641      12.99399559       0.55645200       0.45931019      -0.34010532       0.08902361       0.24577497       0.50039496
N        8.13242329       2.15020686      13.77121938      -0.00044170      -0.54214471       0.82202050      -1.05540830      -0.10380908       0.18718349
N       14.92539421      11.59197006      11.34399619      -0.27134929       0.16395138       0.24288942       0.97849109       0.11831660      -1.06649394
N        4.48666421       7.75593998      14.65374110      -0.31847553       1.46388719       0.93864557       0.51730933      -0.13953360       0.05008024
N       17.74727292       4.23602629      11.58844957       1.30856896       1.05281002      -0.31351417      -0.12465223       0.10142851       0.58250407
Pb       2.14608819       1.95839226      12.07398368      -0.06201456       0.07178061      -0.13794723      -2.10361402      -0.55574554       1.04834842
Pb      19.73230236      10.15823972      14.61778153       0.13685856      -0.15937230       0.00763833       0.79866303      -0.50018483       0.82483078
Pb       9.93870952       7.87835296      12.41199104      -0.05119075       0.12716334      -0.11739506       1.08928164       1.38016758       0.34184813
Pb      12.12385288       4.36777536      14.14856591       0.13735804      -0.26775707      -0.15356574      -0.85847666       0.07244727      -2.59725997
I        1.48340632       4.11688538      14.31674006      -0.00335505      -0.11196758       0.05397508      -0.18113394       0.17307256       0.82404340
I        1.42417580       8.16654472      12.14167744      -0.01301642      -0.04875586      -0.15618564      -0.70953342      -0.85165093       0.15431152
I       11.27288111       9.91912124      14.50301598      -0.14877409       0.08039754       0.22736161       1.84214173      -0.27401852      -0.50506941
I       11.06679269       2.23650373      11.82180967       0.11684830       0.07615298       0.04143639      -0.48633957       0.86403103      -0.95738850
I       18.71584099       0.56715765      12.39922353      -0.17021791       0.25853690      -0.03169674      -1.66531962       1.99249787      -1.04159416
I        3.40040927      11.44213116      14.11443188      -0.00859159       0.01489793       0.10911751      -0.71311103      -2.66697034       1.05299541
I       12.98253579       6.41736828      11.94467082       0.08928554       0.25000527      -0.18162674       0.43466083       1.15186355       1.33217944
I        9.00233542       5.77007968      14.55185896       0.16928922      -0.03639238       0.18367744      -1.27465657       1.07786256      -0.11366975
I        4.94797530       3.10561547      11.50406846       0.12386974       0.50001452       0.22140748       1.39541504       0.57818406       0.40612599
I       16.92811661       8.86155746      14.82368073       0.02827007       0.08212282       0.24551587      -0.06933499       0.92341901      -1.58996370
I        7.03350126       9.19053291      12.39593741       0.24824702       0.11235657      -0.00990522       1.83631064      -1.15903808      -1.49713641
I       14.91763625       2.84332162      13.66625310      -0.03515671       0.22508378       0.20961713       0.09672849      -1.12066745       1.26114664
H        8.66490901       0.62584057       0.78373212      -0.44425979       0.36988516       0.18625811       0.08566541       0.10916063      -0.00034233
H       13.34808074      11.78750885      17.12604058      -1.39166820       0.76550994       0.21007390       0.09010300      -0.11430664      -0.16329214
H        3.53047644       5.94801562       0.72958512      -0.09752207      -0.15709107       0.29097495       0.12259767      -0.09918932      -0.01857939
H       18.90785984       5.84327227      16.66673423       0.04235749       0.01019588      -0.33578899       0.01837168       0.04960528      -0.12894092
H        7.24277380      22.66009461      15.28319457       0.16080225       0.37934013      -0.14983064       0.11600890       0.08548500       0.13940425
H       14.96319432      12.62416324      15.60913588      -0.16604193       0.46205083      -0.11406550      -0.08419058       0.03522075      -0.20647305
H        5.63637290       5.17568763      13.01089430      -0.05009047       0.64379448       0.22927149      -0.05629878       0.13019119       0.06800541
H       17.16013014       6.83464224      17.83881584      -0.04827484       0.39192538       0.43107720       0.04126089      -0.12267946      -0.06423135
H        5.82856992       1.45232467       1.66988413      -0.00243348      -0.09689066       0.01562863      -0.15419623       0.19262034       0.18886559
H       15.91927691      11.17160121      15.81332983      -0.09105376       0.07473188      -0.02096207       0.06805582      -0.21979538       0.05676450
H        6.31842023       6.83673567      13.08292662       0.10162045       0.12144787      -0.09129603      -0.01247963      -0.15470228      -0.34847892
H       15.98407122       5.46906200      17.53915324       0.03407253       0.21138797       0.26652623       0.20326030       0.07474767       0.09914446
H        6.75071307       2.91547046       0.14329907      -0.27468855       0.74367821       0.28627000       0.03612699      -0.18355962      -0.09191423
H       15.34506052       9.54141734      17.44158503      -0.57289483       0.47562392      -0.04745621       0.03141845       0.02770496       0.07044818
H        4.81093601       8.69578449       0.83454984      -0.24194013      -0.21151720      -0.11018046      -0.20111028      -0.08478410      -0.02683846
H       16.77342968       3.67316561      16.00408386       0.89654545       0.36319851      -0.33890703      -0.05992457       0.00253717      -0.01664243
H        9.17421064       2.62222609      17.91076518      -0.51338982      -0.49866778       0.66432179       0.01815044       0.08038720       0.04134308
H       13.66724773       9.66889459      18.05485639      -0.26375028      -0.05034017       0.39766623      -0.05826848      -0.08945236       0.06614933
H        3.30786421       8.08855779       1.57512235      -0.11152788       0.23920078       0.26217413      -0.04021193      -0.01287768      -0.07953602
H       18.53069107       3.94080261      10.97217388      -0.52441671      -0.18516593       0.29466995       0.08559292       0.19028964       0.23792504
C        7.73457105       1.26884772       0.86097088       0.21831428      -1.05811977       0.32857044      -0.40778846      -0.01810509      -0.31826104
C       14.20157657      11.22694007      16.89717668       1.88686297      -0.67955325      -0.36875424       0.19320712      -0.19508023       0.27082340
C        4.27683974       6.71004382       0.47040488      -0.60468174       0.23382748      -0.41846893       0.55471041       0.42102168      -0.26405200
C       17.89526524       5.32375946      16.67790609      -0.51058046       0.15948382       1.11220641      -0.35943498       0.47124014      -0.51803698
N        6.64654475       0.80722246       1.51890641       0.22831387       0.18894029      -0.39701835      -0.54747636      -0.38732406      -0.92505474
N       15.08786656      11.72573959      16.07009001       0.24340990      -0.24686030      -0.14378437      -0.35570044      -0.05019684      -0.03092758
N        5.60356925       6.16110117      13.38226756      -0.21380496      -0.98405209      -0.49756769      -0.16977787       0.32588815       0.19277986
N       16.95982349       5.91318973      17.45745023       0.88141218      -1.54612806      -1.78937615       0.45596247      -0.14488588      -0.89629140
N        7.76378594       2.46704077       0.32569980       0.58601081      -0.00923997      -1.17519673       0.00079559       0.44100925       0.28493490
N       14.43165519      10.08070679      17.51667974       0.53000316      -0.83850127      -0.05600536      -0.12397739      -0.01489550       0.19802217
N        4.11450826       7.93980729       0.95489620       0.25406281       0.04438507       0.26881306      -0.03649956       0.51806417       0.59985392
N       17.76945883       4.15840614      16.04982903      -1.14654289       0.57146515       0.36746106       0.71918317       0.46031384       0.22154003
Pb       2.56764675       1.94024580      16.57221596      -0.29191825       0.00817618      -0.13665514       2.08607139      -0.77516476       2.93410872
Pb      19.56909161      10.32994957       0.81201054      -0.28635715      -0.22646384       0.16970973       0.48714770       3.48392373       1.15142409
Pb      10.30130690       7.96121425      16.90513583      -0.25210102      -0.10346787      -0.12417843       0.68820645      -0.52149681      -0.31260200
Pb      11.60887669       4.49516672       0.46697620      -0.13078867      -0.05807900       0.01161908       0.95209727       2.19940777      -3.60289485
I        0.98610878       4.17650820       0.49492211      -0.02803129       0.02196282       0.12507604       0.38266081       0.38386322      -0.50835160
I        1.42295041       8.02800628      16.65068929       0.06747506      -0.11566459      -0.07901880       0.96239138      -0.44468676       2.74127774
I       10.72412288       9.94570337       0.86960752      -0.13398454       0.13993383       0.09980525       2.17066160      -1.44927482       0.02582348
I       11.27869806       2.31787783      16.32174437      -0.15258688      -0.16892151       0.28779710       1.34727071      -0.59574736      -3.26818686
I       18.75780073       0.67728674      16.91281785       0.29805438       0.06080038       0.09975372      -0.20857305       0.67396101       0.59720240
I        2.85657187      11.53238990       0.53794736       0.28166814       0.10691652      -0.07892220       0.64388020      -0.72445750       0.65579965
I       13.33970500       6.39158445      16.33136123      -0.12459207       0.12731876       0.12966804      -1.64700194       0.93170101       1.93656201
I        8.59524141       6.06398660       1.02968304      -0.07820246      -0.13409147      -0.27110788       1.50571280       0.92030987       0.92069302
I        5.41749106       3.21154021      16.25226943      -0.02525696      -0.07101871      -0.08851357       2.33839481      -2.02905738       1.93596965
I       16.75530543       8.94577095       1.42752857      -0.17239863      -0.18815722      -0.26799268       0.98422270       0.70186382      -1.12790725