768
Lattice="25.244031463055336 -0.051139010145229986 -0.15563925591508607 -0.008975214029691772 25.575374942549175 -0.11406019386377196 -0.3474594723078396 -0.009706484009668169 25.26731789926129" Properties=species:S:1:pos:R:3:forces:R:3:momenta:R:3 energy=-3622.423095221758 stress="0.0 0.0 0.0 0.0 0.0 0.0 0.0 0.0 0.0" pbc="T T T"
H        9.55117742       9.73871506       4.63918448       0.38233650       0.84178160      -0.50196997      -0.22727803       0.04777128      -0.25843206
H        9.65345365       2.09935918       3.12059205       0.29118435       1.08362335       1.25596549      -0.32537552       0.01392202       0.25562712
H        9.06153641       2.93855849       9.33680268       0.50941929       0.32144887      -0.29709799       0.06001319      -0.17992022       0.15285991
H       10.98539232       9.04952564      10.26006101      -0.71526829       0.94703732       0.87176670       0.07120350       0.07060558       0.12188574
H       12.10799185       9.44477989       4.25299345      -0.60798973       0.20850828      -0.23490603      -0.21630938       0.16224283      -0.09130319
H       11.62197944       3.45652327       3.04864413       0.69879894       0.52521421      -0.35688281       0.15195400      -0.10784637      -0.04287024
H        2.08336601      10.65257846      10.44332453      -0.42321868      -0.43966244       0.69202292      -0.11242423       0.15462281       0.11371776
H        9.65428850       9.42258667      12.20811928      -0.11548032       0.41184040       0.43460864      -0.03516458      -0.17067221      -0.17842779
H        4.75542928       5.09202937       2.56903145       0.71071911       0.24130019      -0.65094613      -0.26160713      -0.09991314      -0.22093299
H        2.86226878      12.01939005       2.51827224       0.74261914      -1.26910761       1.03330275       0.19774258      -0.06991962       0.13468705
H        2.54552200      11.17196802       8.80826975       0.45046176       0.56323285      -0.72331326       0.10713576      -0.18476452      -0.11927469
H        9.14102263      11.15554321      11.78365052       0.17023793      -0.27532017      -0.24054876      -0.05984725      -0.01082591       0.07699288
H        4.80485476       5.12690096       5.24666083       0.30678195       0.86121569       0.24597041       0.13777986       0.20865178       0.15100918
H        3.10866093      10.86372169       5.39877783       0.34764723       0.01106658      -0.48656091      -0.24450176       0.10101444       0.22244696
H        4.96099769      10.58879372       8.13970533       0.21084693       1.45274339      -1.07355246       0.01245094      -0.21475327       0.16139457
H        3.81747841       5.99717077      10.56653550       0.39940868      -0.11461109      -0.82599054      -0.02739980      -0.13535256       0.11660395
H        8.25814659      11.47862262       3.38122867      -0.62489115      -0.27058367       0.70788888      -0.14769216      -0.16000034      -0.12586929
H        4.28322662       9.37765888       5.28712082      -0.36098313       0.65229936      -0.51713370      -0.05445479       0.01402057       0.02992942
H        9.25802578       3.83569953      11.63923556      -0.85598726       0.12979234       1.25363395      -0.15165800       0.28336620      -0.47634607
H        4.86784058       5.30514919       9.17406690       0.75239884       0.21056213       0.28676989      -0.00143541       0.11015079       0.10178455
C       10.13544235      10.44852439       3.82593106      -1.80489096      -0.59624743       1.03444367      -1.25467775       0.14479825       0.19985908
C        4.02456592      10.31265680       3.32470309      -1.59957375       0.70391861       1.02892046      -0.02107496      -0.68407827       0.11810291
C        4.09329835      10.28203189      10.20898894       0.86722318       0.03891206       0.85288376      -1.01146278       0.51405029      -0.53025236
C        3.40411262       3.94960235       9.92962181       1.68229788      -0.30170797      -1.46669172      -0.06873761      -0.87613461       0.36476313
N        4.12033826       4.29698709       2.61422937      -0.74403385       0.99691399       1.42001068      -0.46187887       0.59211250       0.91445388
N        3.53892729      11.20135295       2.44280733       0.32643907       1.32174529      -3.19663142      -0.39400201       0.76143222      -1.04598385
N        2.83559905      10.67274779       9.77190322      -1.43196383       0.24383815       0.02619862       0.42237448       0.14753257       0.94239954
N        9.69887917      10.28238119      11.58459573       1.37783706      -0.91840603      -0.14936056      -0.99133010       0.13243548       0.70955965
N        4.02452049       4.47790968       5.12723572      -0.78130657      -1.60222590      -1.03515173       0.95558929       0.89921231      -1.22915041
N        3.81024838      10.25147920       4.75756414       0.87448985      -0.97732530      -0.40097315       0.28939793      -0.87463381      -0.92076761
N        9.87712961       4.25866701      10.91456061      -0.22550382      -0.62239774      -0.74440719       0.62716592      -0.34606156      -0.41143223
N        4.11460458       5.21935079       9.87981617      -1.02078689      -0.65949492       0.35860861      -0.05373488      -0.09481117       0.95476529
Pb       6.99264709       1.24963723      13.17289101      -0.23942006      -0.34843294       0.12816026       0.42805732      -1.84124526      -2.18512516
Pb       0.50588122       1.05020203      13.02898729       0.30574303       0.30081857       0.39088877       3.60968366      -3.96172649      -0.48406063
Pb       7.35713071       7.31191697       6.88114898      -0.49677608       0.26365922       0.10805544       4.79326626      -0.08738866       0.33445922
Pb       6.81690408       1.07453937       6.62375593       0.18475496      -0.13129884       0.29773987      -1.11113023      -6.34294890      -1.83127501
I       10.17139383       0.67775160      14.05429263      -0.43007316      -0.01648247       0.05879888      -1.08544245       3.24113549      -1.50650343
I        3.61972262      13.83306576      11.96157384       0.35820472       0.12838087       0.17315413      -0.40104625      -2.92356589       0.98819170
I        3.60397944       0.60221427       6.87558965      -0.10170595      -0.01890075       0.57776211       2.32965957      -1.23937073       1.88451743
I        9.94534256       1.70817190       6.12625957       0.12934581      -0.22059275      -0.02785554       1.89322700      -0.44960848      -0.28264270
I        6.73556428      10.69980438      13.39055503      -0.00105045       0.11909084      -0.07097237      -1.79058926       2.23569918       3.81323840
I        6.94541570       4.10756168       0.22103425       0.04438780       0.29662451      -0.07067126      -4.48467544       0.62630084      -1.56641296
I        6.53011466       4.41084552       7.36250779       0.08514782      -0.29350628      -0.11382009       0.01198182      -1.78351126      -0.37741607
I        7.31410101      10.66658826       6.22222321      -0.01010399      -0.09116588      -0.02428196      -0.15624976       0.55004171      -4.70023031
I        5.91792551      13.77688189       3.33628087       0.08535071       0.10928276       0.53827049       0.46612809      -2.57952997      -1.95388757
I        0.93424209       0.88305315       3.61105223       0.11300120      -0.04110136       0.11643529       2.78794829       2.00658096      -1.15059945
I       -0.13808701       1.00401170       9.97084859       0.03385722       0.13161343       0.08765132       0.18780899      -1.35092337      -3.11783856
I        7.30851411       0.79322990       9.97966542       0.05163595       0.00443292      -0.02577053      -0.45734680       0.34655375       5.84240812
H        2.89683029       3.23258523       3.85538712      -0.73100986      -0.37639833       0.03414121       0.07423444       0.06084849      -0.15533450
H        4.67574438       9.51524188       2.78561594       0.59888766      -0.56774521       0.53441500      -0.03000023      -0.00103693      -0.35580611
H        4.38804076       9.86754528      11.42900184      -0.14337032       0.30651755      -0.60974679      -0.06595130       0.19769935      -0.20345735
H        3.88410933       2.95140927       9.38335121      -0.73243836       1.06119753       0.84571002      -0.33244494      -0.12997152       0.33684744
H        3.67696856       3.91736015       1.64350060       0.13485096      -0.08541201       0.16534906       0.12077086       0.06454754       0.29860889
H        3.86338570      11.05668666       1.34711985      -1.15410574       0.01100952       2.13604776       0.12182389       0.07373496       0.14659199
H       10.69241045       4.18597761       7.50659619      -0.92889381      -1.66327922      -1.47426787       0.24478600      -0.12996061       0.07943938
H        1.71352003       2.90226121      10.55632988       0.17149950       0.15403451       0.06100663      -0.23648175       0.13656666      -0.06608837
H       12.08697711      10.50036443       2.69713621       0.26672792       1.87872092      -1.34595821       0.50328840      -0.30115036      -0.01975268
H       10.71074605       5.32342538       3.61444184      -0.18467647      -0.98956330      -0.54065608       0.03848978      -0.08777883      -0.21918637
H       11.22367493       5.44240948       8.89544971      -1.17809548      -0.95233076       0.16374579       0.18051257      -0.27930086      -0.29789200
H        1.87299229       4.73508257      11.07052961       0.03568467      -0.79276545      -0.76271115      -0.12340964       0.21289265       0.09629343
H        9.71004691      12.14405101       2.44254880       0.26184408      -0.05455015      -0.40757338      -0.04770479       0.16972442       0.27611642
H        7.82174806       5.59110396       3.63607752       0.47291417       0.80273455       1.26714346       0.21222286       0.03157074      -0.02989582
H       10.39621441       5.14280255      11.12080353       0.56633057       0.41182236       0.07951663      -0.12703959      -0.00467969      -0.21615106
H        9.77796659      11.74780235       9.52167106      -0.55630689       0.44170959      -0.05848565       0.00636067       0.10907985      -0.00063779
H        3.52861942       4.11648906       6.01676446       0.49828243       0.27530986      -0.67223384      -0.15661644       0.09898101       0.08086251
H        7.54292201       3.52349528       3.73566721      -1.40369081      -0.79195706      -0.10030665      -0.31794088      -0.10567104      -0.07691062
H        6.02726035       9.96133446       9.86620778      -0.29020406       0.69788363      -0.56634606       0.06148767      -0.20496759      -0.02758645
H       10.85684311      10.73481761       8.51136872      -1.06508380      -0.03228568       2.12653074       0.10996224       0.13789100       0.20997161
C        3.63800262       4.01020556       3.84608196       0.14741285      -0.17797043       0.55383988       0.76026542       0.47489987      -0.72210581
C        9.58455314       3.41667365       3.39442417      -1.03114466      -0.29934484       0.41674660       1.19710761      -0.16211509      -0.31362037
C        9.74768482       3.85617214       9.56227950       0.11874496       0.22120776       0.29518638      -0.21021148      -0.40350179      -0.34847619
C       10.42967574      10.05997338      10.49059225      -1.32505311       0.09782406      -2.17633230      -0.73174609      -0.41820739       0.16446747
N       11.52417707      10.20841595       3.63222907       1.48088845      -2.20662618       1.02043241      -0.06362067      -1.12013038       0.10334326
N       10.69294983       4.12293495       3.39030635       1.09286769       0.69149700      -0.17142091       0.85493626       0.03714501      -0.37523918
N       10.45119047       4.60563559       8.50835235       1.94952620       2.04956142       0.72524897      -0.30990715       0.45539963      -0.90632894
N        2.25399778       3.85021789      10.53853940      -1.30709549       0.15910812       1.03162895      -0.53682439      -0.40372944       1.01139390
N        9.31026882      11.38812035       3.11989268       0.65643009      -0.18071603       0.04339696      -0.51578158       0.90960418       0.33327530
N        8.29794545       4.17827434       3.71849093       0.20289439      -0.84351998      -1.74430616      -0.15546585      -1.01051815       0.88046804
N        5.13264611      10.44025800       9.39689593       0.71577333      -3.03631828       1.60689676       0.09578060      -0.29511894      -0.52204243
N       10.28851813      10.85712905       9.42474544       2.04451984      -0.59856245      -0.88712212       0.13033899      -1.28582765      -0.18537854
Pb       0.83633612       7.62028184      13.31792917      -0.30412885      -0.28008411      -0.04758067       1.35844810      -3.75139847       2.41953171
Pb       7.10258251       7.42309066      13.19643216      -0.20632586       0.22486973      -0.06792643      -2.30805369       2.33145942       3.00826071
Pb       0.45001405       0.83503594       6.77544816      -0.16227218       0.14688306      -0.04360840       3.05085594       1.89815028      -1.53538157
Pb       0.66004623       7.21652106       6.99906260       0.12994953      -0.19111235      -0.28188882       1.54447309      -4.24316016      -0.62900582
I        3.90091802       7.06700344      12.66248328      -0.26792406       0.23808522       0.16532190      -1.40030987       1.24948020      -1.36599213
I       10.12836205       7.10094803      13.68736905       0.07554185       0.21985721      -0.02849221      -3.73923120       5.22251672      -1.74273896
I       10.28422163       6.94401481       5.90589039       0.06825282       0.13586345      -0.11399556      -0.03221230       0.37589989       2.12891874
I        3.87126286       7.60194012       7.14205167       0.25538257      -0.02848414      -0.00565972       1.12042393       0.64259600      -3.08699897
I        0.41317836       4.27992962      13.58106782      -0.00217383      -0.14713410      -0.04173034      -1.24441349       1.06391995       1.30469256
I        0.74435394      10.65214910      -0.11796182      -0.08473060       0.02740262       0.09358386      -0.69809865      -1.70702637      -1.50645193
I        0.31649349      10.46683530       7.07767452      -0.08081558      -0.25640265      -0.16543835      -1.35684170       1.06338157      -0.48752665
I        0.50688622       3.82823764       6.71708997       0.28010374       0.86245732      -0.03423320      -0.06820660       1.55809994       0.93629237
I       13.82216146       7.25961157       3.60992600       0.05741248       0.08070637       0.33124010       1.09456832       1.48940494      -1.04299115
I        6.45787759       6.92249434       3.72144635      -0.00035708       0.11160252      -0.32347130       0.43864920      -4.07570093      -2.61930021
I        7.69229857       7.81755847       9.94698817      -0.00324266      -0.02322764       0.11704948       1.92267430       1.57170247       1.81381630
I       -0.10432759       7.09880367       9.99630181       0.37698210       0.02889524       0.34117797      -1.65752764      -0.77441712       2.14635816
H       10.15475018       9.50776036      17.60819819      -0.01967079      -0.84618271       0.40190437      -0.02585208      -0.01257158      -0.02394083
H        9.17681846       2.88982228      15.67230685       0.66460726      -0.02111361      -0.32800471       0.13152015       0.03773197      -0.15115871
H        8.43246476       3.13949066      22.39318616      -1.35404616      -1.30919989       0.48202024      -0.02626016       0.08138400      -0.05793703
H       10.61289286       9.46361056      22.68530718       0.12655651       0.10192039       0.28943968      -0.10561945       0.01044011      -0.28070327
H       12.04469963       9.07494708      16.30946645      -0.14271179       0.64628297      -0.43107313      -0.16867208      -0.28648741       0.01438502
H       11.17714611       4.28745770      15.81278954       0.20295997      -0.05964646      -0.22906032      -0.17597152       0.18066946      -0.09766220
H        1.91142834      10.88420631      23.04011022      -0.45807269      -0.00725995       0.14572431       0.05855017      -0.11366054      -0.29127223
H        9.66662666       9.49592160      24.88259220       0.15043132      -0.07111646       0.26531945       0.12591941       0.00975677      -0.03146371
H        4.50877745       4.09720981      14.62684347       0.98373714       1.04778302       0.01687188       0.11609243       0.10680444      -0.23777834
H        2.70779879      11.63482763      14.98230117       0.07328768      -0.13575892       0.36783443       0.43888240       0.00796607       0.10629861
H        2.92004891      11.97919957      21.96892051      -0.47885399      -1.04785451       0.76832708       0.24546624      -0.20670349       0.03193815
H        9.23107457      11.37899435      24.75355734      -0.83021981       0.33647975       0.54084490       0.32428636      -0.07726387       0.02757558
H        4.17278737       5.48863801      16.95786488       0.82393752       0.57505361       0.40164547       0.03570310       0.09481530      -0.10781177
H        2.71198166      11.25330580      17.70540500      -0.54230438       0.39274148      -0.16131020      -0.13319896      -0.07724296      -0.02833387
H        5.39794115      11.29793262      21.71336237      -0.38042675       1.01420689      -0.86021820       0.11461926       0.28601867      -0.09512954
H        4.01847511       5.94074859      23.11234700      -0.23841335      -0.08120332       0.37800912      -0.21880932       0.00161308       0.10023663
H        8.46651463      10.88347113      16.91204226       1.99920050       0.55393584      -1.60446309       0.12510185      -0.33887668      -0.20176131
H        3.74780808       9.97459064      18.21489738      -0.03517436      -0.84261921       1.10194854       0.05585794       0.19792009      -0.20354833
H        8.71524877       4.54046147      24.15560508       0.43666037       0.35833390      -0.75199292       0.14818464      -0.10717638       0.28606679
H        5.52385232       4.78818974      22.45608341      -0.48867256       0.18500964       0.22426103       0.21430966      -0.26148925       0.52091057
C       10.30783144      10.03242414      16.62942061      -0.92864749       0.91156786       1.44280992      -0.36510627      -0.88560433      -0.85982937
C        3.91809622      10.34359660      16.24480856      -0.96414396       0.35603155       0.57069951      -0.70441151      -0.06002536      -0.46835649
C        3.82370776      10.29182870      22.71753613      -1.64665531      -0.79906254       1.58395848       0.01503509       0.55404772       1.49810322
C        3.57610857       3.97531305      22.20951752      -0.17563501       2.85265888       3.18709418       0.73636922      -0.58150876      -0.00065917
N        3.58644337       3.71208047      15.00483775      -1.49244027      -1.74069255      -0.41949791       0.09984750      -0.86690012       0.90472204
N        3.45043875      10.91411892      15.07466210       1.05946513      -1.09149379       1.00281401      -0.84226137      -0.51602783       0.13022789
N        2.72872490      11.00837181      22.46133703       1.74533251       1.09701242      -1.31487617      -0.50602003       0.33810872       0.37512941
N        9.63216543      10.43081952      24.35638332       1.18836514       0.63323618      -2.05335374      -0.80293780      -0.67386177      -0.32758649
N        3.52717355       4.73535136      17.18866396      -2.42287083      -0.53539930       1.32766366       0.60674001      -0.96600833       0.39467809
N        3.39405754      10.55341683      17.46516957       1.24332430      -0.02138432      -1.61103785      -0.77576745       0.21983456       0.00479263
N        9.31984912       4.69436342      23.31320838      -1.14337451      -1.01641079       1.00107395       0.40266019       0.32504309      -0.35699508
N        4.42745345       4.96036318      22.69509312      -0.09607270      -0.90171748      -1.41095672       0.20425951       0.69801540       0.08106984
Pb       6.58036329       1.02453587       0.58941255       0.00646635       0.08991943      -0.07161032      -1.72052621       4.63628882       6.56295936
Pb       0.49087619       0.92155777       0.51776896      -0.23835756       0.48761222       0.00809703      -1.92436188      -2.02960536       0.79476175
Pb       6.96056853       7.63557857      19.61916863      -0.33632135      -0.51782895      -0.20238640      -2.70739404      -0.59521379      -4.78552357
Pb       6.72133906       1.28685950      19.43266966      -0.36946226      -0.27322416      -0.34304238       0.85599241      -7.12113037      -2.14751191
I        9.80753464       0.80338870       0.79414632      -0.06552667      -0.20907783       0.20385561      -2.43973932      -1.48766899       1.68579446
I        3.29878988      14.02953434      25.18199084       0.33355083       0.08355273      -0.03855147      -3.39886802       2.61166693       1.04756618
I        3.34649550       0.80396708      19.44707598       0.39580312      -0.03668468       0.53320246       1.40970862       3.80023024      -0.73588183
I        9.47544471       1.25498173      18.74556730       0.98765077      -0.15919508      -0.10708021       0.80952483       0.09674848      -2.30765996
I        6.49246263      10.55052705       0.59783481       0.05916586      -0.33463400      -0.01023557       1.97960809      -3.47992961      -0.01822739
I        6.96018659       4.50522351      12.90011405      -0.19146354      -0.68290069       0.15662854       0.33825359       0.33835146      -0.91555730
I        6.90977856       4.29064165      20.27919382      -0.15243540      -0.02419206      -0.09989473       2.40304703      -2.82088336       0.18121375
I        6.87852961      10.43461910      19.13437991       0.29946423       0.50253455      -0.22660704      -0.20059688      -0.40648056      -1.84532755
I        6.30093656      13.66721940      15.90954485      -0.10872256       0.06040576       0.13710655      -0.53371568      -1.43074237       3.18290051
I        1.18690622       0.64512746      16.40243039      -0.29500329       0.06854831      -0.47102658      -0.56204037      -3.48454198      -0.55451829
I       -0.28648417       1.11935448      22.64723978       0.07459982      -0.01016763      -0.07492459       0.73867436      -0.76310832       0.54203742
I        6.92679064       0.79913770      22.59369333      -0.35891010       0.04056102       0.19636043      -0.19053237      -0.29568711       2.57867678
H        2.01297024       3.46429873      16.47268793      -0.57607209      -1.10968086      -0.28306050       0.34599787       0.25167348       0.02053111
H        4.74628035       9.57360109      16.22941794      -0.55525030       0.91461636      -0.18624020       0.18335321       0.25474623      -0.03758538
H        3.64542346       9.42229935      23.43669293       0.34863547       0.78298453      -1.01959061       0.05133016       0.05947453       0.51494729
H        4.20268429       3.08066502      21.71786080      -0.52178401      -1.55022084      -0.84226411      -0.23457548      -0.19265055      -0.40169596
H        3.08647774       2.97579843      14.35028647       0.36917541       0.55775484       0.46800990      -0.19645063       0.07213891      -0.27257183
H        4.22594531      10.83865129      14.41056626       0.09126452       0.20422830      -1.24923982       0.04732102      -0.42581703      -0.02476882
H        9.75303356       3.00346500      20.44039232       0.23938751       1.19341932       2.03527363       0.02980908       0.02020726       0.12776989
H        1.55667729       3.27461224      22.22592091      -0.12451667      -0.24149889      -0.33990614       0.00770175       0.11485767      -0.13488581
H       11.61470767      10.29974996      15.00967956       0.15096426      -0.13091137       0.23549289      -0.19186007       0.10400270       0.42431511
H       10.38353656       5.37694879      17.00087452      -0.09127481      -0.12456179      -0.55830486       0.41371996       0.19001174       0.26654952
H       10.93275318       4.18180007      21.16619682      -0.10469379      -0.07946992       0.00095484       0.10491495       0.09569885      -0.19459121
H        1.44237838       5.16311963      22.71437529       0.86031527      -1.07023124      -0.96008908      -0.24600786      -0.09717510      -0.15242020
H        9.40079961      11.36615119      15.30421172      -0.22143200       0.38565838       0.39696980      -0.15327458       0.31788927      -0.09511039
H        7.64681254       5.25216901      17.01658280      -0.02891734       0.73564655       1.31527347      -0.06117672      -0.01227898      -0.03887357
H        9.97744541       5.42086176      23.28717104       1.18787675       1.15405474       0.16089544       0.36311484      -0.34788727       0.20243246
H        9.52365825      12.37406450      22.35789643      -0.72459085       0.64864979       0.42198922      -0.01332298       0.14618918      -0.16498722
H        2.69265135       4.94484815      17.95256254       1.88166814       0.40756777      -1.68417627       0.11873720      -0.36035076      -0.12925482
H        7.12608826       3.55887863      16.60487615       0.92732341       0.41364339      -0.07899159      -0.48580551      -0.07817206       0.20851649
H        5.93408800      10.02869036      22.64882392      -0.49444852      -0.42581605       0.10898691      -0.11093864       0.12857550      -0.10797511
H       10.37929970      11.28028803      21.21702776      -0.03523513      -0.09100600       0.93490765      -0.08299428      -0.02562964       0.21570817
C        3.00515575       3.95267163      16.20357258       0.93394104       1.16757318       0.13176348       0.10399555      -0.72498248      -0.56323425
C        9.17946565       3.88989589      16.20445835      -0.54535731      -0.33094680       0.25573226       1.17714609      -0.36049243      -0.35789674
C        9.24114154       3.79939502      22.36009002       1.03313631       0.08004369      -1.40899787       0.24979950      -0.42605386       0.33451204
C       10.14148322      10.48524666      23.10594603      -0.33327259      -1.70835888       0.51693008       0.49916516       0.71938927      -0.00801168
N       11.41786071       9.88318889      15.99723345       2.17191895      -0.74063549      -1.39128879       0.65015244       0.72210258       0.30669971
N       10.28948143       4.62823871      16.27357178      -0.96633348      -0.46826848       0.60324505       1.32934621      -0.18293693      -0.52210893
N       10.09921561       3.58890552      21.32232594       0.14522646      -0.11854902      -1.44227564       0.16557928      -0.62397588      -0.90462700
N        2.12689903       4.12785711      22.38039951       0.65404124       0.57376006      -0.21313443       0.09420134      -1.38937348      -0.33005533
N        9.40846238      10.94126625      16.36602195      -3.31572976      -0.32604952       0.71504253       0.56890786      -0.77122616       0.51279258
N        7.98036946       4.17053989      16.74786780       0.09910009      -0.47374323      -1.33168551      -1.46800114      -0.56333272      -0.33432270
N        5.01866792      10.47122325      22.22527948       1.24387488      -0.31955620       0.42582477       0.20670167      -0.34892606      -0.66668207
N       10.05097711      11.50034611      22.24510178       0.62388142       0.07540025      -1.17859980       1.44398804       0.34551942      -0.62171438
Pb       0.56474918       7.70471802       0.62419876       0.22059664      -0.52005261       0.01086101      -0.80426062       0.10416277      -1.10404815
Pb       7.03276848       7.34801631       0.41878331      -0.32429892      -0.02584895       0.24324724      -6.45274904      -3.30761921      -1.86219405
Pb       0.47742177       1.36365241      19.53832482      -0.55434477      -0.78754254      -0.30694845      -0.93034636      -1.81806160       3.37951499
Pb       0.39499286       7.45625502      19.60604830       0.05012859       0.04120621       0.07957206      -0.87939949      -0.97520800       0.06856732
I        3.37128339       7.25022690      24.83462743       0.13107870       0.14936568       0.43550391      -0.07286402       2.04929201      -0.73952075
I       10.15277431       7.33505981       0.99088504       0.03976731       0.07092614       0.08675979      -0.96906376      -1.71956745       1.11310936
I       10.05100264       6.95797145      18.80660798      -0.14258504       0.08266437       0.13748823      -0.16277939      -1.35610987       3.85411726
I        3.65729860       7.53100944      19.61698815       0.06531271      -0.04824599       0.17149151      -2.68105267      -0.33296576       0.00397021
I        0.82525401       4.22202151       0.79646961      -0.13559628       0.12686249      -0.11313354       2.17122502      -1.37797169      -0.51196897
I        0.76585099      10.57599748      12.92335632       0.05451064       0.28736477      -0.25459746      -2.97239786       2.99778690      -1.74395010
I        0.71192053      10.63715388      19.34302614      -0.40679354      -0.12130769       0.22897523      -3.94485119       1.78512654      -0.48523822
I        0.52995623       4.28353418      19.28032036       0.14371929       0.29410181      -0.18360349      -0.91788073      -0.21899272       1.80558506
I       13.74041359       7.80084342      16.18400236       0.19382565      -0.37577537       0.05191469      -0.35560372      -1.01285374      -1.39568783
I        6.59035297       7.20646173      16.31228780      -0.30914996      -0.19623649       0.17553167      -1.62391304      -1.89290302       0.72766677