768
Lattice="31.52003920688824 -1.0395494997101957 0.3212732111417801 -0.9162685860741572 30.3547437254124 0.028757121508259497 0.35595936046071336 -0.14720492652102254 17.2635365134837" Properties=species:S:1:pos:R:3:forces:R:3:momenta:R:3 pbc="T T T"
H        1.73347554       2.85108875       6.62165621      -0.28811717       0.19473202      -0.05382825      -0.03576106       0.04747850       0.11094472
H        3.93114054       2.13586548       6.45484215      -0.43795393       0.10383673      -0.20243223      -0.01046395       0.14003588       0.05274265
H        3.83376280       1.94561826       4.74177720       0.56627726      -0.03562362      -1.42697808      -0.00871469      -0.25676173       0.30118736
H        1.71686889       2.83764311       3.56344771      -0.07699424      -0.09961694       0.56431998       0.18537158      -0.01563305      -0.14226263
H        0.38284729       3.23202748       4.66587446       0.06815818       0.01396579       0.09972837      -0.14044086       0.02824387      -0.11869451
H        7.25125896       6.17771299       2.31970698       0.14006920       0.22373234       0.15396694       0.28600761       0.15918814       0.05427270
H        6.33908414       6.90567600       0.31594223      -0.14599817       0.50755576      -0.61086611       0.05402346      -0.24986226       0.05062451
H        6.37573395       5.14793489      16.87484091       0.02502065      -0.73582423      -1.00733081       0.19906390       0.28334872       0.01685206
H        6.84061252       3.36745920       1.04397915      -0.08790362       0.86041931       0.51430992       0.33560734      -0.15174116       0.02996290
H        7.34311664       3.75559508       2.70205498       0.15390824       0.27275376       0.37653689      -0.16902894       0.01781921      -0.01254926
C        2.13077933       2.69020949       5.60940563      -0.93689422       0.06688307       0.60255549       0.20103272      -0.37230864      -0.34449167
C        6.95880004       5.44923985       1.53236238      -0.54292280      -2.75565882      -0.42692732       0.03028033      -0.23077087      -0.06245803
N        3.36227462       2.24219675       5.58668122       1.14348072      -0.33476541       1.03065313      -0.38918571       0.55868134      -0.62403977
N        1.34928968       2.88315877       4.54960098       0.17276618       0.20703498      -0.54703933       0.43613564       1.06178350      -0.66051474
N        6.34226480       5.88352256       0.39416737       0.54458870       0.38915859       2.36308281       0.13226481      -0.06248415       0.24279717
N        7.09210381       4.11805031       1.77509336      -0.20333936       0.87313715      -1.43335135      -0.58021888       0.55334145       0.18365252
Pb       4.47906765      -0.01426769       1.16931524      -0.23417864       0.42089405      -0.06317145       2.85384692      -1.77637608      -0.22531732
Pb       0.46128152       0.48984318       1.12160970       0.06967076      -0.14278368      -0.35748355      -1.35649060      -1.07121651      -0.14370780
I        6.54574581       1.07172231       3.60065145      -0.12546765      -0.16216212      -0.17905387       1.49809233      -0.51867804      -0.16880887
I        2.48497876       6.70196858       2.67897742       0.13083415      -0.11231221       0.10202098       0.76997808       0.20253496      -0.32244580
I        6.60607393       1.58886512       7.78731014      -0.04487637      -0.13909745      -0.03907757       1.76183984      -0.99003711      -1.13497597
I        2.53264479       6.18390224       7.33149164       0.13831628      -0.17002905      -0.08049768      -1.28171121      -1.66371133      -0.79753237
I        6.53915078       4.78848543       5.36179621      -0.18824676       0.04425757       0.09559446       1.57858516      -3.05227940      -1.12338629
I        2.70710533       2.87119881       1.10730029      -0.12294679      -0.09527185      -0.00377117       1.04078255      -0.94550538      -1.49593678
H        2.62273769      11.32090978      17.05880412      -0.21085436       0.50777167      -0.10723458      -0.09462145      -0.08190507      -0.00132371
H        2.01318213      12.31196756       2.04716680      -0.02168729       0.34405190       0.02042927       0.02292857       0.04633636       0.07398983
H        2.38201700      10.77007404       2.73143581      -0.12635105      -0.55234127       0.63975234       0.05176314      -0.03057528      -0.09171178
H        2.65331285       8.81841865       1.13255176      -0.09929438      -0.22055153       0.62378076      -0.04964321      -0.13904738       0.11762664
H        2.82953271       9.08416536      16.73202049       0.27614088       0.02096951      -0.09893664      -0.04842275       0.19950743       0.03334881
H        5.87305578      11.65675212       6.54476564      -0.56052054      -1.05105846       1.17998360       0.14381880      -0.17931184       0.13831437
H        4.45180834      13.47986337       6.23397562       0.18054241       0.03358526      -0.21855202       0.12166018      -0.16125922      -0.05871427
H        5.48495658      14.17221282       4.98235867       0.10878910      -0.00002105      -0.19259502      -0.24061637       0.02487067       0.03199232
H        7.43171194      12.77482207       4.30578572       0.56880855       0.11309435      -0.16149829      -0.01629126       0.10263539      -0.11567797
H       14.01215640      14.27786937       4.85709219      -0.11922232       0.82007545      -0.41998792      -0.23890485      -0.09168429       0.10567092
C        2.33852975      10.82168512       0.67071624      -0.47101341       0.54279076       1.86023942       0.01443852      -0.57956530      -0.11924246
C        6.10415220      12.36881058       5.80869313      -0.47858526       1.27313396      -0.94035230      -0.18851639      -0.52035106       0.20921154
N        2.15310063      11.31418700       1.89848758       0.37627750       0.08774588      -1.69845238       0.26976133      -0.62550239       0.38509514
N        2.57249305       9.56466135       0.45021302       0.19338018      -0.97745821      -1.42192624      -0.40050907      -0.33139478      -0.08125746
N        5.26801378      13.37161003       5.58541593      -0.23393484      -0.54769171       0.71730296       0.46556652      -0.05845690       0.04141717
N        7.19916653      12.15962790       5.10769395       0.82029067      -0.64735816       0.01034036      -0.87664551       0.69396675       0.02836582
Pb       4.51169449       7.39193838       5.11718960       0.12067818       0.11002361       0.13827906      -1.85243209       0.53986363      -0.08540563
Pb       0.64244436       7.56484630       5.17441175      -0.20858959      -0.12352674       0.18205063      -1.80706324      -3.02097707       1.72856854
I        6.36173216       8.82493235       7.56048564      -0.16752904       0.26274278      -0.36437573      -0.44015435       0.90456300       2.27874152
I        2.11860651      14.13963234       7.43930044       0.14574030       0.03638225       0.15214504      -1.86831696      -0.05781327       0.18457677
I        6.58888157       8.68906366       3.01630848       0.16434423       0.08233122       0.20327595      -0.55302265      -0.92685181      -0.04145807
I        1.70488940      14.40167762       3.31752575       0.20451933      -0.00137356       0.41128284       0.88792733       0.89650308      -0.26722728
I        5.55454818      12.63767496       1.09114326       0.12830804      -0.43344091      -0.00923927       0.67749170      -1.43024609      -2.38176531
I        2.60492663      10.06684230       5.27507179       0.13496853       0.04605455       0.16096421       0.50442287      -1.18597359       0.96820305
H       10.47032619       3.46662971       4.52837845       0.16717714      -0.12034291      -0.57873169      -0.25211559      -0.06132335       0.25554367
H       10.73028078       3.94928875       6.73825235      -0.12346269       0.61283022       0.02081664       0.09229302       0.30552226       0.31910848
H       10.81354986       2.31836364       7.25622320      -0.24277493      -0.20444817       0.15196261       0.16038102       0.00270494      -0.00921659
H       10.28106668       0.46425835       5.19319940       0.08155050       0.71978827      -0.36821672       0.09624382      -0.18437941       0.01203241
H       10.39043207       1.32888523       3.59388907      -0.27206729      -0.02515202       0.79971615       0.02245082      -0.12006065       0.16454625
H       14.47234088       5.89092845       1.81878972      -0.49104396       0.05106918       0.06710057      -0.06861012       0.09444456      -0.03212465
H       16.51434467       4.79318300       1.31423849      -0.18602151       0.18198491       0.05308200       0.20431035       0.11952211       0.02626706
H       15.72534941       3.66598264       0.25037268      -0.07524875      -0.32845468       0.11170977       0.13591032       0.10766326       0.11987950
H       13.25319680       3.65448109       0.14813689       0.09853710       0.36238699       0.27846097       0.20044463       0.07405348       0.09306158
H       12.44504826       4.97193679       0.96327501      -1.95550529       1.11133799      -0.11349627       0.00098575      -0.08405438      -0.04960396
C       10.51504351       2.58638061       5.18830734      -0.36747592       1.37137451       0.65196646       0.20762512       0.29319508      -0.25838090
C       14.43936391       4.98189637       1.20516852      -0.28345068       0.32018181       0.02818789      -0.06122270      -0.14378257      -0.35926222
N       10.68602812       2.96730477       6.47238488       0.26610123      -1.21197815      -0.16830688       0.10872267      -0.29271874      -0.08490210
N       10.31695446       1.37139241       4.64844303       0.38868876      -1.31216645      -0.34117815       0.51620020      -0.00845764       0.56506240
N       15.60180411       4.41324443       0.97570929       1.42909289      -0.60075336      -0.20405268      -0.20988730       0.66733646       0.11182116
N       13.29378070       4.51291732       0.72670918       1.34397509      -1.02312919      -0.07792144       0.09214145      -0.01878110      -0.24514981
Pb      12.24446839      -0.35614276       0.81217336       0.15480060      -0.21768297       0.10330848      -2.92015685       1.06812491      -2.38709018
Pb       8.27562550      -0.23546311       1.02992863       0.05222048      -0.13827947       0.15937107       0.43225000       0.39154300      -1.76001545
I       13.98170136       0.86581672       3.23250494      -0.03932266       0.35090389       0.14107916       0.42454819      -0.07320185       2.17147655
I       10.41753228       6.05657113       3.32615660       0.08438715       0.12911884       0.24430851      -0.52389681       2.73263047      -0.74026041
I       14.52491860       1.32042531       7.65327142      -0.01962033       0.17098530      -0.22379675      -0.56768127       0.53977792       0.98815516
I       10.15182116       6.14198511       8.02677535       0.11719138       0.23359562      -0.24396625      -1.57583998      -0.41083855      -0.93371759
I       14.15343937       4.64558580       5.14911021      -0.00720397       0.03144941       0.07144368       0.67571663      -0.68354161       1.02446863
I       10.26689138       2.14214644       1.28384682       0.12172862       0.36576075       0.00898229      -1.19360532       0.21445027      -1.81345784
H        9.91275880       9.62879465       2.63503735       0.18394343       0.27407717       0.52548693      -0.21570154      -0.08293428      -0.11290989
H        8.30489120      10.08101204       1.16242545       0.75644775      -0.20028320      -0.46916449       0.02873365      -0.04550080       0.13000891
H        9.81772329      10.05605307      16.98582289       0.05573304       0.16715405       0.05482153       0.10622939       0.06238807      -0.07071195
H       12.03210958       9.80407979       0.40694650       0.15313579       0.04861021       0.66178845      -0.10345395      -0.07403538       0.16602025
H       12.23209250       9.60597837       2.19528173       0.20382989      -0.18979897      -0.68212471      -0.14418537      -0.02677848       0.03685928
H       14.01237754      12.17483134       3.97036433      -0.10200263      -0.28784684      -1.07182176      -0.05853531      -0.06532952      -0.16363711
H       14.60289463      10.26488461       5.25802465       0.08843233       0.58420533      -0.11404179       0.09387555      -0.05085507      -0.04477184
H       15.04575581      11.20651895       6.69298691      -0.17576985       0.45910264       0.28375441      -0.02223882      -0.01812060       0.03448673
H       14.57658498      13.75409327       6.47415053      -0.04764750       0.10437318       0.12748109      -0.16516363      -0.13442949      -0.13238234
H        7.86976750      11.40910571       5.41268879      -0.48215697       0.71235732      -0.36222668       0.02290352       0.21336421      -0.38524315
C       10.31469083       9.85987632       1.61245766      -0.99117288      -0.12909529       0.11051746       0.24356496       0.18505776       0.29794112
C       14.32720955      12.28547690       5.00740878      -0.07161071       0.90788386       1.57779848       0.66606604       0.11810099      -0.03553270
N        9.34995103      10.16100171       0.75933795      -0.98308322       0.05352275      -0.16948055       0.59018989      -0.25756340      -0.21252269
N       11.62296470       9.74697119       1.36877729       0.55417351      -0.15941496      -0.18692834       0.48798790      -0.00915628       0.14868203
N       14.72875173      11.22566777       5.69573769       0.01669875      -0.60207847      -0.28370412       0.53933264      -0.22770837       0.15968933
N       14.27513073      13.53250720       5.49671095       0.35972039      -1.94897441       0.22906690       0.97283066       0.06594146      -0.56727759
Pb      12.31403211       7.16524269       5.76280737      -0.05332665       0.13491174       0.02052170      -1.09279313       0.77251960       0.65260503
Pb       8.35946620       7.34367088       5.49476344       0.20119490       0.17448593      -0.06144516       0.12376849      -0.50270066       0.47841400
I       14.75893556       8.24783266       7.83013209      -0.27926556      -0.06348192      -0.02029092      -1.80494754       0.70723307      -0.19764194
I        9.82857588      13.75915534       7.37656226      -0.06301366       0.05444182      -0.38602620       1.28623584       1.80178614       0.51777076
I       14.28635429       8.53623624       3.59223163      -0.15599643       0.09568929      -0.47851360       2.00177248      -0.32652487       0.14387528
I       10.00414044      13.35452488       3.01013816      -0.19215793       0.02828814      -0.08728272       0.15640924       0.55562184       0.53981147
I       13.92935452      12.39382299       0.79441894       0.13316206       0.13646101      -0.03284894       0.77887244       1.12763872       0.37679532
I       10.24556923      10.02403450       5.61145428       0.20602273      -0.30611795       0.10519739       0.98465080      -1.15726987       1.46659269
H        1.91145522       2.77748629      15.25342447      -0.28811717       0.19473202      -0.05382825      -0.03576106       0.04747850       0.11094472
H        4.10912022       2.06226302      15.08661041      -0.43795393       0.10383673      -0.20243223      -0.01046395       0.14003588       0.05274265
H        4.01174248       1.87201580      13.37354546       0.56627726      -0.03562362      -1.42697808      -0.00871469      -0.25676173       0.30118736
H        1.89484857       2.76404065      12.19521597      -0.07699424      -0.09961694       0.56431998       0.18537158      -0.01563305      -0.14226263
H        0.56082697       3.15842502      13.29764272       0.06815818       0.01396579       0.09972837      -0.14044086       0.02824387      -0.11869451
H        7.42923864       6.10411053      10.95147524       0.14006920       0.22373234       0.15396694       0.28600761       0.15918814       0.05427270
H        6.51706382       6.83207354       8.94771049      -0.14599817       0.50755576      -0.61086611       0.05402346      -0.24986226       0.05062451
H        6.19775427       5.22153736       8.24307266       0.02502065      -0.73582423      -1.00733081       0.19906390       0.28334872       0.01685206
H        7.01859220       3.29385674       9.67574741      -0.08790362       0.86041931       0.51430992       0.33560734      -0.15174116       0.02996290
H        7.52109632       3.68199262      11.33382324       0.15390824       0.27275376       0.37653689      -0.16902894       0.01781921      -0.01254926
C        2.30875901       2.61660703      14.24117389      -0.93689422       0.06688307       0.60255549       0.20103272      -0.37230864      -0.34449167
C        7.13677972       5.37563739      10.16413064      -0.54292280      -2.75565882      -0.42692732       0.03028033      -0.23077087      -0.06245803
N        3.54025430       2.16859429      14.21844948       1.14348072      -0.33476541       1.03065313      -0.38918571       0.55868134      -0.62403977
N        1.52726936       2.80955631      13.18136924       0.17276618       0.20703498      -0.54703933       0.43613564       1.06178350      -0.66051474
N        6.52024448       5.80992010       9.02593563       0.54458870       0.38915859       2.36308281       0.13226481      -0.06248415       0.24279717
N        7.27008349       4.04444785      10.40686162      -0.20333936       0.87313715      -1.43335135      -0.58021888       0.55334145       0.18365252
Pb       4.65704733      -0.08787015       9.80108350      -0.23417864       0.42089405      -0.06317145       2.85384692      -1.77637608      -0.22531732
Pb       0.63926120       0.41624072       9.75337796       0.06967076      -0.14278368      -0.35748355      -1.35649060      -1.07121651      -0.14370780
I        6.72372549       0.99811985      12.23241971      -0.12546765      -0.16216212      -0.17905387       1.49809233      -0.51867804      -0.16880887
I        2.66295844       6.62836612      11.31074568       0.13083415      -0.11231221       0.10202098       0.76997808       0.20253496      -0.32244580
I        6.78405361       1.51526266      16.41907840      -0.04487637      -0.13909745      -0.03907757       1.76183984      -0.99003711      -1.13497597
I        2.71062447       6.11029978      15.96325990       0.13831628      -0.17002905      -0.08049768      -1.28171121      -1.66371133      -0.79753237
I        6.71713046       4.71488297      13.99356447      -0.18824676       0.04425757       0.09559446       1.57858516      -3.05227940      -1.12338629
I        2.88508501       2.79759635       9.73906855      -0.12294679      -0.09527185      -0.00377117       1.04078255      -0.94550538      -1.49593678
H        2.44475801      11.39451225       8.42703587      -0.21085436       0.50777167      -0.10723458      -0.09462145      -0.08190507      -0.00132371
H        2.19116181      12.23836510      10.67893506      -0.02168729       0.34405190       0.02042927       0.02292857       0.04633636       0.07398983
H        2.55999668      10.69647158      11.36320407      -0.12635105      -0.55234127       0.63975234       0.05176314      -0.03057528      -0.09171178
H        2.83129253       8.74481619       9.76432002      -0.09929438      -0.22055153       0.62378076      -0.04964321      -0.13904738       0.11762664
H        2.65155303       9.15776783       8.10025224       0.27614088       0.02096951      -0.09893664      -0.04842275       0.19950743       0.03334881
H        6.05103546      11.58314966      15.17653390      -0.56052054      -1.05105846       1.17998360       0.14381880      -0.17931184       0.13831437
H        4.62978802      13.40626091      14.86574388       0.18054241       0.03358526      -0.21855202       0.12166018      -0.16125922      -0.05871427
H        5.66293626      14.09861036      13.61412693       0.10878910      -0.00002105      -0.19259502      -0.24061637       0.02487067       0.03199232
H        7.60969162      12.70121961      12.93755398       0.56880855       0.11309435      -0.16149829      -0.01629126       0.10263539      -0.11567797
H       14.19013608      14.20426691      13.48886045      -0.11922232       0.82007545      -0.41998792      -0.23890485      -0.09168429       0.10567092
C        2.51650943      10.74808266       9.30248450      -0.47101341       0.54279076       1.86023942       0.01443852      -0.57956530      -0.11924246
C        6.28213188      12.29520812      14.44046139      -0.47858526       1.27313396      -0.94035230      -0.18851639      -0.52035106       0.20921154
N        2.33108031      11.24058454      10.53025584       0.37627750       0.08774588      -1.69845238       0.26976133      -0.62550239       0.38509514
N        2.75047273       9.49105889       9.08198128       0.19338018      -0.97745821      -1.42192624      -0.40050907      -0.33139478      -0.08125746
N        5.44599346      13.29800757      14.21718419      -0.23393484      -0.54769171       0.71730296       0.46556652      -0.05845690       0.04141717
N        7.37714621      12.08602544      13.73946221       0.82029067      -0.64735816       0.01034036      -0.87664551       0.69396675       0.02836582
Pb       4.68967417       7.31833592      13.74895786       0.12067818       0.11002361       0.13827906      -1.85243209       0.53986363      -0.08540563
Pb       0.82042404       7.49124384      13.80618001      -0.20858959      -0.12352674       0.18205063      -1.80706324      -3.02097707       1.72856854
I        6.53971184       8.75132989      16.19225390      -0.16752904       0.26274278      -0.36437573      -0.44015435       0.90456300       2.27874152
I        2.29658619      14.06602988      16.07106870       0.14574030       0.03638225       0.15214504      -1.86831696      -0.05781327       0.18457677
I        6.76686125       8.61546120      11.64807674       0.16434423       0.08233122       0.20327595      -0.55302265      -0.92685181      -0.04145807
I        1.88286908      14.32807516      11.94929401       0.20451933      -0.00137356       0.41128284       0.88792733       0.89650308      -0.26722728
I        5.73252786      12.56407250       9.72291152       0.12830804      -0.43344091      -0.00923927       0.67749170      -1.43024609      -2.38176531
I        2.78290631       9.99323984      13.90684005       0.13496853       0.04605455       0.16096421       0.50442287      -1.18597359       0.96820305
H       10.64830587       3.39302725      13.16014671       0.16717714      -0.12034291      -0.57873169      -0.25211559      -0.06132335       0.25554367
H       10.90826046       3.87568629      15.37002061      -0.12346269       0.61283022       0.02081664       0.09229302       0.30552226       0.31910848
H       10.99152954       2.24476118      15.88799146      -0.24277493      -0.20444817       0.15196261       0.16038102       0.00270494      -0.00921659
H       10.45904636       0.39065589      13.82496766       0.08155050       0.71978827      -0.36821672       0.09624382      -0.18437941       0.01203241
H       10.56841175       1.25528277      12.22565733      -0.27206729      -0.02515202       0.79971615       0.02245082      -0.12006065       0.16454625
H       14.65032056       5.81732599      10.45055798      -0.49104396       0.05106918       0.06710057      -0.06861012       0.09444456      -0.03212465
H       16.69232435       4.71958054       9.94600675      -0.18602151       0.18198491       0.05308200       0.20431035       0.11952211       0.02626706
H       15.90332909       3.59238018       8.88214094      -0.07524875      -0.32845468       0.11170977       0.13591032       0.10766326       0.11987950
H       13.43117648       3.58087863       8.77990515       0.09853710       0.36238699       0.27846097       0.20044463       0.07405348       0.09306158
H       12.62302794       4.89833433       9.59504327      -1.95550529       1.11133799      -0.11349627       0.00098575      -0.08405438      -0.04960396
C       10.69302319       2.51277815      13.82007560      -0.36747592       1.37137451       0.65196646       0.20762512       0.29319508      -0.25838090
C       14.61734359       4.90829391       9.83693678      -0.28345068       0.32018181       0.02818789      -0.06122270      -0.14378257      -0.35926222
N       10.86400780       2.89370231      15.10415314       0.26610123      -1.21197815      -0.16830688       0.10872267      -0.29271874      -0.08490210
N       10.49493414       1.29778995      13.28021129       0.38868876      -1.31216645      -0.34117815       0.51620020      -0.00845764       0.56506240
N       15.77978379       4.33964197       9.60747755       1.42909289      -0.60075336      -0.20405268      -0.20988730       0.66733646       0.11182116
N       13.47176038       4.43931486       9.35847744       1.34397509      -1.02312919      -0.07792144       0.09214145      -0.01878110      -0.24514981
Pb      12.42244807      -0.42974522       9.44394162       0.15480060      -0.21768297       0.10330848      -2.92015685       1.06812491      -2.38709018
Pb       8.45360518      -0.30906557       9.66169689       0.05222048      -0.13827947       0.15937107       0.43225000       0.39154300      -1.76001545
I       14.15968104       0.79221426      11.86427320      -0.03932266       0.35090389       0.14107916       0.42454819      -0.07320185       2.17147655
I       10.59551196       5.98296867      11.95792486       0.08438715       0.12911884       0.24430851      -0.52389681       2.73263047      -0.74026041
I       14.70289828       1.24682285      16.28503968      -0.01962033       0.17098530      -0.22379675      -0.56768127       0.53977792       0.98815516
I       10.32980084       6.06838265      16.65854361       0.11719138       0.23359562      -0.24396625      -1.57583998      -0.41083855      -0.93371759
I       14.33141905       4.57198334      13.78087847      -0.00720397       0.03144941       0.07144368       0.67571663      -0.68354161       1.02446863
I       10.44487106       2.06854398       9.91561508       0.12172862       0.36576075       0.00898229      -1.19360532       0.21445027      -1.81345784
H       10.09073848       9.55519219      11.26680561       0.18394343       0.27407717       0.52548693      -0.21570154      -0.08293428      -0.11290989
H        8.48287088      10.00740958       9.79419371       0.75644775      -0.20028320      -0.46916449       0.02873365      -0.04550080       0.13000891
H        9.63974361      10.12965554       8.35405464       0.05573304       0.16715405       0.05482153       0.10622939       0.06238807      -0.07071195
H       12.21008926       9.73047733       9.03871476       0.15313579       0.04861021       0.66178845      -0.10345395      -0.07403538       0.16602025
H       12.41007218       9.53237591      10.82704999       0.20382989      -0.18979897      -0.68212471      -0.14418537      -0.02677848       0.03685928
H       14.19035722      12.10122888      12.60213259      -0.10200263      -0.28784684      -1.07182176      -0.05853531      -0.06532952      -0.16363711
H       14.78087431      10.19128215      13.88979291       0.08843233       0.58420533      -0.11404179       0.09387555      -0.05085507      -0.04477184
H       15.22373549      11.13291649      15.32475517      -0.17576985       0.45910264       0.28375441      -0.02223882      -0.01812060       0.03448673
H       14.75456466      13.68049081      15.10591879      -0.04764750       0.10437318       0.12748109      -0.16516363      -0.13442949      -0.13238234
H        8.04774718      11.33550325      14.04445705      -0.48215697       0.71235732      -0.36222668       0.02290352       0.21336421      -0.38524315
C       10.49267051       9.78627386      10.24422592      -0.99117288      -0.12909529       0.11051746       0.24356496       0.18505776       0.29794112
C       14.50518923      12.21187444      13.63917704      -0.07161071       0.90788386       1.57779848       0.66606604       0.11810099      -0.03553270
N        9.52793071      10.08739925       9.39110621      -0.98308322       0.05352275      -0.16948055       0.59018989      -0.25756340      -0.21252269
N       11.80094438       9.67336873      10.00054555       0.55417351      -0.15941496      -0.18692834       0.48798790      -0.00915628       0.14868203
N       14.90673141      11.15206531      14.32750595       0.01669875      -0.60207847      -0.28370412       0.53933264      -0.22770837       0.15968933
N       14.45311041      13.45890474      14.12847921       0.35972039      -1.94897441       0.22906690       0.97283066       0.06594146      -0.56727759
Pb      12.49201179       7.09164023      14.39457563      -0.05332665       0.13491174       0.02052170      -1.09279313       0.77251960       0.65260503
Pb       8.53744588       7.27006842      14.12653170       0.20119490       0.17448593      -0.06144516       0.12376849      -0.50270066       0.47841400
I       14.93691524       8.17423020      16.46190035      -0.27926556      -0.06348192      -0.02029092      -1.80494754       0.70723307      -0.19764194
I       10.00655556      13.68555288      16.00833052      -0.06301366       0.05444182      -0.38602620       1.28623584       1.80178614       0.51777076
I       14.46433397       8.46263378      12.22399989      -0.15599643       0.09568929      -0.47851360       2.00177248      -0.32652487       0.14387528
I       10.18212012      13.28092242      11.64190642      -0.19215793       0.02828814      -0.08728272       0.15640924       0.55562184       0.53981147