768
Lattice="38.994998665037166 0.07106821782705662 0.35547318029268 0.20366633889610405 23.235525993811105 -0.050934670340891476 0.6633844787472418 -0.16287480069770385 18.246656201326342" Properties=species:S:1:pos:R:3:forces:R:3:momenta:R:3 pbc="T T T"
H        7.74676149       1.36831835       3.90772891      -0.85298399       0.57101092       0.70419484       0.02191391       0.12318447      -0.22906815
H       11.88413211      12.83817415       2.97642157       0.10564026      -0.32057447      -0.03475688      -0.09540729      -0.09428763      -0.05250891
H        2.18700750       6.82500498       5.03830441       0.00574256       0.40522581       0.34208930       0.01750974       0.08909225      -0.10188666
H       17.02371231       7.23295891       2.35203044      -0.06388412      -0.32425307      -0.62017277       0.00534395      -0.10271244      -0.01443981
H        6.01081860       0.27696200      10.21067008       0.10359568      -0.06600067       0.06855745      -0.05476252       0.17437038       0.11029211
H       12.14422918      10.71075934       4.01402594      -0.56481060      -0.28448644       0.21737424      -0.00674040      -0.03270446       0.06892773
H        4.34241361       6.14136417       7.74199265      -0.24161302      -0.86935975      -0.16446488      -0.04491651      -0.10419383      -0.04466113
H       14.93808575       8.02425634       3.17625944       0.31069674      -0.10883401      -0.13034250       0.05208329      -0.07020695       0.07839587
H        5.34593334       1.83111333       5.68292482       0.14303701      -0.64806758       0.19642440      -0.07439463       0.06920825       0.15316551
H       13.73800868      10.47131905       3.22101372      -0.79500464       0.16750598       0.36300570       0.04483356      -0.00383804       0.27594852
H        4.89306497       7.87513870       7.63808188      -0.44314950      -0.58396303       0.34182615      -0.04979760      -0.04985702       0.07061802
H       14.23254920       6.46254228       3.14350850      -0.44709049      -0.60206583       0.04180586       0.06856599       0.15154894      -0.07221735
H        5.79311982       3.65193878       4.09363597       0.23296443      -0.01405648       0.03784522       0.05784298      -0.07665996      -0.16613312
H       14.50107839      12.28643958       1.51881877      -0.77115624       0.01871814       0.62655361      -0.00158862       0.14517529       0.02838714
H        3.79807607       9.41470628       5.13894423      -0.23145003      -0.22211416       0.08370623      -0.06905511       0.23349596       0.18861034
H       15.97138524       4.33626127       2.43463400      -0.27385081      -0.20021948      -0.18876513       0.17438087      -0.07787611       0.04418965
H        7.32227529       3.50760831       3.22088504       0.16164045      -0.09483336      -0.15343907      -0.05787193       0.16121337       0.09884242
H       13.51740795      13.73991293       1.68566276      -0.11225451      -0.35248153      -0.10453108       0.11339543       0.13634265      -0.05372096
H        2.30118208       8.98326385       6.05608379       0.94019614      -0.25008842      -0.61187050       0.19606873      -0.19881133       0.24537208
H       17.14947710       5.02264440       5.40333508       0.60165151      -0.07898764      -0.22806156      -0.22027430      -0.05850602      -0.22118991
C        6.85187253       1.91680427       4.37927623       2.41813216      -1.37689235      -1.46357955       0.31108645       0.41837040      -1.03810339
C       12.74258748      12.18466893       2.74200142       0.37622369       0.42791171       0.10897408       0.61509767      -0.13768015       0.31481859
C        2.98719705       7.54092538       4.78940469      -0.34232541       0.06462385       0.02102259      -0.49751735      -1.04314112       0.07209315
C       16.20375845       6.46573075       2.40405399       1.34355490       1.05657457       0.56852035       0.54700386       0.70540804      -0.15724172
N        6.13398145       1.28736991       5.27246990      -0.85870230       0.21163275       0.87606203      -0.01811568      -0.30236240      -0.37809043
N       12.83417133      11.00861929       3.33792082       1.62806848       0.21082220      -1.21756517      -0.03933252       0.18317846       0.72233579
N        4.32775793       7.06052432       8.16002370       0.65583890       2.02916242      -0.12941416      -0.84080992       0.18026561      -0.07537618
N       15.02369112       7.01952141       2.87630239      -0.81269963       0.31502312       0.58311093      -0.15739517      -0.24120723       0.21723764
N        6.63837700       3.10028713       3.86479954      -0.86505201       0.96913391       0.07228269      -0.08724134       0.38373735       0.42343274
N       13.62294379      12.72265274       1.90968521       0.14905836      -0.17975906      -0.05712255       0.49191402      -0.06652019      -0.31686581
N        3.08683279       8.71393296       5.40999823      -0.96235425      -0.26104386       0.36645855       0.22691897       0.48457860      -0.60599411
N       16.58534931       5.12626240       2.16601516       0.65117894      -0.70639067      -0.78351261      -0.53046194       0.25767724      -0.23030820
Pb       1.14638816       2.81323553       2.15068378       0.24822421       0.02620672      -0.07105899       1.11353158       3.71920909       0.57799430
Pb      18.68870995      10.61389665       4.97012045      -0.07705280       0.52786514       0.29017316       2.80286569      -2.10229179      -2.07810461
Pb       8.60962088       8.69081682       2.64381418      -0.29732801      -0.07056619      -0.22495976      -1.01369061      -2.86146818       0.88313973
Pb      10.82430211       5.11226734       4.47379813      -0.00061906      -0.04686395       0.20592987       2.12092627      -2.76615851       0.30093307
I       39.05076408       4.81590578       4.78407529       0.17565932       0.17104954       0.15465211      -1.38628947      -0.45326091      -0.85786310
I       39.10528187       8.73807954       2.85812543      -0.17056490      -0.12719257       0.02619326      -0.03915980      -0.58783598       2.73120245
I        9.62319257      10.60003676       4.90103086       0.26916064       0.42008037      -0.11654925      -1.36105110       0.77408637       0.89133051
I        9.83987668       3.06025959       2.35456073      -0.10744777      -0.03956302      -0.15455123       1.47911263       0.85750519      -2.18866222
I       17.73060561       1.43898281       2.78148640      -0.11446161      -0.07070856       0.14770078       0.62208649      -0.81084564      -0.85446325
I        2.32780670      12.25168005       4.31999758      -0.26964985      -0.03628072       0.15881648      -1.83458845      -1.01051632      -1.53442574
I       11.57047322       7.25800100       2.19336113       0.22492656       0.17717453       0.04115209       0.24611982      -0.03111666      -0.12464301
I        7.87735180       6.43229668       4.91618920      -0.05809075       0.13588644      -0.08571595       0.62224980      -0.36265191       0.57692829
I        4.08411046       4.23232526       1.73685139      -0.42265173       0.15988716       0.13240943      -1.98017533       1.23241027      -1.20278984
I       15.66870255       9.68672618       5.18100295       0.21499910       0.04490366      -0.09330409       1.28597864       0.04716076       1.88743213
I        5.75548138       9.98046176       2.78279888       0.03019110      -0.05681080       0.02893551       2.23642897       0.12752409      -0.69325978
I       13.61360559       3.67302482       4.24548350       0.30443926       0.22537886       0.07243047       0.42722185       0.31284701      -2.24691673
H        7.61209917       1.05289234       8.78896111       0.44290355      -0.21412708      -0.47313811      -0.11652095       0.13279058       0.03089854
H       12.11612417      12.35421253       7.63266118       0.45051679      -0.85210253      -0.24898208       0.10591426      -0.06243298       0.10558524
H        2.78816355       6.54780816       9.46899697       0.13439151       0.46364020       0.17238552      -0.00696736      -0.02128609       0.13002643
H       17.63080322       6.75727055       7.00860461      -0.40115583       0.03756042       0.54668612       0.12474998       0.12282747      -0.00375949
H        6.44429013       0.35875498       5.66721793      -0.43597731       0.32442995      -0.13458762      -0.14830652       0.04756180       0.01118719
H       13.71371353      13.54763453       6.29383660      -0.49809531       0.20937306       0.08710858      -0.02883991       0.04308720      -0.02925041
H        3.76646219       6.19163844       3.40678884      -0.14053355       0.48606356       0.25971753      -0.04977690      -0.04747535      -0.08770495
H       15.98522636       7.42425517       8.61656939      -0.07480971      -0.53815227      -0.38187139      -0.01101676       0.01339642      -0.05920872
H        5.30859550       1.91457057      10.42874250       0.00509099      -0.11616789      -0.20052627      -0.00915821      -0.07684739      -0.03330481
H       14.77013475      12.17282936       6.15634771      -0.15573862       0.03089269       0.21400486      -0.03169816       0.05610653       0.00638734
H        4.48175969       7.78960340       3.50775018       1.29445403       0.68465613      -0.61590581      -0.05349406      -0.01241126       0.19036750
H       14.87952244       6.04611190       8.12552992      -0.02450354      -0.08917833      -0.09517998      -0.17297099       0.09928650      -0.04280397
H        6.30169974       3.81787615       9.04895759       0.48260323      -0.69382298      -0.16174992       0.06027646       0.12273983      -0.08000219
H       14.19352264      10.15704898       7.67152061       1.26816802      -1.14179564      -0.54401974      -0.11763436       0.24828046       0.00750753
H        3.83071875       9.49027839       9.00506007       0.23112546       0.20903535       0.21168284       0.01181285      -0.08193413       0.04090918
H       15.47182191       4.72072188       5.85203723      -0.48040228      -0.61455692       0.18106862      -0.00097456      -0.04721517       0.26670268
H        7.75493516       3.22085625       8.12143973      -0.53282842       0.22070475       0.14825649       0.16502543       0.00429566      -0.05931182
H       12.56946351      10.11971782       8.35143146       0.05982632       0.34562539      -0.18492574       0.00771389      -0.00067757      -0.16977254
H        2.57732327       8.85502860      10.21430345      -0.05074095       0.10996193       0.05438715       0.09611219      -0.14088276      -0.08910430
H       17.56469887       4.84918623       1.75401462      -0.80720019       0.26876547       0.62303984       0.10004784      -0.18471212       0.04264714
C        6.85021777       1.75401702       9.10722911       0.05887887      -0.02464523       0.11093577      -0.17213045       0.67043008      -0.17215539
C       13.04992367      11.80332347       7.31311034      -0.20754339       3.00974259      -0.36572480       0.47012502      -0.33374143      -0.57091472
C        3.43303107       7.41444648       9.06617395      -0.01670795      -1.00110138      -0.02622810      -0.78450313      -0.13992211      -0.26143308
C       16.63370617       6.20811993       7.06809422       0.65679907       0.59859758      -1.01477427      -0.07388564      -0.43345712      -0.12845979
N        5.98783645       1.27430240       9.94351433      -0.85870765      -0.15298321       0.80165516       0.09672446       0.03030988       0.87665210
N       13.89606005      12.57774537       6.56912902       0.18671547      -1.43878382       0.31887799      -0.81762974      -0.18353833       0.90938106
N        3.78624569       7.14998295       3.82059701      -0.46230476      -0.91320983       0.11003140      -0.39301972      -0.26602484       0.10561784
N       15.73804941       6.59838962       7.94030497       0.29127799       0.64286551       0.62654639      -0.32730538       0.21603577       0.02453688
N        6.89184846       2.99524474       8.66634683       0.66571610       0.81305597      -0.47627418      -0.61597073       0.58470016      -0.74626778
N       13.28442248      10.60227862       7.76349484      -1.41266806      -0.06148686       0.78778525       0.15453401      -0.30284299      -0.19858716
N        3.31773351       8.65476724       9.53455935      -0.12365664      -0.33802847      -0.46556659      -0.39057996      -0.03610272       0.33822647
N       16.43296910       5.23241199       6.09252822      -0.67367808      -0.00776658       0.41330069       0.08319899      -0.14995240       0.39887921
Pb       1.26441525       2.75102914       6.69284700      -0.09064088      -0.15596209       0.05583911       1.50189453      -0.47271879      -0.99981906
Pb      18.79040268      10.75293306       9.62285486       0.17119706       0.43996568      -0.13842054       3.88139061      -0.28495308       1.80969058
Pb       9.07279567       8.63259032       7.18880263      -0.47820061      -0.18310662       0.13583789       1.25009500       1.73670370      -2.21297897
Pb      11.05630257       5.01129587       9.05541492      -0.15076209      -0.09471898       0.01423279       0.34707782      -1.23452356      -0.38816458
I       39.25478283       4.86645079       9.40315238       0.18572860      -0.04177885      -0.02368521       0.52444100      -0.68233650       0.97021914
I       38.97882236       8.65638457       7.61533310       0.17599909      -0.04486248      -0.32447886      -0.26078445      -1.07317955       0.28929901
I        9.91369507      10.69403516       9.34944664       0.21042686       0.01849263       0.19816604      -1.37540543       1.06633247      -1.36690186
I       10.18744220       2.89221414       6.73759132      -0.26215028       0.01442095       0.16362656       0.48397225       2.09740812       2.25959001
I       17.79590822       1.36645835       7.37791319       0.04175100      -0.26171716      -0.19151923      -0.16100552      -1.01592354      -0.36347065
I        2.45723566      12.21680019       9.07511463      -0.18352017      -0.06426052      -0.26273811       0.43681879      -0.46738674      -0.27928541
I       11.93482268       7.23024849       6.92646125       0.18151285      -0.03020839      -0.17409944       0.99034941      -0.27804414       0.25243718
I        7.97148946       6.51207277       9.39370705       0.05830111      -0.12850048       0.10212322       2.52590259      -0.90141018      -0.53628878
I        4.03068965       4.09901493       6.31805430       0.11363321      -0.05612186      -0.05519361      -1.83107956      -1.01910693       2.14097358
I       15.83179547       9.82014888       9.63095187      -0.01332376      -0.12380005       0.19649462      -0.80867659       0.83289636       0.37443135
I        6.16173454       9.98707580       7.36668738      -0.03047044       0.06625833      -0.07962217       0.92659865      -0.27040289       0.08053260
I       13.90701179       3.86308202       9.08447969       0.06073089       0.04551821      -0.13904836      -1.01870774      -1.21305921      -1.61067641
H        8.07845373       1.28688095      13.03105701      -0.85298399       0.57101092       0.70419484       0.02191391       0.12318447      -0.22906815
H       12.21582435      12.75673675      12.09974967       0.10564026      -0.32057447      -0.03475688      -0.09540729      -0.09428763      -0.05250891
H        2.51869974       6.74356758      14.16163251       0.00574256       0.40522581       0.34208930       0.01750974       0.08909225      -0.10188666
H       17.35540455       7.15152151      11.47535854      -0.06388412      -0.32425307      -0.62017277       0.00534395      -0.10271244      -0.01443981
H        5.67912636       0.35839940       1.08734198       0.10359568      -0.06600067       0.06855745      -0.05476252       0.17437038       0.11029211
H       12.47592142      10.62932194      13.13735404      -0.56481060      -0.28448644       0.21737424      -0.00674040      -0.03270446       0.06892773
H        4.67410585       6.05992677      16.86532075      -0.24161302      -0.86935975      -0.16446488      -0.04491651      -0.10419383      -0.04466113
H       15.26977799       7.94281894      12.29958754       0.31069674      -0.10883401      -0.13034250       0.05208329      -0.07020695       0.07839587
H        5.67762558       1.74967593      14.80625292       0.14303701      -0.64806758       0.19642440      -0.07439463       0.06920825       0.15316551
H       14.06970092      10.38988165      12.34434182      -0.79500464       0.16750598       0.36300570       0.04483356      -0.00383804       0.27594852
H        5.22475721       7.79370130      16.76140998      -0.44314950      -0.58396303       0.34182615      -0.04979760      -0.04985702       0.07061802
H       14.56424144       6.38110488      12.26683660      -0.44709049      -0.60206583       0.04180586       0.06856599       0.15154894      -0.07221735
H        6.12481206       3.57050138      13.21696407       0.23296443      -0.01405648       0.03784522       0.05784298      -0.07665996      -0.16613312
H       14.83277063      12.20500218      10.64214687      -0.77115624       0.01871814       0.62655361      -0.00158862       0.14517529       0.02838714
H        4.12976831       9.33326888      14.26227233      -0.23145003      -0.22211416       0.08370623      -0.06905511       0.23349596       0.18861034
H       16.30307748       4.25482387      11.55796210      -0.27385081      -0.20021948      -0.18876513       0.17438087      -0.07787611       0.04418965
H        7.65396753       3.42617091      12.34421314       0.16164045      -0.09483336      -0.15343907      -0.05787193       0.16121337       0.09884242
H       13.84910019      13.65847553      10.80899086      -0.11225451      -0.35248153      -0.10453108       0.11339543       0.13634265      -0.05372096
H        2.63287432       8.90182645      15.17941189       0.94019614      -0.25008842      -0.61187050       0.19606873      -0.19881133       0.24537208
H       17.48116934       4.94120700      14.52666318       0.60165151      -0.07898764      -0.22806156      -0.22027430      -0.05850602      -0.22118991
C        7.18356477       1.83536687      13.50260433       2.41813216      -1.37689235      -1.46357955       0.31108645       0.41837040      -1.03810339
C       13.07427972      12.10323153      11.86532952       0.37622369       0.42791171       0.10897408       0.61509767      -0.13768015       0.31481859
C        3.31888929       7.45948798      13.91273279      -0.34232541       0.06462385       0.02102259      -0.49751735      -1.04314112       0.07209315
C       16.53545069       6.38429335      11.52738209       1.34355490       1.05657457       0.56852035       0.54700386       0.70540804      -0.15724172
N        6.46567369       1.20593251      14.39579800      -0.85870230       0.21163275       0.87606203      -0.01811568      -0.30236240      -0.37809043
N       13.16586357      10.92718189      12.46124892       1.62806848       0.21082220      -1.21756517      -0.03933252       0.18317846       0.72233579
N        4.65945017       6.97908692      17.28335180       0.65583890       2.02916242      -0.12941416      -0.84080992       0.18026561      -0.07537618
N       15.35538336       6.93808401      11.99963049      -0.81269963       0.31502312       0.58311093      -0.15739517      -0.24120723       0.21723764
N        6.97006924       3.01884973      12.98812764      -0.86505201       0.96913391       0.07228269      -0.08724134       0.38373735       0.42343274
N       13.95463603      12.64121534      11.03301331       0.14905836      -0.17975906      -0.05712255       0.49191402      -0.06652019      -0.31686581
N        3.41852503       8.63249556      14.53332633      -0.96235425      -0.26104386       0.36645855       0.22691897       0.48457860      -0.60599411
N       16.91704155       5.04482500      11.28934326       0.65117894      -0.70639067      -0.78351261      -0.53046194       0.25767724      -0.23030820
Pb       1.47808040       2.73179813      11.27401188       0.24822421       0.02620672      -0.07105899       1.11353158       3.71920909       0.57799430
Pb      19.02040219      10.53245925      14.09344855      -0.07705280       0.52786514       0.29017316       2.80286569      -2.10229179      -2.07810461
Pb       8.94131312       8.60937942      11.76714228      -0.29732801      -0.07056619      -0.22495976      -1.01369061      -2.86146818       0.88313973
Pb      11.15599435       5.03082994      13.59712623      -0.00061906      -0.04686395       0.20592987       2.12092627      -2.76615851       0.30093307
I       39.38245631       4.73446838      13.90740339       0.17565932       0.17104954       0.15465211      -1.38628947      -0.45326091      -0.85786310
I       39.43697410       8.65664214      11.98145353      -0.17056490      -0.12719257       0.02619326      -0.03915980      -0.58783598       2.73120245
I        9.95488481      10.51859936      14.02435896       0.26916064       0.42008037      -0.11654925      -1.36105110       0.77408637       0.89133051
I       10.17156892       2.97882219      11.47788883      -0.10744777      -0.03956302      -0.15455123       1.47911263       0.85750519      -2.18866222
I       18.06229785       1.35754541      11.90481450      -0.11446161      -0.07070856       0.14770078       0.62208649      -0.81084564      -0.85446325
I        2.65949894      12.17024265      13.44332568      -0.26964985      -0.03628072       0.15881648      -1.83458845      -1.01051632      -1.53442574
I       11.90216546       7.17656360      11.31668923       0.22492656       0.17717453       0.04115209       0.24611982      -0.03111666      -0.12464301
I        8.20904404       6.35085928      14.03951730      -0.05809075       0.13588644      -0.08571595       0.62224980      -0.36265191       0.57692829
I        4.41580270       4.15088786      10.86017949      -0.42265173       0.15988716       0.13240943      -1.98017533       1.23241027      -1.20278984
I       16.00039479       9.60528878      14.30433105       0.21499910       0.04490366      -0.09330409       1.28597864       0.04716076       1.88743213
I        6.08717362       9.89902436      11.90612698       0.03019110      -0.05681080       0.02893551       2.23642897       0.12752409      -0.69325978
I       13.94529783       3.59158742      13.36881160       0.30443926       0.22537886       0.07243047       0.42722185       0.31284701      -2.24691673
H        7.94379141       0.97145494      17.91228921       0.44290355      -0.21412708      -0.47313811      -0.11652095       0.13279058       0.03089854
H       12.44781641      12.27277513      16.75598928       0.45051679      -0.85210253      -0.24898208       0.10591426      -0.06243298       0.10558524
H        2.45647131       6.62924556       0.34566887       0.13439151       0.46364020       0.17238552      -0.00696736      -0.02128609       0.13002643
H       17.96249546       6.67583315      16.13193271      -0.40115583       0.03756042       0.54668612       0.12474998       0.12282747      -0.00375949
H        6.77598237       0.27731758      14.79054603      -0.43597731       0.32442995      -0.13458762      -0.14830652       0.04756180       0.01118719
H       14.04540577      13.46619713      15.41716470      -0.49809531       0.20937306       0.08710858      -0.02883991       0.04308720      -0.02925041
H        4.09815443       6.11020104      12.53011694      -0.14053355       0.48606356       0.25971753      -0.04977690      -0.04747535      -0.08770495
H       16.31691860       7.34281777      17.73989749      -0.07480971      -0.53815227      -0.38187139      -0.01101676       0.01339642      -0.05920872
H        4.97690326       1.99600797       1.30541440       0.00509099      -0.11616789      -0.20052627      -0.00915821      -0.07684739      -0.03330481
H       15.10182699      12.09139196      15.27967581      -0.15573862       0.03089269       0.21400486      -0.03169816       0.05610653       0.00638734
H        4.81345193       7.70816600      12.63107828       1.29445403       0.68465613      -0.61590581      -0.05349406      -0.01241126       0.19036750
H       15.21121468       5.96467450      17.24885802      -0.02450354      -0.08917833      -0.09517998      -0.17297099       0.09928650      -0.04280397
H        6.63339198       3.73643875      18.17228569       0.48260323      -0.69382298      -0.16174992       0.06027646       0.12273983      -0.08000219
H       14.52521488      10.07561158      16.79484871       1.26816802      -1.14179564      -0.54401974      -0.11763436       0.24828046       0.00750753
H        4.16241099       9.40884099      18.12838817       0.23112546       0.20903535       0.21168284       0.01181285      -0.08193413       0.04090918
H       15.80351415       4.63928448      14.97536533      -0.48040228      -0.61455692       0.18106862      -0.00097456      -0.04721517       0.26670268
H        8.08662740       3.13941885      17.24476783      -0.53282842       0.22070475       0.14825649       0.16502543       0.00429566      -0.05931182
H       12.90115575      10.03828042      17.47475956       0.05982632       0.34562539      -0.18492574       0.00771389      -0.00067757      -0.16977254
H        2.24563103       8.93646600       1.09097535      -0.05074095       0.10996193       0.05438715       0.09611219      -0.14088276      -0.08910430
H       17.89639111       4.76774883      10.87734272      -0.80720019       0.26876547       0.62303984       0.10004784      -0.18471212       0.04264714
C        7.18191001       1.67257962      18.23055721       0.05887887      -0.02464523       0.11093577      -0.17213045       0.67043008      -0.17215539
C       13.38161591      11.72188607      16.43643844      -0.20754339       3.00974259      -0.36572480       0.47012502      -0.33374143      -0.57091472
C        3.76472331       7.33300908      18.18950205      -0.01670795      -1.00110138      -0.02622810      -0.78450313      -0.13992211      -0.26143308
C       16.96539841       6.12668253      16.19142232       0.65679907       0.59859758      -1.01477427      -0.07388564      -0.43345712      -0.12845979
N        5.65614421       1.35573980       0.82018623      -0.85870765      -0.15298321       0.80165516       0.09672446       0.03030988       0.87665210
N       14.22775229      12.49630797      15.69245712       0.18671547      -1.43878382       0.31887799      -0.81762974      -0.18353833       0.90938106
N        4.11793793       7.06854555      12.94392511      -0.46230476      -0.91320983       0.11003140      -0.39301972      -0.26602484       0.10561784
N       16.06974165       6.51695222      17.06363307       0.29127799       0.64286551       0.62654639      -0.32730538       0.21603577       0.02453688
N        7.22354070       2.91380734      17.78967493       0.66571610       0.81305597      -0.47627418      -0.61597073       0.58470016      -0.74626778
N       13.61611472      10.52084122      16.88682294      -1.41266806      -0.06148686       0.78778525       0.15453401      -0.30284299      -0.19858716
N        2.98604127       8.73620464       0.41123125      -0.12365664      -0.33802847      -0.46556659      -0.39057996      -0.03610272       0.33822647
N       16.76466134       5.15097459      15.21585632      -0.67367808      -0.00776658       0.41330069       0.08319899      -0.14995240       0.39887921
Pb       1.59610749       2.66959174      15.81617510      -0.09064088      -0.15596209       0.05583911       1.50189453      -0.47271879      -0.99981906
Pb      18.45871044      10.83437046       0.49952676       0.17119706       0.43996568      -0.13842054       3.88139061      -0.28495308       1.80969058
Pb       9.40448791       8.55115292      16.31213073      -0.47820061      -0.18310662       0.13583789       1.25009500       1.73670370      -2.21297897
Pb      11.38799481       4.92985847      18.17874302      -0.15076209      -0.09471898       0.01423279       0.34707782      -1.23452356      -0.38816458
I       39.58647506       4.78501339      18.52648048       0.18572860      -0.04177885      -0.02368521       0.52444100      -0.68233650       0.97021914
I       39.31051459       8.57494717      16.73866120       0.17599909      -0.04486248      -0.32447886      -0.26078445      -1.07317955       0.28929901
I        9.58200283      10.77547256       0.22611854       0.21042686       0.01849263       0.19816604      -1.37540543       1.06633247      -1.36690186
I       10.51913444       2.81077674      15.86091942      -0.26215028       0.01442095       0.16362656       0.48397225       2.09740812       2.25959001
I       18.12760046       1.28502095      16.50124129       0.04175100      -0.26171716      -0.19151923      -0.16100552      -1.01592354      -0.36347065
I        2.78892790      12.13536279      18.19844273      -0.18352017      -0.06426052      -0.26273811       0.43681879      -0.46738674      -0.27928541
I       12.26651492       7.14881109      16.04978935       0.18151285      -0.03020839      -0.17409944       0.99034941      -0.27804414       0.25243718
I        7.63979722       6.59351017       0.27037895       0.05830111      -0.12850048       0.10212322       2.52590259      -0.90141018      -0.53628878
I        4.36238189       4.01757753      15.44138240       0.11363321      -0.05612186      -0.05519361      -1.83107956      -1.01910693       2.14097358
I       15.50010323       9.90158628       0.50762377      -0.01332376      -0.12380005       0.19649462      -0.80867659       0.83289636       0.37443135