768
Lattice="38.994998665037166 0.07106821782705662 0.35547318029268 0.20366633889610405 23.235525993811105 -0.050934670340891476 0.6633844787472418 -0.16287480069770385 18.246656201326342" Properties=species:S:1:pos:R:3:forces:R:3:momenta:R:3 energy=-3606.9760425669956 stress="0.0 0.0 0.0 0.0 0.0 0.0 0.0 0.0 0.0" pbc="T T T"
H        7.08908564      -0.28972239       3.20530003       0.45776635      -0.09234102       0.08579701      -0.21713725       0.13301165      -0.03151031
H       13.08008891      11.67859036       2.90282533      -1.05362959       0.14648116       0.60246636      -0.00340470      -0.21921635      -0.00008113
H        2.71673904       6.09881293       5.50301263       0.62716562       1.97125993      -0.35455661       0.05153654       0.10872229       0.19651376
H       17.34925820       6.40564595       2.51021173       0.75775571       1.13850411      -0.38436061       0.27615596      -0.30730552      -0.08140596
H        6.58444022      -0.52151792       9.72178711      -1.04612001       1.87795100      -0.43386636       0.27126044      -0.08243715      -0.05017485
H       13.02426149       9.58278704       3.74324314       0.77914524       0.04747130      -0.86488303      -0.39739246       0.18305434      -0.01192818
H        5.13923273       5.39086864       6.99836505      -0.28729894      -2.24351400      -0.84268851      -0.12046607      -0.03050549      -0.04817454
H       15.81970870       7.18724627       4.07844499       0.18478825      -0.07669653       0.22691154      -0.08618999       0.41343054       0.34185539
H        5.28763013       0.79580296       5.63815628      -0.44536004       0.00661330       0.31906286       0.04196900       0.11518269      -0.15927978
H       14.52520143       9.11796867       2.93848347       1.48687589      -1.17968131      -0.60655093       0.29605181       0.05894231       0.00427329
H        5.86918097       6.95168331       7.69876283      -1.36234770      -0.79687318       0.54358674       0.13289086       0.00899360      -0.01446129
H       14.94825004       5.58396262       3.90989028       0.72714572       0.83492791       0.31678849       0.19705216      -0.38848545       0.15404968
H        6.29834042       2.79240700       5.17000772       1.26516650      -0.20368383      -0.52180450       0.22640364       0.34058751      -0.02543209
H       15.56409474      11.41779180       1.34619402       0.61203217      -1.28638461       0.13727279      -0.13998021      -0.36251369       0.10564495
H        4.28067301       8.82210958       5.40734365       1.04623965       0.88011985      -0.91910178      -0.39672785       0.13910239       0.15474756
H       15.72605017       3.98443724       2.20763845       0.96886826       0.39214531      -0.17038826       0.18551833      -0.12042947       0.22191741
H        7.60317993       2.56471493       3.73595870      -0.30262893       0.10904241      -0.01459028       0.01167651      -0.17947894       0.11715600
H       14.55735149      12.82115997       1.84747744      -0.06262325      -1.56897988       0.17802258       0.38526462      -0.12874460      -0.25750524
H        2.50791089       8.72954338       5.85733806       1.53402400      -0.63087573      -1.06334693      -0.21572465      -0.12711444      -0.14646560
H       17.74782108       3.93700045       6.47244413       0.73698905      -1.23746934      -0.96773948       0.44723902      -0.14730636      -0.12716058
C        6.61370161       0.56119047       4.06327111       0.17879795      -0.78578594       0.94572999       0.29777411      -0.78362389      -0.68370344
C       13.84751001      11.00301878       2.59841216      -0.03008044       0.18816949       0.42929312      -0.86681451      -0.39692752      -0.54530734
C        3.47632223       6.92297123       5.18485243      -0.94609996      -0.47801154       1.75435530       0.34804955      -0.93952542      -0.07457149
C       16.53125207       5.80008060       2.78947910       3.34896724      -2.32872069      -1.85325609       0.49058253      -0.85708496      -0.73304114
N        5.72262592       0.01256102       4.85420326       0.60405384      -0.55621658      -0.05356962      -0.17114638      -1.03795169       0.26410999
N       13.80069682       9.76354095       3.02540399      -2.10248122       0.92821501       1.17570472       0.10690133       0.38003898       0.37209535
N        5.07899802       6.14145852       7.72688902       2.35038579       1.58316921      -1.07273060      -0.80933006       1.22422577       0.45275575
N       15.83117108       6.18122014       3.79170062      -3.54472632      -1.36209352       0.65016785      -0.30482246       1.25952509      -1.59713151
N        6.90529326       2.11032524       4.34354546      -0.50152466       1.70678734      -0.84288337      -0.83903014       0.72652440      -0.52477472
N       14.67253732      11.67887934       1.83734329       0.26521654       2.68426877      -1.10665099      -0.31356652      -1.25827980       0.24625992
N        3.41060723       8.29348470       5.39020734      -3.81864147      -1.01443633       2.53102700       0.83997642       0.58776261      -0.23576964
N       16.62903409       4.57757746       2.22923849      -2.84839685       0.66277219       0.61615626      -1.33573590      -0.10407088       0.25492720
Pb       1.86468865       2.32986511       2.22038845      -0.36842724       0.18869645      -0.39393835      -3.80069987      -4.18464199       0.20726524
Pb      19.17249145       9.68555809       4.83262830       0.42312645       0.38669595       0.50110968      -0.22937274      -4.91216512      -0.97202618
Pb       9.29809640       7.76924967       2.58282163      -0.00518049       1.03084842       0.50791877      -1.25581667      -5.49708616      -2.25927729
Pb      11.55315128       4.27494631       4.46594877       0.41243666       0.15059869       0.09766872      -6.85560501      -2.80211243       2.92815505
I        1.07573421       4.53609032       4.33248289      -0.15556171      -0.22485652       0.31855051      -0.32025147       2.35454232       6.96217280
I       -0.06115877       8.11712474       2.81450637       0.30979749      -0.37835173      -0.59291883      -3.77112631      -3.00761494       5.58850235
I       10.94339906       9.63615765       4.95040139      -0.49002170      -0.14839544       0.08340390       2.41425960       0.70099361       4.45457098
I       10.27645609       2.57787118       2.07255615      -0.57863905      -0.46546998       0.73770461      -2.40165216       0.84911702      -1.24945457
I       17.83509866       0.49371413       2.62020053      -0.05106685       0.44847166       0.42562679      -1.36859004       0.85890179       0.02862072
I        2.68215728      11.09248540       4.32291486      -0.26066617       0.87378354      -0.16850916       1.00745924      -1.93262792       2.79299374
I       12.36314633       6.71731974       2.31817098      -0.19352003      -0.48365715      -0.06105010       4.00888631       5.07127985      -0.20019580
I        8.59952942       5.73145631       5.08956126      -0.42320425      -0.44291995      -0.20588062      -1.58755690       0.52359678      -0.40651233
I        4.91383056       3.43918652       2.29670049      -0.41378594       0.07741223      -0.11021349      -0.72242301       1.22696900      -2.50123354
I       16.38344502       8.75204336       5.29403733      -0.07750629       0.02483597       0.43842244      -3.19123203       1.28493432       0.42997436
I        6.51290556       9.58995750       3.52111725       0.17587236      -0.83728861      -0.27539602       3.56704734       0.74227260      -0.34978490
I       14.32405963       2.86534259       4.43980255      -0.15132148      -0.01284948       0.24351290      -3.61573901       0.84581380       2.79060646
H        8.03542598       0.05721350       7.82188468      -1.82964537       0.81955509       0.90673482       0.64111573       0.33291589      -0.27051536
H       12.46581784      10.95291756       8.01453006       0.85625436      -0.67302930      -0.76750233      -0.04468629      -0.11749499      -0.26725777
H        3.24210818       5.33091179       8.54866101       0.14282705       0.17259446       0.46573057      -0.27856329       0.33068366      -0.00109776
H       17.28046009       6.19960869       6.72688941      -0.72121353      -0.39500925       0.34366093       0.28986423      -0.14850372       0.40181517
H        5.70315500      -1.05594878       4.90687539      -0.29782070      -0.33368836       0.06657791      -0.35486365      -0.49724578      -0.21510854
H       14.00555699      11.72007486       6.35007110      -0.29905186       2.56541785      -0.57173296      -0.05834810       0.41285123      -0.35231882
H        4.77141588       5.37386285       4.35389892      -0.09269629       0.15747097       0.18105736      -0.54926600      -0.04291303      -0.04226166
H       15.83735147       6.66378294       8.55754620      -0.26957225      -0.13748029       0.05563633      -0.33490382      -0.03347302       0.13552801
H        6.08166203       1.40707400      10.13931558       0.00892857      -0.76601739      -0.08207875       0.23318084      -0.07682888       0.23221742
H       15.36879450      10.60893459       7.12130614       1.02964476      -0.58120143      -1.16572930      -0.10753670      -0.08994001       0.05920670
H        5.31376442       7.16719480       4.46061223      -0.80428702      -1.44115948      -0.11388260      -0.10109420      -0.14020381      -0.36616079
H       15.32939836       4.84258079       9.00447674       0.37970644       0.13956069      -0.29219084       0.39254564      -0.02603906       0.24706344
H        7.08736618       3.04380778       8.80063792      -1.53163786       1.31896703       0.46371859       0.22207608      -0.03020981      -0.16472762
H       14.57031584       8.83929660       8.56018463       1.20754661      -0.63646966       0.00023459      -0.05848093       0.00795203      -0.04787208
H        4.76166317       8.00515496       9.51635857      -1.16442949      -1.36949775       0.35206830       0.02313541       0.00431627      -0.13407568
H       16.62769892       2.95735805       7.80862602       0.32639280       0.33335767      -0.00458675       0.22592178       0.00572995       0.09334808
H        8.37117771       2.47452732       7.76470280       1.24383678       0.90911857      -1.46826384       0.07160720       0.25487571       0.24431541
H       13.16629213       9.12134706       9.45397827      -0.74781933       0.18992040      -0.10124583      -0.13439123       0.07017601       0.19125425
H        3.36692918       7.20577154      10.44882691       0.58319429      -0.12339028      -1.02615937      -0.21110224      -0.26183830       0.00475698
H       17.06642817       4.54206724       1.12043689       0.69417170      -0.08936075       0.42594589      -0.20092747      -0.08219121      -0.35226785
C        7.35748003       0.85573325       8.48499860       1.22280517       1.26905368      -0.91917143       0.25032365      -0.31007072      -0.58358084
C       13.48963893      10.43682017       7.84508020      -2.50070583       2.88967804       1.64334930      -0.07035183       0.82613197       0.72533672
C        4.06936857       6.14560397       8.64895809       0.14225823       2.24370226       0.64149985       0.18644856       0.29967131      -1.13066654
C       16.74172107       5.27338791       7.39714527      -1.18382768       2.33135926       2.42163626      -0.00432686       0.39886013      -0.68715605
N        6.46465689       0.49208410       9.37955943       1.35522427      -1.95776629       0.58682826       1.23746737      -0.42329479      -0.68239209
N       14.32497241      10.99279994       7.03059828       0.16965134      -1.60044064       0.39148361       1.21697702       0.81367527       0.40079621
N        4.60776243       6.36578925       4.70058714       2.97806267       0.73521152      -2.28680679      -0.64073542      -2.00734859       0.42112050
N       15.84309913       5.62735452       8.35258774       1.37919682      -0.20911600      -0.99304580      -1.28361017       0.92876533       0.11022453
N        7.56148688       2.25115041       8.27696977       0.31307929      -3.48514285       1.26283546       1.51983201       2.80663319       1.69865004
N       13.80853876       9.44555293       8.71778838       0.37354329      -1.39012335      -0.04512548       0.69834725       0.47049302       1.55749659
N        4.05009675       7.18992304       9.56424697      -0.44949226       0.54184648       0.86575638       0.19282481       1.57436478      -0.36488761
N       17.06713488       3.90292157       7.28402855      -0.52702448      -0.92401959      -0.75368117      -0.21891418       0.20705417      -0.85709026
Pb       1.21162171       1.98250718       6.61309234       0.15507175       0.28741857       0.26376859       2.74052054      -3.63462894       0.56117074
Pb      19.33928396      10.18478505       9.35086136       0.16554764      -0.16943400      -0.33698992      -0.07529697       4.41216390       2.33306159
Pb       9.43332301       7.48480829       7.22113604       0.56932810       1.06310141      -0.30213356      -2.66012177       0.39856176       0.76542526
Pb      11.50214359       4.46050213       8.85284003       0.39923441      -0.30618346       0.55436545      -2.24971926       1.00611538      -6.09524944
I        0.79274797       4.42560449       9.09476566       0.48303285      -0.90948154      -0.20040861      -2.20368815      -0.76378437      -1.71844837
I        0.49080801       8.08645567       7.02880746       0.10539761      -0.33566760       0.00105675       0.02976373      -7.98229132      -1.35670765
I       10.69689377      10.03922500       9.24814869      -0.51101382      -0.20853879       0.50643305       3.72784227      -0.15637803       0.30176149
I       10.40750592       2.38147303       6.88273931       0.32419562      -0.22047728      -0.49024479       0.65556238       5.89189356       3.30221134
I       17.95810248       0.36494693       7.68625696      -0.17255054       0.43069861      -0.44797149       0.32276562       1.00470215       1.08551890
I        2.85011223      10.95808587       8.85793483       0.15553788       0.00181311       0.36257914       4.55401336      -1.83948573      -1.46034069
I       12.79794470       6.43827019       6.83695019      -0.22993087      -0.14955896      -0.27409267       2.19064245      -6.33010148       2.05015492
I        8.48091200       5.76520427       9.49007480      -0.04486091      -0.43357379       0.11090416      -1.83867175      -0.25007612       1.97999109
I        4.36488367       2.78304648       6.20482302      -0.11305570       0.38032595       0.38330241      -0.74932795       1.90321491      -0.01692039
I       16.76347778       8.60631264       9.99892173      -0.40939159      -0.02175109       0.05541436       0.02654042       0.07907077      -0.32626130
I        6.83233538       9.25013442       7.48024874      -0.11554711      -0.20710480      -0.10513788      -0.37356372      -0.10494539       2.72575629
I       14.22053196       2.28863903       9.01596445      -0.23206294       0.73082417      -0.00020320      -1.24187961      -0.49199477       1.65018524
H        9.22581267       1.07218827      13.74369580       1.11892710      -0.39647591      -0.37977500      -0.12250248       0.23679702      -0.35590050
H       13.02879002      11.43594798      12.16979673      -0.04370916       0.29314509      -0.11775767      -0.09156324       0.17282293      -0.05029305
H        3.16911006       5.75804317      14.83367124       0.36620501       0.42894627      -0.25149178       0.06389142      -0.08026977       0.11047469
H       17.89708156       6.03939543      11.13855561       0.75454992       0.25309747       0.16217810      -0.12816829      -0.13626343       0.42545559
H        6.59607840      -0.99221427       0.71228702       0.21510300       2.02404944      -0.84945845      -0.16243116       0.39354122       0.19759891
H       13.41986628       9.20291166      13.13766390      -1.37864846       0.32503847       0.65298280       0.27604514      -0.17701696      -0.24715699
H        4.56519462       5.79641346      -0.48706655      -0.62989385      -0.81933333      -0.01809753      -0.16557641       0.33508380      -0.40923582
H       16.05795508       6.35817883      12.45909130      -0.77147213      -1.32537295      -0.01240345       0.05522600      -0.10568273       0.48518961
H        5.68706226       0.70438371      13.78506007      -0.34144277       0.16736501       1.06041792      -0.28856952       0.34525452       0.59313208
H       14.95180873       9.19615620      12.38490661       0.09210191      -0.22252503       0.26127400       0.21417019       0.02787734      -0.26234063
H        5.02132466       7.47356095      -0.33634138       0.91098079       0.86922476      -0.66516142      -0.35426383       0.03873063      -0.02060010
H       15.44154135       4.50129335      12.24145632       0.45444454       1.40188112      -0.27877949      -0.00510904       0.18083629      -0.00786411
H        6.47843770       2.83974954      13.11864909      -1.71203249       1.01663950       0.89217543       0.07837127       0.23668923       0.01950308
H       15.79655175      10.80144005      11.14119731       0.37226666      -0.14902969      -0.10401993      -0.23357773      -0.31972406      -0.02540065
H        5.15624454       8.01459670      14.62025254       0.36030846       0.27009598       0.12315554      -0.57589913       0.00906181      -0.10706726
H       16.81522650       3.14405778      10.11682758      -0.15408753       0.88608998       0.44354027      -0.47657981       0.25559744      -0.12074721
H        8.36953467       3.19128686      12.90079588       0.78808405       0.34572920      -0.72178961       0.02186059       0.05150685      -0.54002110
H       14.89162155      12.20630983      10.84077397      -0.56542101       2.31613620      -0.68768593       0.03017822       0.06368301      -0.04289681
H        3.90920848       7.74192430      15.99248920       0.25496429      -0.16065228      -0.51622207       0.23452707       0.29710192       0.08979529
H       18.14257574       4.21508797      14.82363190       1.15328071      -0.47551110      -0.26390636      -0.09619512       0.09106014      -0.23235925
C        8.03320138       1.32317354      13.68180832      -2.96887575       0.63094721       1.72328701      -0.37773284      -0.69219057       0.40385575
C       13.97749441      10.87991081      12.03158641      -1.05872333       1.10098748       0.95772266      -0.22702666      -0.26255760      -1.12538864
C        4.00470820       6.36188089      14.34895485      -1.00047095      -3.74631426      -0.00341307      -0.96891783      -0.27946957       0.29771496
C       17.17774847       5.20362601      11.23010700      -2.78380700      -0.72792410      -0.98291064      -1.02210945      -1.09644613      -0.78170052
N        6.94265504       0.45317705      14.11821190       0.27037669       0.30336041      -1.14723038       1.50380915      -0.90412899       0.25787695
N       14.13334729       9.75548628      12.66248389       1.56898128      -1.77175097      -0.81091002      -0.46031720       2.20531160       0.30411373
N        4.32078356       6.76754509      -0.14532341      -0.82425270      -0.09149673       1.47147730       1.60193866       0.10106435       0.76494124
N       15.94439539       5.48217609      11.83038149       1.33372632      -0.61692027       0.40091811       0.09408330       0.07298157      -0.01058168
N        7.59057476       2.56970323      13.28247116       2.38446143      -2.18905687      -1.13332957       0.67093709       1.01092158       1.09138788
N       14.97950915      11.38146528      11.35669576       0.66684711      -1.37391482      -0.25662116       0.45096862      -0.30393158       0.22248083
N        4.42934327       7.40581393      15.07432366      -0.48742765       2.51059208       0.98934697       0.06372285      -0.23186326       0.29445686
N       17.39777148       4.12099447      10.37502469       2.49384821      -0.13822233      -0.67457096       1.38934609      -1.41859698       0.59672463
Pb       1.77183057       1.57000228      11.11201635      -0.26293195       0.88998466       0.30178299      -0.51046547       2.29661298      -2.40120005
Pb      19.08571735       9.85118893      13.83232138       0.35040057       0.21614391       0.19798239       2.06268893      -2.32852919      -1.72593247
Pb       9.44020214       8.21982221      11.65644560       0.49109531      -0.60607879      -0.31170419      -2.87390638      -3.15882737       3.35082081
Pb      11.74122972       4.63056270      13.50849832      -0.14618545      -0.18112829       0.04791064      -0.03224315      -2.54993579       0.42148984
I        0.98470747       3.95984520      13.51741688       0.32806244      -0.28182638      -0.17126067       0.32518985       2.50548757       1.29727330
I        0.86391522       7.75077783      11.50813530       0.53325063      -0.39168089       0.05550601       1.34742213       5.63301964       2.01970830
I       10.54288211       9.71251906      14.01040167       0.40109094       0.42353007       0.05447638       3.74418079       2.58796030      -1.26852960
I       10.83198494       2.40226320      11.40535338      -0.21314939       0.05541068      -0.00887787      -0.57873875      -1.39754678      -4.29996103
I       18.21989753       0.76380074      11.60273062       0.47347925      -0.25783271       0.27854996      -0.57630383      -7.60816958      -5.86059416
I        3.47746970      11.43475298      13.67244849      -0.26832274      -0.66138031       0.27300637      -0.36761782       1.25384997      -0.54501085
I       12.55851279       6.81141213      10.95009219       0.01998536      -0.43980434       0.43398298      -0.81812375      -2.95239751       2.48900810
I        8.64338564       5.73809048      13.61621343       0.03257536       0.21437776       0.46891348       5.59337097      -0.73476043      -3.54286396
I        4.63922101       3.20591194      10.91047310      -0.23656466      -0.31193039      -0.00850795      -0.59060739      -0.80249666      -4.49561026
I       16.73544255       7.73103572      14.50580020      -0.34741643       0.26930611       0.06264868      -0.33413617       2.71248049      -1.19424218
I        6.48821970       8.58489151      12.34718449      -0.41186041       0.82316919      -0.38923505      -0.04042835       2.89465379      -2.12756784
I       14.49786288       3.14253597      14.27298942       0.20057623      -0.16416842      -0.36997986       3.15868854       0.57722591       0.96484511
H        7.96278387       0.71493781      -0.46474366       0.13947053      -0.22010848      -0.38655123       0.06781957       0.12623471      -0.26231148
H       13.72318902      11.73088280      16.44548405       1.95431410      -0.87665199      -0.96662680       0.01867818      -0.11456838       0.02483499
H        2.71519286       6.20793073       1.15121938      -0.20647309      -0.68646776       0.18999683       0.21331642      -0.00030591       0.51662761
H       18.17186237       5.96801628      16.72516692       0.22688408      -0.31846456       0.07498710       0.22140660      -0.04042535      -0.27366183
H        7.00579606      -0.48733503      14.51378419       0.59137117      -0.07463110      -0.30814791       0.08806741       0.00580791      -0.34866595
H       15.51546031      12.41743754      14.91671989      -0.05686804      -0.79554387      -0.12348790       0.31669433      -0.02909620      -0.37148858
H        4.27234862       5.02152792      12.50497504      -0.13965595       1.53451127       1.13811025      -0.08170586       0.11823904       0.20937381
H       16.01393950       6.08577199      17.95129273       0.41547782       1.39036355       0.94826864      -0.27558956       0.11843246      -0.16305792
H        5.67901377       0.45632925       1.53650093      -2.18339944       1.51640429       0.53473211      -0.21230335       0.27353055      -0.06560170
H       15.86553082      10.49836589      14.37770748       0.17925684      -0.03592414      -0.13525399       0.12400898       0.19585072       0.10965546
H        5.18557222       6.54170561      12.68048084       1.10937438       0.03002614      -0.39704819      -0.05680188       0.20912793       0.20326230
H       15.59635852       4.27074837      17.34449306      -0.73702301       0.73027131       0.54855514       0.04938181       0.39062828      -0.11765408
H        6.40505419       3.13633643       0.89363503      -0.53479439       1.30010169      -0.56553480       0.18642347       0.02195132       0.24033391
H       14.62240673       8.69853107      15.73965607      -0.36572877      -0.20728928       0.06101704      -0.31311835      -0.17971362      -0.25851451
H        3.62505017       9.13572526       0.81688067       1.34424232       0.78685502      -0.15944418      -0.14094832       0.10380924       0.31428020
H       16.60038831       3.49520142      15.20239670      -1.14313540      -0.79664874       0.31051148       0.30558140      -0.10915683      -0.18511027
H        7.67947224       2.95510730      -0.56877629       1.36379000       1.34035085      -1.11834220      -0.57913561       0.25068434       0.28988364
H       13.15822864       9.49908468      16.68530168       0.88662039      -0.63513109       0.06668182      -0.07517360      -0.51185876      -0.18605942
H        2.45653261       8.46671980       1.99842540       0.21451708      -0.70073135      -0.74568291      -0.12509783       0.04699466      -0.00683317
H       18.49032916       4.14259089       9.93220227      -1.26516511       0.07401668       0.96440784      -0.01126053      -0.32870991      -0.25119610
C        7.11894686       1.19780831       0.14026794       2.95400545      -1.81623942      -1.73272272       1.52251693      -0.61904901       0.04840822
C       14.37699704      10.86457258      15.82888448      -0.30520162       2.91909764      -1.49882494      -0.07474173       0.90948811       1.08722430
C        3.40088260       6.99683202       0.81462715       0.04079983       0.45518596      -1.10869420       0.14861079       0.28897280       0.08280786
C       17.37264756       5.13372624      16.65360974       0.41530870       0.50829477      -2.84442837      -1.09529961       0.59929881      -0.31129146
N        6.39922260       0.17626717       0.78373009      -0.12620189      -2.69333813       1.92756785       0.03478650       0.06742073       0.38557994
N       15.25467530      11.22875968      14.82158113      -2.02651965       0.11471119       2.39298834      -0.61503048      -0.21040793       0.82992089
N        4.58926726       5.85802924      13.21305910      -0.51691646      -0.83195426      -1.28020033       0.62542486      -0.69243558       1.41120591
N       16.21823001       5.24988093      17.34201728      -1.02296095      -1.76087861       0.86019224       0.54298999      -0.18715838       0.40127250
N        7.07050432       2.59824479       0.11311106      -1.93527136      -1.36960760       2.13718903       1.04769399       2.85958894       0.12511163
N       14.07609942       9.55389614      16.11038206      -0.62390895       0.12120749       0.49737504       0.07302196       0.82733124      -0.49863215
N        3.14892469       8.27574668       1.21308131      -0.87219496      -0.25558219       1.07795307      -0.01654239      -0.05278362      -1.71237157
N       17.41641559       4.17903462      15.58271398       1.02088886       0.98077474       0.35138363       0.19770873      -0.60641476       0.81988589
Pb       2.62843106       2.06778292      15.62443840      -0.94942397       0.31403767       0.49214500       2.63099987       0.84765284       1.89558443
Pb      19.31988677       9.77937033       0.06357480      -0.17137254       0.37661317       0.00405005       0.86145562      -2.84546071       1.13663356
Pb       9.68797979       7.67912201      16.11468741       0.37972426       0.06834731       0.63010529       5.99421107      -2.02728343      -1.56716965
Pb      11.52689939       4.38633190      18.33739429       0.60450761       0.00812260      -0.34867897      -1.44307927      -6.04314907       4.06388896
I        0.42010422       4.13892788      -0.07844097       0.24515340      -0.07909064      -0.13640475       0.03126735       3.82942682      -3.05333855
I        1.38585881       7.76259419      16.48304897      -0.29590212      -0.13792184       0.12226084       0.43603868      -0.01529957      -0.38295967
I       10.44778599       9.89762240       0.48689130      -0.11451699      -0.42606321      -0.74782089       3.32707848       1.37553602       1.35868940
I       10.39606555       2.45848229      15.87251103       0.38561893       0.37149414      -0.07494047       4.15562880      -0.24753091      -2.75673307
I       18.73224190       0.75977720      16.48710008      -0.25345310      -0.45699800      -0.29645733      -0.79084966       1.89755675      -1.83601703
I        2.89204956      11.45710940      18.26013082       0.03041040      -0.27399435      -0.07841033       0.25915338       0.13289882       2.33471507
I       12.78845551       6.38905708      15.96128279      -0.00786278       0.19410424      -0.03152642      -0.79439160      -0.99570627      -5.52628712
I        7.86957771       6.07530091       0.61929850      -0.00919838      -0.38216162      -0.50649113       2.03913787      -0.68374620      -5.75166157
I        5.23197928       3.39724606      15.94705852       0.00799937       0.12373138      -0.04853918      -1.62491549      -0.60290836       1.81112536
I       16.42915764       8.82849118       0.52335399      -0.12117794      -0.22701705      -0.15284391       0.49060327      -3.59985360      -2.22688109