768
Lattice="25.244031463055336 -0.051139010145229986 -0.15563925591508607 -0.008975214029691772 25.575374942549175 -0.11406019386377196 -0.3474594723078396 -0.009706484009668169 25.26731789926129" Properties=species:S:1:pos:R:3:forces:R:3:momenta:R:3 pbc="T T T"
H       10.46974193       8.16413101       3.78019811       0.15434257      -0.02748376       0.11792113      -0.00894037      -0.11470151      -0.05781285
H       10.01639079       1.82095995       2.13356512       0.22440168      -0.29090990      -0.36772753      -0.09182504       0.15364606       0.07663551
H        9.47380454       2.05652409       9.16488363      -0.59585967      -0.68775362      -0.01792269       0.00121238       0.23865633       0.08494108
H       11.17157830       8.43760443       8.96534937      -0.06400804      -0.27208575      -0.13314093      -0.04182218      -0.24376520       0.06823651
H       12.42929738       8.60371188       2.65647021      -0.22722507       0.29914798      -0.15276692       0.01339326      -0.04285992       0.16644585
H       11.99963123       3.12295409       1.98305280       0.30493050       0.26364282      -0.13266817      -0.19330889       0.06044014      -0.08032432
H        2.06176925       9.83919612       9.53430288       0.49635248      -0.30421157       0.13732790      -0.02703197       0.04999645       0.07537314
H       10.48528170       8.40515590      11.14690113      -0.21014790      -0.19391778       0.75319714      -0.11143986       0.05595154       0.01521716
H        5.16339749       3.66074433       1.42964091       0.04449780       0.03375022       0.11149558       0.05602474      -0.11657729      -0.01797033
H        3.63350566      10.43541736       2.04267376      -0.50707229       0.75705919       0.10497484       0.08019296      -0.01497396       0.01924517
H        3.07739983      10.67867819       8.41879659       0.08486433       0.93244998      -0.95290190       0.05568649      -0.07654394      -0.08748475
H        9.71252432      10.13521188      11.22198888      -0.10034538       0.00833586      -0.04584749      -0.17047350       0.11332476      -0.15597081
H        4.73029004       4.24438332       3.91601446       0.18458107      -0.06816580      -0.17989719      -0.14512573       0.08810251       0.04332074
H        3.05200152       9.87244486       4.67062576       1.09569151      -0.77984269      -0.85603040       0.11002086      -0.26481224      -0.12264879
H        5.52895758      10.11673946       8.37311439       0.50219477      -0.21171948      -0.07048343       0.14616398       0.20191676      -0.06211790
H        5.09174842       4.43226772      10.35179293      -0.10662472       0.03310619       0.18612274       0.08649610      -0.03513173       0.06485092
H        8.76848496       9.79776820       3.89609218       0.13226887       0.03567432      -0.33544720      -0.04791991       0.06434335      -0.01862017
H        4.00099239       8.55747884       5.23441418       0.24420384      -0.01317609      -0.30512689      -0.26018600      -0.12873574      -0.00361830
H        9.31502547       4.16865492      10.52505560       0.49840959      -0.30473064      -0.87666517       0.11005357      -0.19660802       0.02806733
H        6.14457244       3.77198981       9.06106128      -0.77873244       0.08266199       0.17425857       0.05506144       0.11974777       0.02621710
C       10.56653153       9.11582514       3.19955142       0.01457816       0.62692125      -0.49757691      -0.20925366       0.62630513       0.15273551
C        4.49385433       9.06334282       3.32129701       1.32529398      -0.83260932       0.45504433       0.78902752       0.18384395      -0.71314025
C        4.12403712       9.30011038       9.52879298      -0.82539419       0.02712921       0.69765288      -0.34074534      -0.65009756       0.15751083
C        4.16217086       3.05704760       8.98400500      -0.25321046       0.62741972       0.01828662      -0.22926409      -0.40760176      -0.27271387
N        4.54788549       2.86384893       1.65198613       0.21885187       0.19494409       0.07536948       0.11690781       0.79680587      -0.03993055
N        4.37836892       9.75473141       2.22422606       0.88604680      -0.37748602      -1.97837698       0.09395420      -0.23606932      -0.15281028
N        3.01421475       9.96596947       9.10880426       1.15915836      -1.12142293       0.33379634       0.07449192       0.40788893       0.36003194
N       10.20692008       9.30064377      10.64813502       0.02753053       0.37662329      -0.25789164      -0.12824046      -0.39225138       0.42349186
N        4.20966294       3.34484247       3.92440368      -0.43066506       0.25657279      -0.00473330       0.06833271       0.05082272      -0.11595348
N        3.83846311       9.20369409       4.44181878      -1.38360759       0.70586748       1.20803492      -0.76090358       0.38626286       0.15528955
N       10.02635020       4.04184271       9.72939072       0.06551788       0.25246917      -0.20130006       0.48369320      -0.08613007       0.77579205
N        5.17995205       3.82057985       9.50133531      -0.13563017      -1.01445819      -0.54608631      -0.18252033      -0.46670246      -0.07630735
Pb       6.94155777      25.55073125      12.40935146       0.26920040      -0.08917612      -0.00083529       1.11158576      -0.44437395       1.78312685
Pb       0.74867984       0.03931697      12.45490720      -0.17511417       0.06472812      -0.05061722      -0.35611328      -1.14052735      -1.74922631
Pb       7.12564173       6.31538576       6.40465194       0.24045071      -0.07328313      -0.16971824      -1.44925864      -0.34137278      -0.07664187
Pb       7.29829962      25.49744076       6.06544902      -0.18180943       0.03304970       0.04046627      -0.03434967      -4.04066036       1.69045623
I       10.18698592      25.32185155      13.09434512       0.08035379      -0.22229883      -0.06170388      -0.06083939       1.11785547       0.95541674
I        3.87189495      12.77700995      11.98000012       0.10908584       0.08874716      -0.09499177      -2.41571478       0.93447522      -0.83197074
I        3.90949992      25.13300549       6.58336792       0.58026652       0.11702247      -0.03516247      -0.73598147       0.67175266       0.79614331
I       10.41446724       0.03544785       5.49784698      -0.17106695      -0.00409360       0.00493609       1.90082881       0.88572464       0.04669149
I        6.92357267       9.52651990      12.57698647       0.07056752      -0.09856506      -0.02870237      -0.16958866      -1.07027855      -0.50641411
I        7.42752274       3.07630883      24.87077950      -0.11086832       0.30644766       0.09156645      -0.67887196      -0.06423518      -1.04712912
I        6.93330991       3.05485772       6.42653512      -0.01487036       0.19180901       0.06682455       2.62763283       1.45016721      -0.42232281
I        7.48044910       9.51757141       6.00309645      -0.02613883      -0.12216927       0.04026281       0.07572765      -0.02318788      -0.88882423
I        6.87410668      13.06586355       2.97326010      -0.14518890      -0.11633743       0.02404316       0.16975679       0.36033810      -1.02027278
I        1.68896308      25.14130071       2.85608063      -0.07562501      -0.04397519      -0.05835130      -0.26940793       1.36782869      -0.14660552
I        0.35302665       0.36395199       9.24550390       0.05162633      -0.12996714       0.06485211      -0.49471182       2.03794685      -0.53134034
I        7.65877162       0.03424982       9.37600530       0.12477918      -0.25089254      -0.06556118      -0.91652382       1.15076028       0.77737942
H        3.37134707       1.74570946       2.93107205      -0.27974922      -0.25080471       0.12292751      -0.00561171       0.08658288       0.13083247
H        5.34638689       8.32119025       3.29002694      -0.85260862       0.40549928       0.34341691      -0.15062125      -0.00640900       0.13612711
H        3.91953258       8.59331710      10.34104896       0.24290866      -0.31396412       0.05928774       0.21528606       0.00170404      -0.01107249
H        4.29763905       2.53337449       7.95696063       0.26274931      -0.16499452       0.31797293      -0.11056571      -0.03344267      -0.23892603
H        4.46336693       2.11613041       0.97132762      -0.16529885      -0.27811046      -0.58261273       0.06714096      -0.08911647      -0.11447129
H        5.02119189       9.47648052       1.40739536      -0.86230825       0.40670348       1.01103858      -0.10610901      -0.16238122      -0.04847191
H       10.86298755       1.72477555       7.33579165      -0.06346700       0.04612433      -0.18539758       0.06062662       0.02071320       0.01003015
H        2.21059894       2.26921897       9.13450754       0.43247160       0.68008438       0.26068490       0.05456302       0.09120539      -0.10875424
H       11.97632335      10.14595927       1.93890958      -0.58165328      -0.10535437       0.45365649      -0.00656774      -0.00149923      -0.16989828
H       11.40703554       4.41151001       3.16075000      -0.05190044      -0.33220124      -0.22907383       0.02732064       0.19034345       0.04230995
H       11.45339545       3.47372650       7.37593551       0.55739488       0.52830813       0.37969207      -0.05112765       0.22734598       0.08209275
H        2.77744451       3.48799657      10.41599051      -0.53889230      -0.38028140       0.09538252       0.10216900       0.03912600       0.09023732
H        9.57782731      10.85624611       2.69244899      -0.18693783       0.27502687      -0.17713516       0.17351582       0.01781554       0.18851248
H        8.89887102       3.95207540       4.01776905       0.04028933       0.23112585       0.19510146       0.11112348      -0.16611622       0.01315610
H       10.64909800       4.86224371       9.53912117      -0.13393000      -0.12834013       0.12402685       0.05562336       0.15917198      -0.09308311
H       10.03945905      11.41762460       8.78916035       0.12910993      -0.59266345       0.13147064      -0.06424337      -0.16399847      -0.16121384
H        3.52729355       3.21546572       4.68130274       0.07699443      -0.00814653       0.28649422      -0.11742743       0.17645269       0.00703182
H        8.22638750       2.43862010       3.27129630       0.32298547       0.77561198       0.63105539      -0.09870673       0.11094728       0.07810626
H        6.24214257       8.85674554       9.43726791      -0.82300736       0.32165381       0.02679906       0.20353740       0.01422412      -0.14377320
H       10.84858863      10.17851450       7.56019669      -0.46233987       0.41130199       0.80377136       0.10999863       0.08389511      -0.17564898
C        4.01109697       2.62793458       2.84109377       0.48899195       0.40483994      -0.02608114      -0.19945539      -0.39013126       0.22970434
C       10.09794209       2.77825401       2.71171724       0.30212752       1.20888899       0.67380984       0.24374372       0.04969844      -0.00138118
C       10.10778307       2.90081946       8.91091544       0.69032991       1.00628326       0.83509902      -0.24754103      -0.15483868      -0.15364397
C       10.59783222       9.35643498       9.36010310       0.44194725      -0.29889413       0.53893605      -0.02538418       0.40725965      -0.34205613
N       11.70689437       9.34168627       2.55358054       0.63177615      -0.69754006       0.26323842       0.60007282       0.10934176      -0.80201535
N       11.25076652       3.50260785       2.62799204      -0.60056532      -0.38038738       0.21090833      -1.12453593       0.00499031       0.19425229
N       10.91705090       2.67935170       7.84582525      -0.93670767      -0.57749360      -0.05265887       0.40361579      -0.58339340       0.26832656
N        2.93365132       2.95015786       9.53416975       1.15745335       0.02863660      -0.56809780      -0.47284166       1.09559253      -0.69659044
N        9.52485676       9.94665046       3.19555443       0.32076989      -0.36759429       0.29721412       0.42424349      -0.21100406      -0.06205008
N        9.01209792       3.11947091       3.42108677      -0.34641347      -1.27256782      -0.92114984       0.67673769      -0.28408199       0.22885815
N        5.40456950       9.42864766       9.11823351      -0.70432929       0.72610569      -0.16482505       0.33482206       0.73128382       0.22359899
N       10.47648429      10.42689549       8.56247421       0.19462601       0.75388977      -1.87893120       0.51341115      -0.37847653       0.45116339
Pb       0.95103212       6.49759642      12.35528470       0.11645640      -0.09694018       0.10075597       0.07008268      -2.81463494       1.98807337
Pb       7.34396837       6.33154599      12.68183284       0.00589408       0.04779725      -0.14924791      -3.08031941       0.00787772       0.64678577
Pb       1.00421914       0.00485373       6.09063427      -0.11554076      -0.37051180       0.04252174      -1.71255917      -0.98198836       1.77175830
Pb       1.00824070       6.24365589       6.00427874      -0.02424846       0.40799057       0.12473958       0.90777578      -3.00299087       1.30302962
I        4.22007453       6.22574870      11.95076454      -0.00239129      -0.05664509       0.10518006      -1.46491357       0.15362781       0.79855410
I       10.58203731       6.87446562      13.08946113      -0.30999158      -0.31580923      -0.03167084      -0.58944785      -0.67699788      -0.91657767
I       10.47179531       5.75403156       5.74997302      -0.05214281       0.03569771      -0.23012750      -0.26242145       0.13721505       1.40276794
I        4.17240712       6.79179815       7.01590135      -0.11561942      -0.19699350      -0.07235004       0.13243542       1.35168243      -0.52479013
I        0.79893615       3.29538621      12.32932304      -0.13897788      -0.04790325       0.32631944      -0.04384335       2.31219785      -1.92894474
I        0.92220784       9.69542906      24.64352609      -0.10140085      -0.14410270       0.17184265      -0.86503537      -3.90191050       1.69413308
I        0.72982342       9.45671682       6.47953355      -0.16835490       0.30403478      -0.07129726       2.08934171       2.74845735      -2.05115159
I        1.53458276       3.19602929       6.11094036      -0.12890472      -0.36019664      -0.01523355       0.81872503      -1.00435384       2.19668501
I       14.39277416       6.58208804       2.92493303      -0.14901096      -0.03831690      -0.21875108       0.34704315       0.99726460       0.17384074
I        6.86125893       5.96742725       3.04404813      -0.11688314      -0.04231574       0.02616529       1.18695882      -0.18391605       0.77438387
I        7.84928920       6.53978721       9.32628628      -0.00654389       0.10280762       0.31543820      -1.50914638      -0.00818515      -0.83942904
I        0.45645482       6.12482972       9.25941901      -0.06599859       0.04581316       0.07149496      -1.11737932       1.07306981       0.19858988
H       10.29601219       8.15927777      16.41385706       0.15434257      -0.02748376       0.11792113      -0.00894037      -0.11470151      -0.05781285
H        9.84266105       1.81610671      14.76722407       0.22440168      -0.29090990      -0.36772753      -0.09182504       0.15364606       0.07663551
H        9.30007480       2.05167085      21.79854258      -0.59585967      -0.68775362      -0.01792269       0.00121238       0.23865633       0.08494108
H       10.99784856       8.43275119      21.59900832      -0.06400804      -0.27208575      -0.13314093      -0.04182218      -0.24376520       0.06823651
H       12.25556764       8.59885864      15.29012916      -0.22722507       0.29914798      -0.15276692       0.01339326      -0.04285992       0.16644585
H       11.82590149       3.11810085      14.61671175       0.30493050       0.26364282      -0.13266817      -0.19330889       0.06044014      -0.08032432
H        1.88803951       9.83434288      22.16796183       0.49635248      -0.30421157       0.13732790      -0.02703197       0.04999645       0.07537314
H       10.31155196       8.40030266      23.78056008      -0.21014790      -0.19391778       0.75319714      -0.11143986       0.05595154       0.01521716
H        4.98966775       3.65589109      14.06329986       0.04449780       0.03375022       0.11149558       0.05602474      -0.11657729      -0.01797033
H        3.45977592      10.43056412      14.67633271      -0.50707229       0.75705919       0.10497484       0.08019296      -0.01497396       0.01924517
H        2.90367009      10.67382495      21.05245554       0.08486433       0.93244998      -0.95290190       0.05568649      -0.07654394      -0.08748475
H        9.53879458      10.13035864      23.85564783      -0.10034538       0.00833586      -0.04584749      -0.17047350       0.11332476      -0.15597081
H        4.55656030       4.23953008      16.54967341       0.18458107      -0.06816580      -0.17989719      -0.14512573       0.08810251       0.04332074
H        2.87827178       9.86759162      17.30428471       1.09569151      -0.77984269      -0.85603040       0.11002086      -0.26481224      -0.12264879
H        5.35522784      10.11188622      21.00677334       0.50219477      -0.21171948      -0.07048343       0.14616398       0.20191676      -0.06211790
H        4.91801868       4.42741448      22.98545188      -0.10662472       0.03310619       0.18612274       0.08649610      -0.03513173       0.06485092
H        8.59475522       9.79291496      16.52975113       0.13226887       0.03567432      -0.33544720      -0.04791991       0.06434335      -0.01862017
H        3.82726265       8.55262560      17.86807313       0.24420384      -0.01317609      -0.30512689      -0.26018600      -0.12873574      -0.00361830
H        9.14129573       4.16380168      23.15871455       0.49840959      -0.30473064      -0.87666517       0.11005357      -0.19660802       0.02806733
H        5.97084270       3.76713657      21.69472023      -0.77873244       0.08266199       0.17425857       0.05506144       0.11974777       0.02621710
C       10.39280179       9.11097190      15.83321037       0.01457816       0.62692125      -0.49757691      -0.20925366       0.62630513       0.15273551
C        4.32012459       9.05848958      15.95495596       1.32529398      -0.83260932       0.45504433       0.78902752       0.18384395      -0.71314025
C        3.95030738       9.29525714      22.16245193      -0.82539419       0.02712921       0.69765288      -0.34074534      -0.65009756       0.15751083
C        3.98844112       3.05219436      21.61766395      -0.25321046       0.62741972       0.01828662      -0.22926409      -0.40760176      -0.27271387
N        4.37415575       2.85899569      14.28564508       0.21885187       0.19494409       0.07536948       0.11690781       0.79680587      -0.03993055
N        4.20463918       9.74987817      14.85788501       0.88604680      -0.37748602      -1.97837698       0.09395420      -0.23606932      -0.15281028
N        2.84048501       9.96111623      21.74246321       1.15915836      -1.12142293       0.33379634       0.07449192       0.40788893       0.36003194
N       10.03319034       9.29579053      23.28179397       0.02753053       0.37662329      -0.25789164      -0.12824046      -0.39225138       0.42349186
N        4.03593320       3.33998923      16.55806263      -0.43066506       0.25657279      -0.00473330       0.06833271       0.05082272      -0.11595348
N        3.66473337       9.19884085      17.07547773      -1.38360759       0.70586748       1.20803492      -0.76090358       0.38626286       0.15528955
N        9.85262046       4.03698947      22.36304967       0.06551788       0.25246917      -0.20130006       0.48369320      -0.08613007       0.77579205
N        5.00622231       3.81572661      22.13499426      -0.13563017      -1.01445819      -0.54608631      -0.18252033      -0.46670246      -0.07630735
Pb       6.76782803      25.54587801      25.04301041       0.26920040      -0.08917612      -0.00083529       1.11158576      -0.44437395       1.78312685
Pb       0.57495010       0.03446373      25.08856615      -0.17511417       0.06472812      -0.05061722      -0.35611328      -1.14052735      -1.74922631
Pb       6.95191199       6.31053252      19.03831089       0.24045071      -0.07328313      -0.16971824      -1.44925864      -0.34137278      -0.07664187
Pb       7.12456988      25.49258752      18.69910797      -0.18180943       0.03304970       0.04046627      -0.03434967      -4.04066036       1.69045623
I       10.36071565      25.32670479       0.46068617       0.08035379      -0.22229883      -0.06170388      -0.06083939       1.11785547       0.95541674
I        3.69816521      12.77215671      24.61365907       0.10908584       0.08874716      -0.09499177      -2.41571478       0.93447522      -0.83197074
I        3.73577018      25.12815225      19.21702687       0.58026652       0.11702247      -0.03516247      -0.73598147       0.67175266       0.79614331
I       10.24073750       0.03059461      18.13150593      -0.17106695      -0.00409360       0.00493609       1.90082881       0.88572464       0.04669149
I        7.09730241       9.53137314      -0.05667248       0.07056752      -0.09856506      -0.02870237      -0.16958866      -1.07027855      -0.50641411
I        7.60125247       3.08116207      12.23712055      -0.11086832       0.30644766       0.09156645      -0.67887196      -0.06423518      -1.04712912
I        6.75958017       3.05000448      19.06019407      -0.01487036       0.19180901       0.06682455       2.62763283       1.45016721      -0.42232281
I        7.30671936       9.51271817      18.63675540      -0.02613883      -0.12216927       0.04026281       0.07572765      -0.02318788      -0.88882423
I        6.70037694      13.06101031      15.60691905      -0.14518890      -0.11633743       0.02404316       0.16975679       0.36033810      -1.02027278
I        1.51523334      25.13644747      15.48973958      -0.07562501      -0.04397519      -0.05835130      -0.26940793       1.36782869      -0.14660552
I        0.17929691       0.35909875      21.87916285       0.05162633      -0.12996714       0.06485211      -0.49471182       2.03794685      -0.53134034
I        7.48504188       0.02939658      22.00966425       0.12477918      -0.25089254      -0.06556118      -0.91652382       1.15076028       0.77737942
H        3.19761733       1.74085622      15.56473100      -0.27974922      -0.25080471       0.12292751      -0.00561171       0.08658288       0.13083247
H        5.17265715       8.31633701      15.92368589      -0.85260862       0.40549928       0.34341691      -0.15062125      -0.00640900       0.13612711
H        3.74580284       8.58846386      22.97470791       0.24290866      -0.31396412       0.05928774       0.21528606       0.00170404      -0.01107249
H        4.12390931       2.52852125      20.59061958       0.26274931      -0.16499452       0.31797293      -0.11056571      -0.03344267      -0.23892603
H        4.28963719       2.11127717      13.60498657      -0.16529885      -0.27811046      -0.58261273       0.06714096      -0.08911647      -0.11447129
H        4.84746215       9.47162728      14.04105431      -0.86230825       0.40670348       1.01103858      -0.10610901      -0.16238122      -0.04847191
H       10.68925781       1.71992231      19.96945060      -0.06346700       0.04612433      -0.18539758       0.06062662       0.02071320       0.01003015
H        2.03686920       2.26436573      21.76816649       0.43247160       0.68008438       0.26068490       0.05456302       0.09120539      -0.10875424
H       11.80259361      10.14110603      14.57256853      -0.58165328      -0.10535437       0.45365649      -0.00656774      -0.00149923      -0.16989828
H       11.23330580       4.40665677      15.79440895      -0.05190044      -0.33220124      -0.22907383       0.02732064       0.19034345       0.04230995
H       11.27966571       3.46887326      20.00959446       0.55739488       0.52830813       0.37969207      -0.05112765       0.22734598       0.08209275
H        2.60371477       3.48314333      23.04964946      -0.53889230      -0.38028140       0.09538252       0.10216900       0.03912600       0.09023732
H        9.40409757      10.85139287      15.32610794      -0.18693783       0.27502687      -0.17713516       0.17351582       0.01781554       0.18851248
H        8.72514128       3.94722216      16.65142800       0.04028933       0.23112585       0.19510146       0.11112348      -0.16611622       0.01315610
H       10.47536826       4.85739047      22.17278012      -0.13393000      -0.12834013       0.12402685       0.05562336       0.15917198      -0.09308311
H        9.86572931      11.41277136      21.42281930       0.12910993      -0.59266345       0.13147064      -0.06424337      -0.16399847      -0.16121384
H        3.35356381       3.21061248      17.31496169       0.07699443      -0.00814653       0.28649422      -0.11742743       0.17645269       0.00703182
H        8.05265776       2.43376686      15.90495525       0.32298547       0.77561198       0.63105539      -0.09870673       0.11094728       0.07810626
H        6.06841283       8.85189230      22.07092686      -0.82300736       0.32165381       0.02679906       0.20353740       0.01422412      -0.14377320
H       10.67485889      10.17366126      20.19385564      -0.46233987       0.41130199       0.80377136       0.10999863       0.08389511      -0.17564898
C        3.83736723       2.62308134      15.47475272       0.48899195       0.40483994      -0.02608114      -0.19945539      -0.39013126       0.22970434
C        9.92421235       2.77340077      15.34537619       0.30212752       1.20888899       0.67380984       0.24374372       0.04969844      -0.00138118
C        9.93405333       2.89596622      21.54457439       0.69032991       1.00628326       0.83509902      -0.24754103      -0.15483868      -0.15364397
C       10.42410248       9.35158174      21.99376205       0.44194725      -0.29889413       0.53893605      -0.02538418       0.40725965      -0.34205613
N       11.53316463       9.33683303      15.18723949       0.63177615      -0.69754006       0.26323842       0.60007282       0.10934176      -0.80201535
N       11.07703678       3.49775461      15.26165099      -0.60056532      -0.38038738       0.21090833      -1.12453593       0.00499031       0.19425229
N       10.74332116       2.67449846      20.47948420      -0.93670767      -0.57749360      -0.05265887       0.40361579      -0.58339340       0.26832656
N        2.75992158       2.94530462      22.16782870       1.15745335       0.02863660      -0.56809780      -0.47284166       1.09559253      -0.69659044
N        9.35112702       9.94179722      15.82921338       0.32076989      -0.36759429       0.29721412       0.42424349      -0.21100406      -0.06205008
N        8.83836818       3.11461767      16.05474572      -0.34641347      -1.27256782      -0.92114984       0.67673769      -0.28408199       0.22885815
N        5.23083976       9.42379442      21.75189246      -0.70432929       0.72610569      -0.16482505       0.33482206       0.73128382       0.22359899
N       10.30275455      10.42204225      21.19613316       0.19462601       0.75388977      -1.87893120       0.51341115      -0.37847653       0.45116339
Pb       0.77730238       6.49274318      24.98894365       0.11645640      -0.09694018       0.10075597       0.07008268      -2.81463494       1.98807337
Pb       7.51769811       6.33639923       0.04817389       0.00589408       0.04779725      -0.14924791      -3.08031941       0.00787772       0.64678577
Pb       0.83048940       0.00000049      18.72429322      -0.11554076      -0.37051180       0.04252174      -1.71255917      -0.98198836       1.77175830
Pb       0.83451096       6.23880265      18.63793769      -0.02424846       0.40799057       0.12473958       0.90777578      -3.00299087       1.30302962
I        4.04634479       6.22089546      24.58442349      -0.00239129      -0.05664509       0.10518006      -1.46491357       0.15362781       0.79855410
I       10.75576705       6.87931886       0.45580218      -0.30999158      -0.31580923      -0.03167084      -0.58944785      -0.67699788      -0.91657767
I       10.29806557       5.74917832      18.38363197      -0.05214281       0.03569771      -0.23012750      -0.26242145       0.13721505       1.40276794
I        3.99867738       6.78694491      19.64956030      -0.11561942      -0.19699350      -0.07235004       0.13243542       1.35168243      -0.52479013
I        0.62520641       3.29053297      24.96298199      -0.13897788      -0.04790325       0.32631944      -0.04384335       2.31219785      -1.92894474
I        1.09593757       9.70028230      12.00986714      -0.10140085      -0.14410270       0.17184265      -0.86503537      -3.90191050       1.69413308
I        0.55609368       9.45186358      19.11319250      -0.16835490       0.30403478      -0.07129726       2.08934171       2.74845735      -2.05115159
I        1.36085302       3.19117605      18.74459931      -0.12890472      -0.36019664      -0.01523355       0.81872503      -1.00435384       2.19668501
I       14.21904442       6.57723480      15.55859198      -0.14901096      -0.03831690      -0.21875108       0.34704315       0.99726460       0.17384074
I        6.68752919       5.96257401      15.67770708      -0.11688314      -0.04231574       0.02616529       1.18695882      -0.18391605       0.77438387