768
Lattice="38.994998665037166 0.07106821782705662 0.35547318029268 0.20366633889610405 23.235525993811105 -0.050934670340891476 0.6633844787472418 -0.16287480069770385 18.246656201326342" Properties=species:S:1:pos:R:3:forces:R:3:momenta:R:3 energy=-3625.5150166335297 stress="0.0 0.0 0.0 0.0 0.0 0.0 0.0 0.0 0.0" pbc="T T T"
H        8.13332863       0.80510020       4.48771548       0.78574947      -0.23000986      -0.07150073      -0.07765250       0.04929516      -0.30241766
H       12.39457854      12.15331251       3.05270374      -0.08289073       0.27206580      -0.15713532      -0.05580737       0.05553579       0.47701845
H        2.39809432       6.25247109       5.25277147       2.35010539       1.54410768      -0.67949461       0.15389886       0.15010659      -0.01479696
H       18.08900245       6.27774036       1.95732778      -2.01361175      -0.36175065       0.96575635      -0.52746362      -0.13862757      -0.34251046
H        6.77395157       0.08125862      10.41668684       0.45476375       0.75725953      -0.42160861       0.06402012       0.22304656      -0.15188098
H       12.51706205       9.74726186       3.50242546      -1.05969885       0.08125130       0.50235752      -0.02859435      -0.22049974       0.00328417
H        5.02438566       5.69534144       7.45061943      -0.14650983      -1.05010633      -0.15530231       0.08903093       0.05033918      -0.23897808
H       16.30083708       7.35182095       3.63189866       0.33664436       0.06064602      -0.22275625       0.03000393      -0.13446912       0.25942982
H        5.36892543       1.16863045       5.46103405      -2.45305717       2.21780539       0.74712661      -0.10368331      -0.27828829       0.23950415
H       13.78314714       9.49443418       2.23849143      -0.38654449       0.35471379       0.32807866       0.04527184       0.01829958      -0.07408482
H        5.60959946       7.39071148       7.98708148       0.70345876      -0.23761025      -0.60432834       0.02929542      -0.16073285       0.01697203
H       15.64660178       5.77803098       3.89251218      -1.17528204      -1.13890707       0.12442292      -0.14037566       0.04747218      -0.10886923
H        6.17009281       2.99557237       4.34298490      -0.87330098       1.01983442       0.33450279      -0.23771008      -0.22165910      -0.06625510
H       14.73683373      11.51071531       1.12448770      -0.45526603      -0.65851269       0.78086239      -0.06084343       0.25855455      -0.28754638
H        4.34208525       8.58333664       5.43606299       1.58610155       1.27051861      -0.25379203      -0.08142403       0.08146604       0.06476608
H       16.28666911       3.84896241       3.01847158      -0.52109559      -0.92725858      -0.12641113      -0.03357828       0.05572042      -0.25887381
H        7.83753992       3.09632436       3.73465901       0.43201554      -0.37010965      -0.05489953      -0.29131839      -0.07070861       0.05267146
H       14.09956512      13.10447334       1.53400334      -0.59114390      -1.52827013       0.82604800       0.27171581      -0.05667901       0.00536544
H        2.82200827       8.25274436       6.27773819       0.88991443      -0.05869763      -0.73735587      -0.27774498       0.15477490       0.01922192
H       18.23057206       4.11437233       6.83647051      -0.16275973       0.49627603       0.26251834       0.04151367       0.05559041       0.06434732
C        7.22518232       1.36300649       4.66513706      -0.61041858      -3.03490303       1.00659886      -0.11603929       0.82877571       0.42446628
C       13.11622043      11.47816333       2.51646283       0.41533870      -0.37070191       0.74577196       0.29395934      -1.01114975      -0.43653613
C        3.44979864       6.80075345       5.03308319      -2.87217118      -1.18230646       0.73422028       0.43758596      -0.18685046       0.12344531
C       17.15617120       5.77557093       2.54440121       1.28517788      -1.49667476      -1.13621225       1.12161889       0.14353829      -0.07818944
N        6.16699101       0.70772692       5.23443114       1.25370032      -0.36046604      -0.42279004       0.35311944      -0.06206012       0.69853642
N       13.15765784      10.19086676       2.86251547       1.61392711      -0.62580386      -1.23686384       0.82599444       0.46652019      -0.39731604
N        4.97550211       6.51754706       8.10457113       0.25387318       1.05505707       0.30547992       0.40555045       0.36166493      -0.06680589
N       16.30489841       6.34149025       3.36350780       1.33100344       1.89760798       0.06501175      -0.21932204       0.10118628      -0.92792381
N        7.11151800       2.56586766       4.25755536       0.27084333       1.68318597      -1.25174164       0.07854865      -1.00215504      -0.07506639
N       13.96726714      11.99017482       1.67206642       0.63335380       2.47038966      -1.73035562      -0.14633467       0.90271525       0.59538576
N        3.59815434       7.98456358       5.60721884      -2.17720415      -1.37572374       0.92632352      -0.71932469      -0.35441042      -0.89051815
N       16.99305654       4.39580706       2.33207331       0.27551059       1.72575415       0.84282340      -0.04578028      -1.09160087      -0.12007301
Pb       1.26239899       2.51809562       2.26584581      -0.30743596       0.06147095      -0.01657776       0.95343539       1.26554543      -2.73118214
Pb      19.02315740      10.19762385       5.18244760      -0.11238361       0.48644414      -0.30923284      -3.09967581       1.71469667       2.59658354
Pb       9.52485493       8.00098772       2.47319351      -0.06698321       0.26392550      -0.24385633      -3.82012973       2.46645826      -2.74713144
Pb      11.56060345       4.28054431       4.27591186       0.22648034       0.28636911       0.42596175      -0.81102364       1.32917929       0.68458912
I        0.16481009       4.64816470       4.77888876       0.44198926      -0.57074020      -0.10583445       0.69187526       2.40270696       5.26544759
I        0.04038527       7.93369566       2.62962675       0.39225408      -0.10403275       0.08671993       1.07173308      -0.38808760      -2.25867885
I       10.15852785      10.16552564       4.82493805       0.15570648      -0.20057019       0.10353313       0.80211990      -1.55737453       0.47251737
I       10.38104966       2.36248101       2.41101301      -0.08533340       0.01503166      -0.34593037      -0.44263065       3.36846274       0.07950305
I       18.41211563       0.59006416       2.58231089      -0.20496505      -0.40651154       0.29720993       1.42793163      -1.60444838      -3.73575792
I        2.66954149      11.67303144       4.40363370       0.18712761      -0.26936790       0.07635653       1.69682943       0.62203396       0.88559450
I       12.61790203       6.69487179       2.17422610       0.03183585      -0.06713369       0.03032268       0.23101960       2.24104552      -0.34419084
I        8.60631357       5.76552317       4.51885074      -0.29112607      -0.07247267       0.10137054       5.60446161       0.50295691      -2.05397879
I        3.95512279       3.70384152       1.81065320       0.43164910       0.15236069       0.15269942      -0.97876900      -2.45159279       1.63979034
I       15.97066238       9.15293753       5.18471528       0.33095935       0.28326354       0.19561650       0.20748500      -1.80389595      -0.89948438
I        6.51916369       8.85618848       2.95301347      -0.08454783       0.24237547      -0.23517894      -0.09776164      -2.66697443       0.04740307
I       14.52507457       3.22718395       4.53781611       0.21778511       0.05932509       0.01623979      -5.05535024      -2.28099189      -0.20447551
H        8.43625087       0.66484349       8.96266936       0.31052100       0.20628956      -0.99366747      -0.05582687      -0.18505501       0.50130661
H       12.40626939      11.50610623       8.04896504      -0.93235987       0.21232543      -0.12145564       0.30339492       0.21414028       0.06900368
H        3.17327835       6.05377213       9.06042450      -0.75134366      -1.00536212       0.26705943      -0.01912027       0.07565060      -0.21312707
H       17.70197716       6.45015992       7.12060848      -0.12867191       0.98087797       0.27536159      -0.07532022      -0.06442976       0.00580009
H        6.10734002      -0.16267948       5.76347356       1.46130945      -1.45221125      -0.45217875       0.11848473       0.23661472      -0.06172302
H       13.59596210      12.92626742       6.33509359      -0.28632408       0.25251316      -0.30125487      -0.29852058      -0.11366580       0.22972609
H        3.97935110       5.31394345       3.75366264       0.24755583      -0.01329771      -0.09769215       0.12179095      -0.14668124      -0.14804586
H       15.54442467       7.23917233       8.30358761       0.55260948       1.23034171      -0.03393226       0.20449178      -0.13499259      -0.40570656
H        5.86543745       1.53748984      10.19752401       0.11447928       0.32203540      -0.64472481       0.20052017      -0.49326088      -0.07420037
H       14.36911830      11.32731633       5.59291541       1.18848432       0.01853164      -0.37653330       0.30829488      -0.04872949      -0.03423450
H        5.20943340       6.60360591       4.04267080       1.17565493       0.87059283      -0.83397134       0.39513093       0.13866506      -0.41033940
H       15.05307709       5.56444899       8.26200914      -0.20020609      -0.21889648      -0.04817944       0.11810105       0.04340218      -0.30489898
H        6.34838897       2.95974955       8.02990595       1.13837650      -1.02753341      -0.42389593       0.16667679      -0.05767475      -0.21205655
H       14.33738344       9.23692828       6.86508721       0.87437801      -0.70562876      -0.40378373      -0.23743468      -0.05700665      -0.05400306
H        4.53988268       8.59693297       9.45044940       1.06175382       0.87075986      -0.19212307      -0.15018105       0.14507044      -0.09379619
H       16.73437622       3.60956654       7.57489609      -0.11781041      -0.04125137       0.14732389       0.29032597       0.08382317       0.08557622
H        7.99571950       2.65576822       7.35947095       0.04330959      -0.05007042       0.07559484       0.19126630       0.15342681       0.38691375
H       13.05122586       9.03320417       8.18511030      -1.20093130       0.07498334       0.70686992      -0.07439543       0.05324103      -0.08809759
H        3.07060978       8.12132792      10.16904794      -0.48631863      -0.18946940       0.36135127      -0.12102242      -0.27635574       0.24711216
H       17.69424512       3.82279863       1.81487488       0.58337375      -0.23824060      -0.70244647       0.22742513       0.11268586       0.05752560
C        7.49395889       1.31674471       8.86987919      -0.73794106       0.22525194       1.22038202      -0.93935343       0.17481380       0.14353735
C       13.14415613      11.00061042       7.24854139       0.85081296       0.44040342       1.53858964      -0.00715243       1.17683287       0.44019616
C        3.98145386       6.74055756       8.94813898      -0.38683234       0.13165082      -0.30879159      -0.63089753      -0.32607764      -1.65625239
C       16.89585666       5.79308856       7.43036025       1.45230546       1.27245446       0.59449981       0.66051562      -0.00841407      -0.60701510
N        6.66036258       0.97859281       9.85047387      -0.41794440      -1.47728145       0.88611085       1.37838008       0.06720516      -0.16544409
N       13.77693439      11.87057605       6.36511494      -0.66094935      -0.94989119      -0.01782193      -1.17230420       0.09271676      -0.32968036
N        4.27226832       6.21654094       4.19447213      -0.98913093      -0.80512922       0.87647459      -0.29631927       0.07405275      -0.17936048
N       15.68453066       6.31289747       7.89062579      -0.61866686      -1.00275810       0.12831480       0.47730315      -1.18073747       0.69582847
N        7.25567415       2.36516430       8.00370484      -0.51710873       0.49601352       0.37236880       0.27089877       0.51217479       0.00751411
N       13.56138408       9.68872315       7.49928930       0.35274445       0.95146143      -1.27041168       0.05647312      -0.21691532      -0.69113970
N        3.88212328       7.86865065       9.60935510      -0.17651321       0.38648643       0.46081574      -1.38663042      -0.51003272       0.02885866
N       17.36615100       4.40276897       7.35196318      -0.65666368      -2.84303194      -1.64097751      -1.03068918      -0.76105985       0.66048092
Pb       1.35056740       2.32157096       6.86755020       0.28613342       0.20039678       0.03394519       0.01866054       3.83244977       4.88653407
Pb      19.10613065      10.29788071       9.73892038       0.23722085      -0.05868263       0.15830586       1.79501248      -2.20138898      -2.29143959
Pb       9.32151054       7.74696745       6.95317012       0.33497608       0.32927235       0.15602425       1.85509903      -1.08441685       1.11501475
Pb      11.73323491       4.22893611       9.13084021      -0.00669268      -0.18587579      -0.02751298       5.27495197      -2.55317758      -1.06879529
I        0.54903878       4.39741604       9.26582639       0.61342789      -0.31595585      -0.06405007      -1.75242952       1.38012820       1.75039727
I        0.64669417       8.29387075       7.25620525      -0.04619096      -0.01741863       0.04026003      -0.66206734       0.97657905       1.74972882
I       10.71337504       9.65734198       9.34132552      -0.22305373      -0.06212427       0.02155882      -0.35727123      -2.24894088       0.13746244
I       10.56140850       2.28722288       6.43095758       0.12522929       0.15344251       0.45684774      -4.09844816       1.65348163      -0.69654785
I       18.12090587       0.32588923       7.22272702       0.27806749       0.16642063      -0.19514771       0.53379693      -1.51241127      -1.31273420
I        2.87657398      11.56664184       9.21014359       0.30674504       0.03112698      -0.26364600       0.95693860       1.16319491       3.18982071
I       12.27878501       6.41289835       6.97285486       0.18755034       0.18739175      -0.27652663      -2.45756052      -1.86858264      -1.21312097
I        8.71746945       5.61710540       9.29732647      -0.22420179      -0.04389580      -0.08701252      -1.21963867       0.16988287      -0.45954291
I        4.49029789       3.32052242       6.65317840      -0.34629438       0.33600351      -0.14160712      -2.01495201       0.89546892      -0.26809415
I       16.35921935       8.88406668      10.07365825       0.18932015       0.14971499       0.02856414       0.13675438      -1.15506448       1.10951977
I        6.70493275       9.42483473       7.47981944      -0.19846457       0.10285328      -0.07475399       1.11423501      -0.84178561       1.23674703
I       14.72363910       3.11551038       9.27092129      -0.34171906      -0.36348799      -0.16648405       0.37547457      -0.22823113       2.09064767
H        8.98092301       0.87461793      13.91668270      -1.03774089       0.32738873       0.58688522       0.09607923       0.35299778       0.03138482
H       13.07078867      12.45730339      12.06041810       0.61172457      -0.75296909      -0.72473845      -0.09560187      -0.01373303      -0.22275060
H        3.01879163       6.19894095      13.61327506       0.74139818       1.26953470       0.13782439       0.27552211      -0.34713328       0.02597300
H       18.22440870       5.66523573      10.93002925       0.53158268      -0.66877096      -0.11019191      -0.25788141      -0.30526293       0.10612710
H        5.86092190      -0.17245422       1.81477584      -0.17032095      -0.76189758       0.08543088       0.05413863       0.14092992       0.20758182
H       13.07929050      10.32650129      13.22771546      -0.73976707       0.44819843       0.42775514      -0.05826569       0.13541204       0.17220754
H        4.18003344       5.47828630      -1.65822652       0.23362766      -0.83959742      -0.46389806       0.08710342      -0.12353319       0.08124767
H       17.05528837       6.15308572      12.90958680       0.29430645       0.72444941      -0.04135926       0.16868313       0.27280712       0.16691426
H        5.64784647       0.58106799      14.57933968       1.65478438      -1.64494680      -0.41126754       0.09512174      -0.28552139       0.20022712
H       14.57151700       9.84098289      12.53546392      -0.41378414       0.38508489      -0.12298340      -0.14901684       0.06925351       0.00652729
H        4.94128778       7.05826454      -1.20144204       0.98581203       0.15471177      -0.05363618      -0.07504977      -0.23374513       0.10320025
H       16.03766590       4.79200050      12.85784913       0.50755911      -0.40623028      -0.29938932      -0.07066591       0.01180231      -0.08160622
H        6.17152616       2.52521863      12.95212079      -1.01057839       1.01555999       0.18641668      -0.29992703      -0.00413509      -0.23044094
H       15.22137739      10.92926840      10.44202421       0.59573537       0.89858783      -0.96291270       0.01562541       0.22597157      -0.24206284
H        5.01781690       8.51671615      14.27388230      -0.54906749      -0.15227457       0.12793188      -0.08654313       0.37314190       0.00533026
H       16.54239506       3.10644518      10.85393944       0.25480173       0.65787443       0.16461611       0.14649570      -0.26879772       0.17093609
H        8.01104559       2.57572418      12.56815215      -0.01035433       0.38771967      -0.02153079       0.07509877      -0.08195622       0.13924127
H       14.46344130      12.76802265      10.09419610       1.17360646      -2.52865083       0.47880887       0.17541590       0.38043804       0.00433141
H        3.32716244       8.25519520      14.89740023       0.35274059       0.03257089      -0.33184893      -0.12513744       0.03639835       0.32292126
H       17.92506569       3.27746997      15.08836368       1.27447498      -0.10232460      -0.82883428       0.09121914      -0.01857756      -0.21723473
C        7.70171323       1.11947261      13.91291352       1.36379749      -1.15567926      -1.35132934       0.06803132       0.05787068       1.43723839
C       13.79521563      11.62401201      11.72564099      -1.34391285       1.48207585       1.05914794       1.19372403       0.30558130      -0.59202814
C        3.96876167       6.86945686      13.58011128      -1.72292949      -2.74979358      -0.40448828       0.10998290       0.37768790      -0.09264203
C       17.53852820       4.87443854      11.33696512      -0.33958105       0.39250726      -0.29595788      -0.95347917      -0.39532210      -0.09857003
N        6.81300328       0.27928805      14.52870826      -1.62365246       2.37643640       0.55433698       0.41819941      -0.08074712       1.28590629
N       13.82024713      10.57647823      12.58502492       1.53097765      -1.48503546      -0.57902197      -0.36730808      -0.35406971      -0.50558828
N        4.36196936       6.23294045      -0.88600711      -1.17536531       1.31923474      -0.06858704       1.81577079       0.46839157       0.20565272
N       16.90141643       5.24729948      12.48559304      -1.24967582      -0.32691961       0.51750449       0.34816045      -0.71410196       0.85691209
N        7.23135494       2.16817645      13.09796637       1.01999804      -0.78333342       0.00753369      -1.20778438       0.41750032      -0.19276766
N       14.61389765      11.81958939      10.64476671      -1.49443729       1.32655252       0.32387464      -0.15035209       0.65126952       1.19108975
N        4.06416357       7.99436907      14.21788150       0.21161175       0.94947587       0.88963086       0.43604953       0.81338760       0.86665683
N       17.29686508       3.77557561      10.61633301      -1.54722632      -0.42339812       0.95230609       0.30575162       0.65211582      -0.03954777
Pb       2.07138782       2.06266443      11.24792879      -0.37794334       0.03336968       0.43995522      -0.98097041       2.03562079       1.34006099
Pb      19.55986493       9.46346110      14.23805472       0.01045505       0.90980079       0.26965291       1.78791638      -5.57958008       2.81626148
Pb       9.60680071       7.66257058      11.54067706       0.32317164       0.16356438       0.49524499      -1.57113125      -0.77848749      -1.14971053
Pb      11.66108476       4.17958961      13.89493417      -0.05421137      -0.09223084      -0.14779858      -1.87208850       0.41432270       4.47462646
I        1.03847441       4.31830598      13.43909389      -0.14641482      -0.03312098       0.12692398      -0.57493565      -1.38715090       2.83397829
I        0.99296817       8.21063127      11.58633937      -0.11055688      -0.17729460      -0.43012188      -1.36305195       2.46057558       3.99914613
I       10.46972451      10.01210512      13.75457075       0.02768183      -0.28622249       0.14763233       2.37321341       1.95057378       0.24730800
I       10.62309427       2.38910459      11.43520972      -0.30900727      -0.34429450       0.17663276       3.18788500       1.17450096       2.58445294
I       18.61598601       0.73911462      11.93279584      -0.06053523      -0.27991932      -0.11496194       2.89298523       0.67486704       2.96441403
I        2.81494290      11.45793807      13.76275967       0.33505067       0.16017558      -0.30891713      -0.59780576       2.96319049       2.34532284
I       12.81402748       6.08363255      11.56815971      -0.21117114       0.28766198      -0.11249647       1.05917339      -1.31534495       4.06279571
I        8.80746628       5.60147427      14.14517739      -0.16422654       0.13446992      -0.24969763       1.58787910      -3.12791841       1.65541562
I        4.73536037       3.56228905      10.72637353       0.12811424       0.24310180       0.08477763      -3.77118458      -2.40006769      -0.81072615
I       16.63864234       8.42559270      14.09804788      -0.37680123       0.03717879       0.40235721      -3.81752395      -0.10457718      -2.02415003
I        6.90215958       9.13387654      12.24546926      -0.01253637      -0.02877365      -0.31402185       2.52528247       1.81013254      -1.71227726
I       14.38355515       2.57198870      13.23803253       0.23402826       0.38188305       0.04385385       0.71853730      -3.10558419       2.07007400
H        7.88015693       0.39669963       0.72707731       0.67008758      -0.99893104      -0.20418677       0.12540647      -0.11189383      -0.16236712
H       13.55600625      11.79267574      16.87386397       0.20233561       0.47616347       0.43785060      -0.03473353      -0.25270558      -0.22219026
H        2.52586444       5.70295446      -0.00162233      -0.27741130      -0.28562120      -0.32986889      -0.11821352       0.17946369      -0.05927420
H       18.45996185       5.55042242      15.56705530      -0.43491163      -0.36146101      -0.11747168       0.03242752       0.08210233      -0.05746395
H        7.28055867      -0.58237483      15.00051323      -0.29088507      -0.18068508       0.45361519      -0.28644040      -0.06231131      -0.04419076
H       15.33995650      12.70381027      15.64630526      -0.24236511       0.84467452      -0.73056505       0.13620014       0.14789749      -0.18150046
H        4.67797470       5.50812604      12.29259345       0.47899684      -0.76635461      -0.59585092      -0.13667812      -0.39279161       0.40051289
H       17.21288830       6.81702767      17.18940981      -0.41207782      -2.29470148      -0.44477829       0.01399116       0.12330092      -0.01010924
H        4.90190553       1.24566663       1.37559415       0.38632018       0.49493857      -0.35686376       0.22297366       0.27177790      -0.09266013
H       16.06691324      11.09574640      15.40661162      -0.21484154       0.24617989      -0.05433902      -0.22315372      -0.19968888       0.08413493
H        5.75707705       7.06337773      12.72633075      -1.10945835      -2.04017511      -0.24460172      -0.15708067       0.11694396      -0.05658066
H       16.31752806       5.15370542      17.88178951       0.00851516       0.30263654      -0.23367160       0.08430429       0.15407358       0.08947225
H        6.85589619       3.27238643       0.29767084      -1.99819987       0.01800892       0.81620286      -0.13082638      -0.25729716       0.20016994
H       14.93604721       9.11119149      16.47188754      -0.79668231       0.97143015       0.51250929      -0.23315770      -0.56653505      -0.14278631
H        4.08241097       8.13670692       1.03019690      -0.10228117       0.26391605       0.47061869      -0.29195759       0.19044337      -0.35023951
H       16.66387017       3.02301146      16.29102987       0.46944951       1.25903151       0.26125227       0.08291693      -0.05807216       0.10428509
H        8.27960481       2.44775694      -0.21575573      -0.01842448      -0.37154218       0.14654626       0.49798726      -0.14512895       0.15665402
H       13.44480612       9.61401601      17.49546174       1.97696189       0.55275451      -1.47647396      -0.01788186       0.13627029       0.05314353
H        2.41938550       7.49791330       1.55003784       0.72443142       0.00460467      -0.29177838       0.10589440       0.08934192      -0.11166250
H       17.83813128       3.45467641       9.81037167       1.42197168       0.18968379      -0.74019799       0.10075354      -0.08570665       0.00700023
C        7.02667477       1.07218960       0.75495525      -1.10902451       2.06553341      -0.10160359       0.30294954       0.22555863      -0.69347906
C       14.41617943      11.18370940      16.60886189      -0.40640311       0.75155632      -1.59154116       0.29755071      -0.11449363       0.08213500
C        3.34781181       6.44691075      -0.04778857       0.30677529      -0.47612819       1.82732631      -1.32984677      -0.67279375      -0.27237135
C       17.62684321       4.98496398      16.14283688      -0.06547223       1.24260669       0.58660298       0.37805587       0.10508484      -0.29710736
N        5.80754718       0.70829542       1.27922292      -0.44259128      -1.05423584       1.11221508      -0.58436727       0.74098151      -0.46940874
N       15.27835267      11.66625245      15.73300607       0.62676764      -0.83995258       0.84315832       0.24917777       0.98203102       0.40870261
N        4.89722126       6.35953561      12.80161120       1.56549618       3.35113688       0.55884353       0.23943143       0.06880783      -0.25718810
N       17.00208893       5.66940056      17.16181783       0.48963172       2.22673277       0.81618768       0.57498234      -1.26638434      -0.41395199
N        7.31537563       2.29138624       0.24578752       2.20235793       0.66381896      -1.68760533       1.03133767      -0.67209865      -0.56453322
N       14.37161640       9.94393679      16.97801426      -1.27462801      -2.99596936       1.60403369      -0.53764554       0.45142308      -0.33809746
N        3.38987963       7.36863072       1.07910362      -0.47414170       0.42460000      -0.93516719       0.89161863      -0.76691749      -0.11684998
N       17.35159982       3.72397963      15.80776028      -1.46778286      -1.98903844       0.08500197      -1.17934616       0.13441545      -0.35415152
Pb       1.92666462       2.44868713      15.89105226      -0.01110857      -0.35543283      -0.23883118      -3.81938098      -2.04098370      -1.83818409
Pb      19.01149788      10.00886322       0.35420000       0.23561063       0.85161185       0.02458701      -1.12516499      -4.27039689      -0.54147561
Pb       9.62092814       7.91400501      16.20446081       0.30757003       0.26653161      -0.15809162      -0.78816969       0.02524255      -0.72283457
Pb      12.25506536       4.27709877      18.30578469      -0.50035143       0.24475640      -0.25077562      -0.40837773       0.30192568      -0.44413155
I       -0.02775590       4.44757380      -0.21344464       0.05457736       0.00322341       0.40077821      -0.14673352      -2.73406175       2.43206416
I        1.04701466       8.00424959      16.15938143      -0.06137878      -0.21236758      -0.53975424       1.83508708      -1.64335841      -0.55923590
I       10.62393771      10.19487982       0.11588796      -0.38403567      -0.38307822       0.15700557       1.61457591      -1.50278957       2.25154358
I       10.55062131       2.16336220      16.35222398       0.51919890       0.22363305      -0.18473473      -0.54812704      -0.77416647      -3.99798786
I       18.69189547       0.14729072      16.52241475      -0.20226966       0.01986909       0.00173086      -2.95787657      -0.95846598      -1.21540989
I        3.39897905      11.07108039      18.15133159      -0.25631790       0.07352607       0.23997591       0.63333909       1.39522561      -3.06802527
I       12.56718007       6.63205350      15.72842464       0.38627029      -0.33439774       0.49286871      -0.41859008      -0.25320655       0.50913562
I        8.61117872       5.77442101       0.19438231      -0.26022602       0.10914678       0.17410911       1.83573998       2.50377572      -2.23271989
I        4.88999630       3.31964843      15.62328482       0.06740379      -0.31476439      -0.19875860       0.96216238       2.20064579       1.30414894
I       16.10978777       9.25000586       0.74628163      -0.23524382      -0.63933204      -0.28053951      -1.97141350      -1.47125094       2.84386738