768
Lattice="38.994998665037166 0.07106821782705662 0.35547318029268 0.20366633889610405 23.235525993811105 -0.050934670340891476 0.6633844787472418 -0.16287480069770385 18.246656201326342" Properties=species:S:1:pos:R:3:forces:R:3:momenta:R:3 pbc="T T T"
H        7.75018067       0.75212217       4.28115806      -1.49976877       0.51473660       0.27632523      -0.14030732       0.12061246      -0.04244378
H       12.05659524      12.37955978       2.25805058       0.62205440      -0.68666315       0.21328496       0.03833720      -0.02849155       0.14711068
H        2.63180865       6.59565767       4.66284142      -0.48566899      -0.29190559       0.35215644      -0.04985914      -0.01506034      -0.14687946
H       17.61644242       6.15511156       1.78670423      -0.23072407      -0.08744595       0.28651197       0.19527659       0.04063944      -0.11314852
H        6.18572213       0.02490178      10.18367328      -0.18885416       1.04377513      -0.14075560      -0.07636106      -0.21126646       0.06231409
H       12.40841450      10.29636207       3.51915940       0.33864964       0.21139836      -0.50928615      -0.05095521      -0.12412766      -0.16425732
H        4.27713232       5.93250483       7.63877794       0.06265271      -0.20809826       0.07987316       0.02285843      -0.23169107       0.09279685
H       16.10361269       7.00654002       3.50553495       0.05825456       0.16522828      -0.26668917       0.08810416       0.04420287      -0.07476711
H        5.17370835       1.58374154       5.63613407      -0.33639668      -0.21780829       0.24234884       0.01908477       0.07496830      -0.00264521
H       13.97319851       9.99563607       2.69894427      -0.68554626       0.59243648       0.43717064      -0.06036935       0.08674360      -0.00856620
H        5.23100078       7.37257555       8.02577044       0.79151181       0.48941752      -0.53492896      -0.01073988       0.14311115      -0.03407584
H       15.05174436       5.59150364       3.28823836       0.42316580       0.44496362      -0.25008028       0.10638781       0.05143617       0.13032153
H        6.05296887       3.27659973       4.14455120       0.19319863      -0.49136581       0.04112204       0.07009708      -0.05836597      -0.14401797
H       14.82784862      11.65628504       1.31092124      -0.21573339       0.64188853      -0.31000458      -0.19587666      -0.09376936      -0.01567381
H        4.10523301       9.22817568       4.50117185      -0.57983965      -0.66371685       0.38731107       0.13319856      -0.14817933       0.13360351
H       15.54967599       3.90901906       1.57107594       1.17958640       0.84392991      -0.26414480       0.14265490       0.19894592      -0.16783860
H        7.56169454       2.85658715       3.39427506       0.75609064       0.19129601      -0.62201295       0.07491807      -0.05993340       0.08929695
H       13.83661555      13.18175898       0.96722440       0.05804307      -0.52999714      -0.08119283      -0.05200923       0.22169176       0.05223974
H        2.78363133       8.63380097       5.70208569       0.31114909       0.15506553      -0.24880443      -0.09346167       0.03649796       0.00637601
H       17.40605214       4.29637585       5.31985613      -0.22836210       0.04394525       0.15018071      -0.05418166       0.10277913      -0.12165913
C        6.79893239       1.35764487       4.49693643       1.87588487       0.23895989      -0.37878747      -0.20123114       0.41698764      -0.47528475
C       13.01878183      11.75151597       2.20836598      -0.88421988       1.51435192      -0.32626262      -0.98082485       0.48927884      -0.10851117
C        3.40187603       7.28160480       4.33964567      -0.26513819       0.42940138       0.20063232      -0.48910247       0.30652630       0.29574360
C       16.68491113       5.61627068       2.07318839       0.33656046       0.16091374      -0.54954381       0.17144311      -0.03564987       0.63621380
N        5.91521464       0.92624429       5.35941981       0.21885430       0.14410971      -0.59158775      -0.33931982      -0.08935425      -0.05897755
N       13.17127775      10.63683108       2.90319116       0.22114519      -1.17608404       0.29955880      -0.44743960      -0.22266313      -0.25061885
N        4.41452004       6.79567673       8.18967614       0.06419561      -1.37019844      -0.87351110       0.37109387       0.39415749       0.10154830
N       15.83679013       6.17208543       2.90407390      -0.61451659      -0.69033571       0.77556555      -0.15541901      -0.76504617      -0.22128758
N        6.78737897       2.57053094       3.96182372      -1.02456581      -0.21324411       0.60658714      -0.09617414      -0.54913953       0.32186220
N       13.91727439      12.22507183       1.37020322       0.45489488      -0.70364870       0.37344186       0.62213015       0.24030619       0.04677420
N        3.50030663       8.43809893       4.96784796       0.19146505       0.43907634      -0.19463283       0.25892423       0.08254297      -0.05347348
N       16.47423731       4.45281325       1.46768059      -1.79639723      -0.49115153       0.79125579       0.56609919       0.44334970       0.69732695
Pb       1.16611790       2.40370239       1.75110409      -0.10049377       0.33931546       0.08858869       1.57013700      -1.48786990       2.09657967
Pb      18.74654083      10.45866377       4.77744193       0.03131678      -0.05165535      -0.14800529      -1.78062708      -2.05840497       1.51908401
Pb       8.93179262       8.39923356       2.51620123      -0.17283233       0.01126395      -0.23572084       1.81642761      -2.65005662      -1.08075704
Pb      10.90969055       4.79986240       4.35181916       0.08675939      -0.11629596       0.03265378       0.95062463      -1.37988567       1.97406862
I        0.37823018       4.60786004       4.18459495      -0.02680558      -0.07605262      -0.16440265       0.76553756       0.42762388       0.54709859
I       39.10230187       8.58063245       2.34870587      -0.07579105       0.09525551       0.10528708       1.47755295       2.25149096       0.23451192
I        9.78222528      10.33449630       4.59878561       0.40090268       0.21320303       0.18816535       0.09936409       0.63229578      -0.60113415
I        9.76045395       2.80243721       2.07692467       0.18656791       0.00080238      -0.05705790      -0.95397423      -0.43941458       1.25387945
I       17.56863437       1.05377002       2.43495962       0.11642718      -0.17192678      -0.06015461      -1.02653017      -0.72930788      -0.20786020
I        2.31021688      11.89195352       4.04607714      -0.05934728       0.09987374       0.01003174       1.67150395      -0.27351337       0.55254109
I       11.90355117       7.14120341       2.14883693       0.01421545      -0.22562372       0.02139859       1.68729843      -0.65854861      -0.41794912
I        7.98925381       6.30126039       4.78503953      -0.16000882      -0.21892551      -0.03005801       0.28280218      -1.91907672       0.00668659
I        3.95905828       3.88714918       1.61702089      -0.07808259      -0.11962629      -0.07220076      -1.01747721       1.33803447       2.00467336
I       16.07770198       8.87036794       5.25528335      -0.17741715       0.30888811      -0.07824288       0.00550389      -1.73665300      -1.00199665
I        5.97246328       9.69583118       2.69321895       0.16998027       0.18207077      -0.17283101       0.21997049       0.16653376       0.56813883
I       13.75306609       3.48987273       4.25925520       0.01384842      -0.14501987      -0.17180945      -0.87827184      -0.80119822       0.74524565
H        7.77915265       0.78375606       8.66714400       0.47297145      -0.63901340      -0.26998642       0.10533096       0.05285069       0.09684382
H       12.31068830      12.05978099       6.98454607      -0.40853290       0.31316721       0.21320473       0.05062824       0.05427866       0.09743221
H        2.57918417       6.63341822       9.11783401      -0.36027207      -0.04466503      -0.05647939      -0.17090185      -0.16690492      -0.16868908
H       17.68996296       6.28474293       6.44269838       0.39380723       0.12406040      -0.46887913      -0.01387136       0.02120157       0.13885245
H        5.97097055      -0.03277262       5.68436283      -0.07562271      -0.37415508       0.36182609      -0.07664249       0.08272231      -0.09153993
H       14.08369805      12.98835879       5.78888272       0.22109178       0.53939515       0.13299857       0.03668141      -0.12667074      -0.02163111
H        4.05169905       5.95386743       2.91459584      -0.03335477       0.28736719       0.11704786       0.12966197       0.00346642      -0.31229701
H       16.32095717       7.01334304       8.12515332       0.17858618       1.11788159       0.57690136       0.13027613       0.06934769      -0.11277499
H        5.36146423       1.65550402      10.16029863       0.16261459      -0.48414706      -0.23316585      -0.02742970       0.06502596       0.15009892
H       15.17924299      11.61070262       6.10473340       0.11196149       0.11151193       0.03369141      -0.05089141       0.07782213      -0.10905110
H        4.93693390       7.50730481       3.04187647      -0.20182586      -0.16184937      -0.17050920       0.13539966       0.02148790       0.16403228
H       15.41616464       5.53613827       8.16063409      -0.84470385      -0.43720496       0.29103143       0.05839583       0.19999798      -0.01643000
H        6.03123278       3.13420467       8.30258505      -0.38873649       0.57322245      -0.02925420       0.00031519      -0.15982082      -0.08616335
H       14.10476378       9.68417439       7.24560035      -0.03147396      -0.16768689       0.03652204      -0.06902920      -0.16984360      -0.00950739
H        4.41235983       9.01934720       9.42129110      -0.28638864      -0.45726673      -0.02858832      -0.09294603       0.12584781      -0.18939849
H       15.99056930       3.81147040       6.20459078      -0.74527775      -0.11601468       0.26946439       0.01112470      -0.05452544      -0.16822660
H        7.59661042       2.77283357       7.54750972      -0.05537391       0.11561957       0.02933709      -0.22775985      -0.02350536      -0.01887637
H       12.36383750       9.87771432       7.74010132      -0.15690004      -0.11911334       0.36110320      -0.02068438      -0.15594622       0.05147632
H        2.83957903       8.74106102      10.13972513      -0.22279657      -0.06020703       0.07328868      -0.11211243       0.17716214      -0.16427291
H       17.13742732       4.14728329       0.76896915       0.60368406      -0.32659927      -0.42743862       0.13461281      -0.02410151      -0.04780111
C        6.91042310       1.38541102       8.85900406       0.32439352       0.86176034      -0.61416735      -0.01512009       0.09357162      -0.16521294
C       13.27054419      11.51720620       6.90229379      -0.40843901      -0.88275183       0.35865206       0.16298665       0.15401260      -0.29547224
C        3.45788448       7.24793819       8.92971153      -0.18077161       0.22580799       0.81686182       0.22332460      -0.02069240      -0.88111435
C       16.85635281       5.65184301       6.70588685      -0.42185191      -0.10124693       0.57002227       0.80064860       0.19725862       0.13771144
N        6.06892763       0.98503699       9.76478213      -0.53689969      -1.01320160       1.03665194       0.24035150      -0.45104357       0.04099190
N       14.35617305      12.15281043       6.38082828       0.38183549      -0.59427841      -0.85860880       0.15471166      -0.50783572       0.39845630
N        4.14006294       6.90508068       3.31439317       0.99969833      -0.32752838      -0.44030507      -0.47470719      -0.14502516       0.55560352
N       16.16781837       6.09065422       7.78640388       0.48161015      -1.33609524      -1.26119065       0.01102936      -0.04029512       0.08118777
N        6.80092210       2.50810912       8.14063024       0.46591441      -0.64208898       0.32087892       0.62378796       0.06431018      -0.72816959
N       13.24251357      10.25334702       7.32424709       0.25644784       0.75729184      -0.31441247      -0.18865063      -0.88116051      -0.28379574
N        3.58534466       8.40052870       9.53207939       0.06414763       1.13913263       0.49836687       0.18321924       0.32254546       0.29768650
N       16.65536070       4.53859204       5.98946471       1.24389545       0.66531692      -0.18060216      -0.81635361      -0.02188227       0.58887351
Pb       1.45458350       2.55991695       6.27508171      -0.31242861       0.00519211       0.22548239      -1.70985081       0.04695702      -4.13271823
Pb      18.79478194      10.46099175       9.17981708       0.13311879       0.11128814      -0.20081028       0.33994099      -2.42008786      -2.16551851
Pb       9.09661915       8.22145314       7.08915104       0.21267143       0.17651896      -0.05426934       2.45959880       0.93469609       0.08996892
Pb      11.22207205       4.86062892       8.96888795      -0.05062774      -0.14644997      -0.07036946      -1.86685586       0.51807785       0.82280158
I        0.40019139       4.60707071       8.72578296       0.20236711      -0.34512947      -0.07968882      -0.82705541       1.01459965       2.48022178
I        0.49676763       8.25690545       6.67977482      -0.24299098       0.30972162       0.18745614      -0.30006908      -0.61648229       1.22506257
I       10.14533413      10.37954426       9.34408764       0.03102936       0.01753829      -0.17384650      -1.31087970       1.18776297      -1.11735066
I       10.12685612       2.70698461       6.72646310       0.04505709       0.11952758      -0.03065937      -1.18051029      -0.98780671       1.10014263
I       17.70861035       1.26834706       6.73070965       0.28790712      -0.32842989       0.28677737      -0.74202383      -0.29182603      -1.03149179
I        2.44305272      11.93423065       8.62745952      -0.05006217      -0.08656143      -0.08680990      -0.61970391      -0.16502757      -0.13156677
I       12.18091749       6.84184324       6.52000159      -0.02709764       0.05520756       0.15175654      -0.25341834      -0.88126499       0.35472820
I        8.47658057       6.00986374       9.22881960      -0.59735668       0.09377117       0.09339876       0.91852910      -1.01945953      -1.65501577
I        4.27173922       3.79376154       6.05895360      -0.14267838       0.39562230       0.12705383       1.21144169       0.16313120       0.83127623
I       16.13053699       9.02714278       9.59104902      -0.18882314       0.28705450       0.14829435      -0.58876307       1.72026382      -1.47461958
I        6.29587243       9.40712295       7.19839961      -0.02850551       0.35291939       0.05040473       2.97210111       0.18902635      -2.71783147
I       13.91033764       3.43830175       8.64790098       0.43411729      -0.13298932       0.05482344      -0.87337923      -2.35365735       2.38175012
H        8.08187291       0.67068477      13.40448616      -1.49976877       0.51473660       0.27632523      -0.14030732       0.12061246      -0.04244378
H       12.38828748      12.29812238      11.38137868       0.62205440      -0.68666315       0.21328496       0.03833720      -0.02849155       0.14711068
H        2.96350089       6.51422027      13.78616952      -0.48566899      -0.29190559       0.35215644      -0.04985914      -0.01506034      -0.14687946
H       17.94813466       6.07367416      10.91003233      -0.23072407      -0.08744595       0.28651197       0.19527659       0.04063944      -0.11314852
H        5.85402989       0.10633918       1.06034518      -0.18885416       1.04377513      -0.14075560      -0.07636106      -0.21126646       0.06231409
H       12.74010674      10.21492467      12.64248750       0.33864964       0.21139836      -0.50928615      -0.05095521      -0.12412766      -0.16425732
H        4.60882456       5.85106743      16.76210604       0.06265271      -0.20809826       0.07987316       0.02285843      -0.23169107       0.09279685
H       16.43530493       6.92510262      12.62886305       0.05825456       0.16522828      -0.26668917       0.08810416       0.04420287      -0.07476711
H        5.50540059       1.50230414      14.75946217      -0.33639668      -0.21780829       0.24234884       0.01908477       0.07496830      -0.00264521
H       14.30489075       9.91419867      11.82227237      -0.68554626       0.59243648       0.43717064      -0.06036935       0.08674360      -0.00856620
H        5.56269302       7.29113815      17.14909854       0.79151181       0.48941752      -0.53492896      -0.01073988       0.14311115      -0.03407584
H       15.38343660       5.51006624      12.41156646       0.42316580       0.44496362      -0.25008028       0.10638781       0.05143617       0.13032153
H        6.38466111       3.19516233      13.26787930       0.19319863      -0.49136581       0.04112204       0.07009708      -0.05836597      -0.14401797
H       15.15954086      11.57484764      10.43424934      -0.21573339       0.64188853      -0.31000458      -0.19587666      -0.09376936      -0.01567381
H        4.43692525       9.14673828      13.62449995      -0.57983965      -0.66371685       0.38731107       0.13319856      -0.14817933       0.13360351
H       15.88136823       3.82758166      10.69440404       1.17958640       0.84392991      -0.26414480       0.14265490       0.19894592      -0.16783860
H        7.89338678       2.77514975      12.51760316       0.75609064       0.19129601      -0.62201295       0.07491807      -0.05993340       0.08929695
H       14.16830779      13.10032158      10.09055250       0.05804307      -0.52999714      -0.08119283      -0.05200923       0.22169176       0.05223974
H        3.11532357       8.55236357      14.82541379       0.31114909       0.15506553      -0.24880443      -0.09346167       0.03649796       0.00637601
H       17.73774438       4.21493845      14.44318423      -0.22836210       0.04394525       0.15018071      -0.05418166       0.10277913      -0.12165913
C        7.13062463       1.27620747      13.62026453       1.87588487       0.23895989      -0.37878747      -0.20123114       0.41698764      -0.47528475
C       13.35047407      11.67007857      11.33169408      -0.88421988       1.51435192      -0.32626262      -0.98082485       0.48927884      -0.10851117
C        3.73356827       7.20016740      13.46297377      -0.26513819       0.42940138       0.20063232      -0.48910247       0.30652630       0.29574360
C       17.01660337       5.53483328      11.19651649       0.33656046       0.16091374      -0.54954381       0.17144311      -0.03564987       0.63621380
N        6.24690688       0.84480689      14.48274791       0.21885430       0.14410971      -0.59158775      -0.33931982      -0.08935425      -0.05897755
N       13.50296999      10.55539368      12.02651926       0.22114519      -1.17608404       0.29955880      -0.44743960      -0.22266313      -0.25061885
N        4.74621228       6.71423933      17.31300424       0.06419561      -1.37019844      -0.87351110       0.37109387       0.39415749       0.10154830
N       16.16848237       6.09064803      12.02740200      -0.61451659      -0.69033571       0.77556555      -0.15541901      -0.76504617      -0.22128758
N        7.11907121       2.48909354      13.08515182      -1.02456581      -0.21324411       0.60658714      -0.09617414      -0.54913953       0.32186220
N       14.24896663      12.14363443      10.49353132       0.45489488      -0.70364870       0.37344186       0.62213015       0.24030619       0.04677420
N        3.83199887       8.35666153      14.09117606       0.19146505       0.43907634      -0.19463283       0.25892423       0.08254297      -0.05347348
N       16.80592955       4.37137585      10.59100869      -1.79639723      -0.49115153       0.79125579       0.56609919       0.44334970       0.69732695
Pb       1.49781014       2.32226499      10.87443219      -0.10049377       0.33931546       0.08858869       1.57013700      -1.48786990       2.09657967
Pb      19.07823307      10.37722637      13.90077003       0.03131678      -0.05165535      -0.14800529      -1.78062708      -2.05840497       1.51908401
Pb       9.26348486       8.31779616      11.63952933      -0.17283233       0.01126395      -0.23572084       1.81642761      -2.65005662      -1.08075704
Pb      11.24138279       4.71842500      13.47514726       0.08675939      -0.11629596       0.03265378       0.95062463      -1.37988567       1.97406862
I        0.70992242       4.52642264      13.30792305      -0.02680558      -0.07605262      -0.16440265       0.76553756       0.42762388       0.54709859
I       39.43399410       8.49919505      11.47203397      -0.07579105       0.09525551       0.10528708       1.47755295       2.25149096       0.23451192
I       10.11391752      10.25305890      13.72211371       0.40090268       0.21320303       0.18816535       0.09936409       0.63229578      -0.60113415
I       10.09214619       2.72099981      11.20025277       0.18656791       0.00080238      -0.05705790      -0.95397423      -0.43941458       1.25387945
I       17.90032661       0.97233262      11.55828772       0.11642718      -0.17192678      -0.06015461      -1.02653017      -0.72930788      -0.20786020
I        2.64190912      11.81051612      13.16940524      -0.05934728       0.09987374       0.01003174       1.67150395      -0.27351337       0.55254109
I       12.23524341       7.05976601      11.27216503       0.01421545      -0.22562372       0.02139859       1.68729843      -0.65854861      -0.41794912
I        8.32094605       6.21982299      13.90836763      -0.16000882      -0.21892551      -0.03005801       0.28280218      -1.91907672       0.00668659
I        4.29075052       3.80571178      10.74034899      -0.07808259      -0.11962629      -0.07220076      -1.01747721       1.33803447       2.00467336
I       16.40939422       8.78893054      14.37861145      -0.17741715       0.30888811      -0.07824288       0.00550389      -1.73665300      -1.00199665
I        6.30415552       9.61439378      11.81654705       0.16998027       0.18207077      -0.17283101       0.21997049       0.16653376       0.56813883
I       14.08475833       3.40843533      13.38258330       0.01384842      -0.14501987      -0.17180945      -0.87827184      -0.80119822       0.74524565
H        8.11084489       0.70231866      17.79047210       0.47297145      -0.63901340      -0.26998642       0.10533096       0.05285069       0.09684382
H       12.64238054      11.97834359      16.10787417      -0.40853290       0.31316721       0.21320473       0.05062824       0.05427866       0.09743221
H        2.91087641       6.55198082      18.24116211      -0.36027207      -0.04466503      -0.05647939      -0.17090185      -0.16690492      -0.16868908
H       18.02165520       6.20330553      15.56602648       0.39380723       0.12406040      -0.46887913      -0.01387136       0.02120157       0.13885245
H        6.30266279      -0.11421002      14.80769093      -0.07562271      -0.37415508       0.36182609      -0.07664249       0.08272231      -0.09153993
H       14.41539029      12.90692139      14.91221082       0.22109178       0.53939515       0.13299857       0.03668141      -0.12667074      -0.02163111
H        4.38339129       5.87243003      12.03792394      -0.03335477       0.28736719       0.11704786       0.12966197       0.00346642      -0.31229701
H       16.65264941       6.93190564      17.24848142       0.17858618       1.11788159       0.57690136       0.13027613       0.06934769      -0.11277499
H        5.02977199       1.73694142       1.03697053       0.16261459      -0.48414706      -0.23316585      -0.02742970       0.06502596       0.15009892
H       15.51093523      11.52926522      15.22806150       0.11196149       0.11151193       0.03369141      -0.05089141       0.07782213      -0.10905110
H        5.26862614       7.42586741      12.16520457      -0.20182586      -0.16184937      -0.17050920       0.13539966       0.02148790       0.16403228
H       15.74785688       5.45470087      17.28396219      -0.84470385      -0.43720496       0.29103143       0.05839583       0.19999798      -0.01643000
H        6.36292502       3.05276727      17.42591315      -0.38873649       0.57322245      -0.02925420       0.00031519      -0.15982082      -0.08616335
H       14.43645602       9.60273699      16.36892845      -0.03147396      -0.16768689       0.03652204      -0.06902920      -0.16984360      -0.00950739
H        4.08066759       9.10078460       0.29796300      -0.28638864      -0.45726673      -0.02858832      -0.09294603       0.12584781      -0.18939849
H       16.32226154       3.73003300      15.32791888      -0.74527775      -0.11601468       0.26946439       0.01112470      -0.05452544      -0.16822660
H        7.92830266       2.69139617      16.67083782      -0.05537391       0.11561957       0.02933709      -0.22775985      -0.02350536      -0.01887637
H       12.69552974       9.79627692      16.86342942      -0.15690004      -0.11911334       0.36110320      -0.02068438      -0.15594622       0.05147632
H        2.50788679       8.82249842       1.01639703      -0.22279657      -0.06020703       0.07328868      -0.11211243       0.17716214      -0.16427291
H       17.46911956       4.06584589       9.89229725       0.60368406      -0.32659927      -0.42743862       0.13461281      -0.02410151      -0.04780111
C        7.24211534       1.30397362      17.98233216       0.32439352       0.86176034      -0.61416735      -0.01512009       0.09357162      -0.16521294
C       13.60223643      11.43576880      16.02562189      -0.40843901      -0.88275183       0.35865206       0.16298665       0.15401260      -0.29547224
C        3.78957672       7.16650079      18.05303963      -0.18077161       0.22580799       0.81686182       0.22332460      -0.02069240      -0.88111435
C       17.18804505       5.57040561      15.82921495      -0.42185191      -0.10124693       0.57002227       0.80064860       0.19725862       0.13771144
N        5.73723539       1.06647439       0.64145403      -0.53689969      -1.01320160       1.03665194       0.24035150      -0.45104357       0.04099190
N       14.68786529      12.07137303      15.50415638       0.38183549      -0.59427841      -0.85860880       0.15471166      -0.50783572       0.39845630
N        4.47175518       6.82364328      12.43772127       0.99969833      -0.32752838      -0.44030507      -0.47470719      -0.14502516       0.55560352
N       16.49951061       6.00921682      16.90973198       0.48161015      -1.33609524      -1.26119065       0.01102936      -0.04029512       0.08118777
N        7.13261434       2.42667172      17.26395834       0.46591441      -0.64208898       0.32087892       0.62378796       0.06431018      -0.72816959
N       13.57420581      10.17190962      16.44757519       0.25644784       0.75729184      -0.31441247      -0.18865063      -0.88116051      -0.28379574
N        3.25365242       8.48196610       0.40875129       0.06414763       1.13913263       0.49836687       0.18321924       0.32254546       0.29768650
N       16.98705294       4.45715464      15.11279281       1.24389545       0.66531692      -0.18060216      -0.81635361      -0.02188227       0.58887351
Pb       1.78627574       2.47847955      15.39840981      -0.31242861       0.00519211       0.22548239      -1.70985081       0.04695702      -4.13271823
Pb      19.12647418      10.37955435      18.30314518       0.13311879       0.11128814      -0.20081028       0.33994099      -2.42008786      -2.16551851
Pb       9.42831139       8.14001574      16.21247914       0.21267143       0.17651896      -0.05426934       2.45959880       0.93469609       0.08996892
Pb      11.55376429       4.77919152      18.09221605      -0.05062774      -0.14644997      -0.07036946      -1.86685586       0.51807785       0.82280158
I        0.73188363       4.52563331      17.84911106       0.20236711      -0.34512947      -0.07968882      -0.82705541       1.01459965       2.48022178
I        0.82845987       8.17546805      15.80310292      -0.24299098       0.30972162       0.18745614      -0.30006908      -0.61648229       1.22506257
I        9.81364189      10.46098166       0.22075954       0.03102936       0.01753829      -0.17384650      -1.31087970       1.18776297      -1.11735066
I       10.45854836       2.62554721      15.84979120       0.04505709       0.11952758      -0.03065937      -1.18051029      -0.98780671       1.10014263
I       18.04030259       1.18690966      15.85403775       0.28790712      -0.32842989       0.28677737      -0.74202383      -0.29182603      -1.03149179
I        2.77474496      11.85279325      17.75078762      -0.05006217      -0.08656143      -0.08680990      -0.61970391      -0.16502757      -0.13156677
I       12.51260973       6.76040584      15.64332969      -0.02709764       0.05520756       0.15175654      -0.25341834      -0.88126499       0.35472820
I        8.14488833       6.09130114       0.10549150      -0.59735668       0.09377117       0.09339876       0.91852910      -1.01945953      -1.65501577
I        4.60343146       3.71232414      15.18228170      -0.14267838       0.39562230       0.12705383       1.21144169       0.16313120       0.83127623
I       15.79884475       9.10858018       0.46772092      -0.18882314       0.28705450       0.14829435      -0.58876307       1.72026382      -1.47461958