768
Lattice="38.994998665037166 0.07106821782705662 0.35547318029268 0.20366633889610405 23.235525993811105 -0.050934670340891476 0.6633844787472418 -0.16287480069770385 18.246656201326342" Properties=species:S:1:pos:R:3:forces:R:3:momenta:R:3 energy=-3625.6083740304234 stress="0.0 0.0 0.0 0.0 0.0 0.0 0.0 0.0 0.0" pbc="T T T"
H        8.43307019       0.84696705       3.97207008       0.99183997      -0.65543095       0.03815285      -0.30429789      -0.29262499      -0.09377546
H       12.26214102      11.94774733       2.38047042      -0.59642980       0.76493690       0.15521724      -0.26564429       0.00106282       0.09249608
H        2.79675002       6.26520428       4.98404697       0.62097561       0.25620948       0.02446505       0.05675854      -0.11365449       0.08026635
H       18.32118785       6.35083045       2.83956634      -0.66927418      -0.56445551       0.05020677      -0.02559668      -0.11912959       0.07753001
H        7.04205022      -0.02622724      10.31146872       0.16255136      -0.09665410      -0.14525990       0.06380760       0.05479807      -0.22953851
H       12.96845119      10.01247645       3.89599252      -1.76710392      -0.19854691       1.21546341      -0.04577899       0.15459213      -0.13644013
H        5.22407806       5.94184445       8.14899249      -0.22919692      -2.62966839      -0.99032704      -0.08648884       0.03671753       0.02255985
H       16.64603691       7.15967199       4.26176836      -0.27065544       0.88480060       0.64532919      -0.14178064       0.13073791       0.01039675
H        5.78745738       1.27140847       5.33168490       1.17711519      -0.69872170      -0.34777449       0.22145212       0.30639163      -0.12703668
H       14.51228834       9.98696420       3.12484917       0.22715376      -0.50439315       0.45335683       0.17952632      -0.03516198       0.15302440
H        5.73690303       7.67248479       7.96441372      -0.68342491      -0.68241888       0.46870494       0.01675048      -0.12398678       0.09210830
H       15.54479140       5.69833403       3.85609567       0.14570366       0.90937882       0.24121665      -0.27986909       0.04175949       0.25368715
H        6.89875213       3.29473689       4.20699175      -0.13449125       0.77106423       0.14129786       0.32754283       0.13403565       0.01549087
H       15.10987105      11.30208687       1.51030268      -0.49657942       0.13292000       0.09741207      -0.53771479      -0.09621760       0.09077952
H        4.47287003       8.74740851       5.34277533       1.02872514       0.65552468      -0.44129716      -0.02344176      -0.01231398      -0.09703693
H       15.96968929       4.26838372       1.94049996       1.24862799       0.75969743      -0.31325913       0.04517953       0.13821554       0.08785111
H        8.52146157       3.08501146       3.48938490      -0.00065586       0.23113711      -0.04987117      -0.19673143       0.04403171      -0.03650430
H       13.95158428      12.62168752       0.80960059      -0.21320795       0.22977357       0.13037873      -0.00192037       0.25122548       0.29437060
H        3.05019264       8.28683184       6.15994111      -0.62355353       0.19817968       0.38856509       0.16011750       0.17914707      -0.33378881
H       17.56584426       4.25378638       5.71156883      -0.15661827       0.44288942       0.58517624       0.02048377      -0.23723965      -0.08841560
C        7.64546091       1.46863788       4.33046959       0.96402299       0.02412924      -0.73124571       0.53306652      -0.12113163      -0.65280294
C       13.28479170      11.47041654       2.38959391      -1.71509745      -1.26345686       2.25278822      -0.51168226      -0.68246244      -0.88320003
C        3.64610288       6.95501151       4.76783717      -0.71715367      -0.28321900      -0.25004415      -1.25541354      -0.51491686       0.15200785
C       17.27414140       5.82576305       2.85674227      -0.58766245       1.36815382       0.97529391      -0.71418344       0.47114840       1.43925982
N        6.67195934       0.82980322       4.92174602      -1.69977886      -0.21665217       1.29242715      -0.28138915      -0.80814499      -0.39932663
N       13.64734424      10.48883285       3.37106217       1.87915956      -0.38205598      -1.75591132      -0.09323024       0.31292111      -0.12937151
N        5.17963596       6.83305475       8.48794347       0.15543116       2.69072157       0.76972338       0.77280025      -1.01314184       0.25542317
N       16.39771022       6.31970066       3.74085780       0.65657562      -2.25421884      -1.63947449      -0.64404185      -0.49633527      -0.20979771
N        7.77319794       2.76798955       4.11059771      -0.33859515       1.43485748      -1.36052937       1.20108816       1.66780632      -0.53279705
N       14.12126364      11.81152024       1.52105792       2.62762143       1.27063523      -2.47150048       0.78059337       0.49561190      -0.06428882
N        3.76384900       8.06419800       5.47645068      -0.73931842      -0.46710609       0.38882741       0.67514104      -1.18017654      -0.45057141
N       16.96929304       4.78252172       2.03724691       0.42480428      -0.47871242      -0.59016964       1.04631550       1.00862976       1.30369649
Pb       1.62618700       2.18836753       2.55005045      -0.33910602      -0.34336490      -0.05306388       0.82830575       1.18753913      -3.00757865
Pb      19.13733314      10.26169109       5.12884116       0.21997509       0.89186373      -0.05429705       2.78430841      -0.50931165      -1.47183993
Pb       9.31853553       8.08050851       2.59340311      -0.83294993       0.17754081      -0.23681833       3.77640881      -1.17132255      -2.68060717
Pb      11.86178540       4.88387655       4.41193123      -0.29836232      -0.03727979       0.05326944       0.52219297      -4.13842259      -3.31854500
I        0.81222018       4.35474526       4.88889635      -0.01653063      -0.13326771      -0.04230913       0.06119516       1.75922224      -2.76818154
I        0.44945583       8.23192414       2.31722643      -0.00130885       0.22462853      -0.05004440       0.06147031      -2.24136716       1.09295974
I       10.27177786      10.03350083       4.70752821       0.16845622       0.17111071       0.29846428       3.07276464      -1.16113889       2.87928448
I       10.58200006       3.07890955       1.98377445      -0.00246133      -0.28612409       0.22818316       0.00347514      -2.93868036       1.57663724
I       17.92117709       1.32252728       3.02124853       0.15146955      -0.51986766      -0.09287320      -1.85399824       1.71025952       2.67056901
I        2.65751810      11.84040039       4.36585617       0.18811017       0.04752568       0.05684957      -4.34169553      -0.85706332      -0.02165359
I       12.19166253       7.17376516       2.16461325       0.28021951      -0.07355889      -0.26943107       1.16161030      -0.75361807      -0.90306581
I        8.31920167       5.85541702       4.59815373       0.17367260      -0.00610546       0.21160197      -0.34431866       0.53949577      -4.63944914
I        4.48808317       3.17060542       2.16717202       0.10428019       0.66376751       0.04867498       0.89909566       0.27913108      -1.99502844
I       16.43038565       9.21094743       5.55591020      -0.49344221      -0.26400792       0.07420426      -1.64197681       1.15815595      -0.72234276
I        6.31681464       9.72111023       3.03428577       0.43463223      -0.28771649       0.13534807       0.99813318      -1.34673739      -2.40262485
I       14.51244841       3.43671429       4.14587013      -0.17011138      -0.27494065       0.02246850      -0.83031163      -0.39211589       3.74694882
H        8.85568302       0.44953985       8.81547489      -0.37089144       0.29806768      -0.07802476       0.15384006       0.13070046      -0.06118192
H       12.73733696      12.12548721       7.21447761       0.89832275      -0.83932234       0.10784215      -0.07282163      -0.35454198      -0.36367644
H        3.48044139       6.42163150       9.69916935       0.10324409      -0.14097570      -0.13742853      -0.05228523      -0.04545513      -0.29003488
H       18.09102312       6.23682924       7.15753058       0.80315227       0.21939127      -0.63698561       0.48462729       0.11520234      -0.03195890
H        6.99681374      -0.13469615       5.12057839      -1.08222241      -0.88147909       0.85342520      -0.09371827       0.19672126      -0.28225465
H       14.69427375      13.12835413       6.18578142      -0.20534078      -0.93025427      -0.37659837       0.14478816       0.10213941      -0.00827575
H        4.67542184       5.72675968       3.42956954      -0.62280281      -0.65649164      -0.50650268       0.20464851      -0.13297096       0.21509164
H       16.45871964       7.08884505       8.51913857       0.36227069       0.14424685       0.17163078       0.08667760       0.03235962       0.00272137
H        6.04234906       1.42108865       9.65352058       0.64983813      -0.45586114       0.08554597       0.04545993       0.01240894      -0.07832941
H       15.46576790      11.46732219       6.22714439       0.72467538       0.31031076      -0.70549047       0.29353653       0.04274189      -0.14546466
H        5.19114423       7.46209650       3.58720132       0.10012416      -0.34003290      -0.36929025       0.21611040      -0.22974328      -0.20298140
H       15.44438893       5.66020514       8.32741879       0.18488710       0.18837877      -0.28764218       0.05011650       0.09211382       0.00348095
H        7.10049132       2.88306891       8.11524060       0.62016071      -0.39367849      -0.68534624       0.34481306      -0.15459240       0.24511119
H       14.42707117       9.61932143       7.15719241       0.51925671      -0.11721204       0.29909238       0.22449651      -0.38035582       0.13504090
H        4.57633962       9.34887706       9.07371831      -0.99605624      -0.92807102       0.36178111      -0.31572689       0.08341562      -0.24099565
H       16.12704396       3.94972339       6.57767531      -1.44905287      -0.48902154       0.31759540       0.25360082       0.03596141      -0.12485493
H        8.54480381       2.31107028       7.22335013       1.13412667       0.73019468      -0.53656476      -0.41344577      -0.19416109       0.03355842
H       13.10519723      10.07488947       8.22491037      -1.60204242      -1.14037465       0.85363589      -0.26262974      -0.26202044      -0.14088057
H        3.19219388       8.87041713      10.13362484      -0.18760248      -0.23109260       0.17320631       0.02655214      -0.12702294      -0.19860676
H       17.81760508       4.56253762       1.44726664      -1.06800211      -0.61973233       0.33125920      -0.15888280      -0.24859380      -0.11084591
C        7.93309492       1.12965219       8.81706265       0.87381145      -0.56767184      -0.40965125      -1.36715477       0.71326715      -0.35917228
C       13.66132082      11.48680265       7.03348898      -0.79742003       3.00611422       0.30388267       0.88321108      -1.21395728      -0.17300907
C        4.16458918       7.20557120       9.26432095       0.45045345       1.00082357       0.40768813      -0.64233107      -0.52412940      -0.92707744
C       17.15949107       5.67901852       7.23280112      -0.77791621      -2.12292799      -1.74210614      -0.62840133      -0.63446503       0.89427275
N        6.99879602       0.82817016       9.69002020      -1.08143249       0.32750837       0.53551112      -0.07492527       0.18255196      -0.71104403
N       14.61400948      12.05241416       6.32709243      -0.09299857       0.32767367       0.14546155      -0.42913766      -0.38569318       1.09652591
N        4.43787024       6.72466998       3.70742926       1.12392434       0.64442182       0.44777167      -0.38494490       0.66480634      -0.86250657
N       16.30539972       6.18567601       8.06194838      -1.02847052      -0.29684600       1.05200490      -0.33152357      -0.51393315       0.51619888
N        7.85305383       2.18373005       7.95438616      -1.99077903      -0.11181372       1.38387583       0.36507480       0.38256463      -0.37355246
N       13.78996305      10.32933092       7.58014170       0.43332733      -0.67320543      -0.62285405       1.27027376      -0.59871539      -0.20816519
N        4.00054112       8.52248957       9.61105065       1.00406757       0.35211259      -0.94537086      -0.39347660       0.30554303       0.53318052
N       16.84855357       4.59237630       6.38531918       2.34915466       2.12431150       0.49741876      -0.47310702       0.25199702      -0.07383710
Pb       2.33418740       2.35446513       6.96591688      -0.46146643      -0.54062913      -0.05478240      -0.99079813      -4.51061037       2.77019697
Pb      19.47213600      10.32688838       9.63442760      -0.22303929       0.22384657      -0.15652581      -2.19270577       0.66263928       1.95104110
Pb       9.41799037       7.85912869       6.90997769      -0.11972736      -0.13530204       0.27107634       3.64421770       0.59502731      -0.54035749
Pb      11.80346885       4.49433085       9.19417617      -0.42381108       0.14917590      -0.31262430      -0.37907303      -1.36492052       1.51384693
I        1.05977989       4.17787010       9.02926094       0.02464482       0.33480069       0.38017130      -1.20796419       1.94548034      -0.59592603
I        0.68985524       8.38296516       6.97610106      -0.04024347      -0.26125895       0.13178178      -1.20036303       3.89718395      -3.85973082
I       10.55243889       9.90387352       9.09180231       0.03661855       0.19461245       0.15774673      -0.98741565      -1.31160555       3.89084604
I       10.96658762       2.65757637       6.48499384       0.06290976      -0.07980852       0.10242751       0.51942574       1.34870125      -1.48862933
I       18.02765486       0.87567696       7.45248484       0.04197169       0.18777939       0.08073772      -1.99204168       0.59072584       2.89504020
I        2.66428983      11.91833491       8.89172217      -0.09430273       0.01257934       0.13207528      -1.06160915      -1.75781103      -1.67477147
I       12.60482469       6.93995300       6.86119816      -0.10426209      -0.14229428       0.00541035      -1.92030496       3.14997201       0.38802936
I        8.59841269       5.62946277       9.30329341       0.21904634       0.47044743      -0.04317645       0.04960685       0.08117853       0.57662620
I        4.91860500       3.78819308       6.30907828       0.00642436      -0.04103253       0.08170965       2.33789391       2.04715130      -1.02226347
I       16.68074156       9.06965966      10.16174486      -0.03293749       0.19805390      -0.05885221       0.10596380      -3.32513697      -0.96304845
I        6.67816606       9.54155757       7.71017339       0.15890255       0.02396321      -0.15673573       1.97551655      -0.27318300       0.85357586
I       14.57656298       3.39698664       8.51476448       0.12090958      -0.37640228       0.37652275      -2.37916722      -1.48729866       0.81749422
H        8.26166024       0.52234113      13.05300421       0.05637456      -0.17054884       0.35438705       0.10217697      -0.15524649       0.20505039
H       12.21285371      11.49023641      11.10535776      -0.05117228       0.32884695       0.37879645      -0.12458274      -0.27526376      -0.21085802
H        3.08151903       5.82341429      13.53080534      -1.11223204      -0.42042174       0.68597795      -0.19020622      -0.06812669      -0.20265613
H       17.92069244       6.93814172      11.37982697       0.53491985       0.62401777       0.14250534      -0.18635510       0.09565460      -0.24513704
H        6.80581165      -0.27982485       1.83082790       0.30625248       0.83565809      -0.71060354      -0.14072888       0.04620058      -0.12946580
H       13.18277207       9.48185039      12.31009847      -0.67489595       0.23924621       0.33200277      -0.17962453      -0.01447725      -0.07995980
H        3.58294668       5.92752014      -1.47236964      -0.42316022      -0.11175138       0.18017619       0.03014275      -0.11489052      -0.27036703
H       16.37246976       7.11665603      13.41492528       0.09365778      -1.24541020      -0.87196293       0.22988174       0.01815958       0.03181591
H        5.82096953       1.28653470      14.58041989      -0.94361091       0.60087539       0.79932343       0.05191527       0.02422088      -0.08538895
H       15.04547400       9.83606435      11.77355659      -1.06118389       0.38376405       0.48300526       0.07536070       0.00603388      -0.11389738
H        5.04358767       7.00974926      -0.86804850      -0.27374553       0.24839167       0.13212774       0.20641337      -0.12531365       0.02796836
H       15.85639858       5.37938634      13.25824454       0.30835517      -0.20944684      -0.35012639      -0.19321871       0.54745163       0.13299169
H        6.92708455       3.17604711      13.88978510      -0.13360132       0.45553565      -0.12089213       0.25471192      -0.24307894      -0.06625686
H       15.40783462      11.77978149      10.47231892       0.14322934       0.38384508      -0.19286473       0.03585973      -0.25330083      -0.20571655
H        4.44620749       8.52232376      13.47198818       1.91800926       1.06478962      -0.53612891       0.41378385      -0.15412582      -0.07043896
H       16.82424776       4.05419805      11.57596861       1.79567457       1.13205455      -0.54483838       0.15496158       0.00872805       0.20800082
H        8.19967716       2.89642734      12.60621690       0.70982404       0.19384945      -0.19473602      -0.02750211       0.12783049      -0.24877511
H       13.97158152      12.98851531      10.07770596      -0.00878825      -0.06488856       0.00686819       0.05454839       0.36874515      -0.12601177
H        3.20115427       7.89185979      14.64557608       0.91821129       0.10916438      -1.03525147       0.10551719       0.03739156       0.41074204
H       18.44491821       3.87046171      15.41850194      -0.92781607       0.65219111       0.27336800       0.12007743       0.26689887       0.03976486
C        7.54173366       1.21400533      13.57191751      -0.39370100      -0.59086499       0.21273502       0.13299352      -0.01798619      -0.97762186
C       13.46383412      11.25238131      11.17268133      -1.88898946       0.03557022       0.70311497       0.19195456      -0.34527633       0.55562519
C        3.78953135       6.56078294      13.23180743       3.20811414       1.16754782      -1.05557189       1.11111384      -0.58716148       0.70509004
C       17.32882252       6.07472658      11.81295591      -0.95429076      -2.35872761      -0.73299037       0.32439494      -0.41145101       0.61234714
N        6.57302479       0.69878299      14.32139783       1.32773250      -0.63192151      -0.64007007      -0.22295070       0.11141227       0.56756542
N       13.89021753      10.12298729      11.83702045       2.62377394      -0.44260862      -1.28779639      -0.79456171      -0.13819220      -0.10023554
N        3.92062962       6.74003512      -0.82488207       0.64016194       0.07864651       0.10223445      -0.26804003      -0.48796188      -0.10642995
N       16.44147615       6.19032102      12.83648336      -0.00531928       1.96574294       1.29596159      -0.47931049      -0.21250544      -1.15921709
N        7.61802301       2.55090192      13.38919159      -0.84238293       0.52577427      -0.18286313       1.51822869      -0.19472103       1.02246619
N       14.32001784      12.08691628      10.52965529       1.00150140      -1.03496916      -0.23484323      -0.57033583      -0.33056170      -0.02766997
N        3.85250170       7.78752847      13.74804701      -3.80490020      -2.01212857       1.62606280      -0.39225047      -0.04721991      -0.39777327
N       17.48190975       4.86171750      11.22580098      -1.04566992      -0.52365914      -0.17715487      -0.21937757      -0.83914266       0.25087795
Pb       1.87440054       2.13446643      11.55806242       0.02159819      -0.35927451      -0.35647830      -0.05171223       3.25055870       4.08895178
Pb      19.39697140      10.33791997      14.19571762       0.40856354       0.36899455      -0.21130069       1.72846453      -2.72455728      -3.07085094
Pb       9.63982541       8.11481260      11.51913835      -0.45357588      -0.51259468       0.25613376      -4.78780712      -2.40068028      -2.45679198
Pb      11.80101645       4.68159123      13.46407478      -0.63716898      -0.35772340      -0.01164978      -1.18099664      -5.92643574      -1.54440352
I        0.72041895       4.27582552      13.61027704       0.05923348       0.22821080       0.03246694      -3.69087889       0.23043544       1.68137436
I        0.90943525       8.18358104      11.50567113      -0.11814953       0.05052301      -0.26975947      -4.90863643       2.27570220       1.88769550
I       10.62905379      10.28759569      13.53522511      -0.02589106      -0.30731685       0.31211386       0.76217787       2.46559740      -0.42163762
I       10.17748285       2.50435401      11.13012549       0.79801826       0.10228245       0.14193398      -0.88824319       2.20817300      -1.18039634
I       18.13550602       0.96253536      11.87702160       0.03462344      -0.14056420       0.10488824       1.80960014      -2.60345274      -0.04223316
I        2.98845544      11.83321188      13.27203848      -0.22763613      -0.15425667      -0.04158215      -1.17152044       0.68021796      -1.97880625
I       12.94051857       6.70074957      11.34344236      -0.33070544       0.11888917      -0.19289868       1.09660654      -1.90902444      -0.37784388
I        8.40136331       5.81607093      13.95434212       0.71637352       0.62544354      -0.14430439       2.84434633       1.54627457      -1.59595328
I        4.75771824       3.01764139      10.67819444       0.02737110       0.48836890       0.09915817      -0.23193703      -0.95404475       2.14359550
I       16.81043120       8.98009665      14.73416342      -0.56117840       0.30723428      -0.01309463      -1.33144945      -0.89027545       0.57359937
I        6.70871012       9.36452639      11.96267205       0.29744777      -0.13111424      -0.16018400       2.41608954      -2.15573208       1.76703836
I       14.55426885       3.30594775      13.31007573       0.04137420      -0.15188920      -0.16719427      -0.88844827      -2.40523526       0.42553310
H        8.03410166       0.40244593      -0.48681928       0.28758975      -0.04513994       0.10399664       0.03389343      -0.34248821       0.04197664
H       12.46095281      11.77975333      16.41638144      -0.16428822       0.42721621       0.07017526       0.20879925       0.08339441       0.45777495
H        1.92199084       7.00763828       0.07563491       2.04726553       1.08480282      -0.25715364       0.18569526       0.02755823       0.06796442
H       18.63714413       6.19619821      15.79969508      -0.81498625      -0.67432049       0.56482416      -0.03241975       0.13447461      -0.13214686
H        6.56871205      -0.30449576      14.57690874      -0.07033594      -0.08036645       0.10923378       0.03476595      -0.24524559      -0.31737973
H       13.90346693      12.54963823      14.61354626      -0.30098804       1.32814255      -0.37330240       0.16079026       0.16176911      -0.37187261
H        4.75533751       5.10300213      11.97971246      -0.29165540       2.22103540       1.06230373       0.21864158      -0.02295797       0.01640502
H       17.04652608       7.38749018      17.16685685       0.33384865       1.14520953       0.31526286      -0.37162152       0.03676880      -0.05121512
H        6.16389123       1.45348178       1.92073582       0.56693106      -0.66440063       0.07795855       0.16944788       0.45344736      -0.02222150
H       14.98603874      11.18263236      14.82860067      -1.07758664       0.52400019       0.46416165       0.01227176      -0.11552421      -0.14439059
H        5.48609593       6.78725283      11.94413968      -2.14596917      -1.14545900       1.18668791      -0.12321224       0.00522473      -0.11328080
H       15.92415651       6.13690813      17.38433722      -0.70173794      -1.43245795      -0.16519233       0.15692653       0.04304923      -0.14882408
H        6.49662205       3.05056641       0.39412401       0.56520439      -0.64930351      -0.09657351      -0.38557724       0.00056491      -0.31711289
H       14.45724404       9.58796946      16.50201454       0.55910888      -1.05928147       0.37797901       0.11418178      -0.14891035       0.02221797
H        4.74084085       8.65514207       1.11609584       2.25669193       1.98537056      -0.31503487      -0.02997600       0.02624635       0.60893604
H       16.73221996       3.67736160      15.96306714       1.04638187       1.98999872       0.39663002       0.05995976      -0.03985577      -0.04564710
H        7.60652626       2.70131182      -1.07460918       1.57714731       0.54918887      -1.28145478      -0.29138953       0.07544106       0.03256498
H       13.05844909       9.85127788      17.65390809      -0.56798448      -0.66894001       0.43250574      -0.20830262      -0.35993971       0.04770911
H        3.11616370       8.65687462       1.78768478      -0.30915593       0.25764002       0.08563929      -0.07109858      -0.00043710      -0.02870240
H       18.11534390       4.81113932      10.26674611      -1.09350358       0.31053333       1.23764790       0.08376698      -0.21161390       0.09409937
C        7.38353971       1.09969375       0.21177919      -1.17551022       0.62899000       0.38811497      -0.73372837       0.10422230      -0.73669858
C       13.36601242      11.24371559      16.14099403       0.45689821      -1.59293286       0.24210238       0.41224898       1.17859998      -0.68189210
C        3.20231675       7.33670498       0.13697371      -1.86578781      -2.46939058      -0.75363108      -0.44506998       0.78401068       1.26705673
C       17.68465908       5.68227163      16.19096422      -0.53157401      -1.76207508      -0.85661048      -0.57685760      -0.27472023      -0.05624538
N        6.83690722       0.73299843       1.48425871      -0.49648949       0.34455312      -0.29250652      -1.27683541      -0.60160396       1.51005138
N       14.07713691      11.68644514      15.08572266       1.04502153      -2.01143775       0.22975850       0.55812250      -0.28079188      -0.04582983
N        4.67122876       6.16037270      12.32116162       1.67322135      -0.59391289      -1.98041363      -0.00918921       1.50884242      -0.35130264
N       16.81683557       6.42653452      16.92173639       1.13414066       0.04609975      -0.84168307       0.33420993       0.05383797       0.59158215
N        7.11495933       2.34642020      -0.25599325      -1.65399045      -0.77680588       1.25323256      -0.08944064       0.02463111      -1.28013986
N       13.66656348      10.10859952      16.87006618       0.24848755       3.05609416      -1.55611998       0.15600401       0.32248616       0.30064630
N        3.75978513       8.29861195       1.06582492      -1.95820094      -0.97355594       0.89750489       0.32496461      -0.11269834      -1.15263015
N       17.50902731       4.38629792      15.77490595       0.14585173      -0.27700237       0.29398289       1.13255939      -0.75124221      -1.20728758
Pb       1.86097788       2.52122016      16.08706669       0.22004239      -0.49374711       0.03132656      -1.16520910       0.90419126      -1.43231561
Pb      19.08129694      10.54866448       0.47372525      -0.13554212       0.08168971       0.42640637      -5.40159866      -0.23234660       0.07011156
Pb       9.61697994       8.26512879      16.13596466      -0.54131675      -0.14891092      -0.33885034      -0.60835270       0.69727401       2.86721730
Pb      11.87165131       4.75426697      17.92205552       0.10284637       0.10049707      -0.16639386       1.29880340      -0.55940864      -2.05922094
I        0.39222422       4.34017100       0.27832462       0.01121271       0.10886532       0.41557801      -0.92478776       2.39816782       1.57676766
I        1.08787421       8.02673674      16.04192695      -0.04230527      -0.13855796      -0.20284378      -0.36656706      -2.43399132      -1.43412959
I        9.89312651      10.26766448       0.31049923       0.18518925       0.16203281      -0.17471754      -0.48236944      -2.61222984       4.35754634
I       10.98552932       2.54260740      15.85117263      -0.13467269       0.12020005       0.12657454      -1.95569312      -0.21795536      -0.16742719
I       18.65173924       0.65818336      16.82558937      -0.49629672       0.52052974      -0.19107906       0.19228669      -0.60359971      -0.56821384
I        3.19986493      11.51313574      17.82166103       0.04453973       0.36089165      -0.04099824      -3.88970570       3.18164568      -1.75444210
I       12.93226130       6.78016510      15.39244932      -0.26389852       0.14202479       0.27325159      -2.71077354       3.01378944      -0.50803903
I        7.96919123       6.15412942       0.20048938       0.27599005       0.14857801      -0.31856157      -0.75677831       0.44057515       0.45517356
I        4.62752840       3.92304190      15.29808059       0.35796417      -0.39786235       0.02135552      -1.54891897      -2.99098440      -1.00039759
I       16.20396361       9.28719646       0.77055490       0.08872850      -0.05187208       0.12687890       0.44860254      -1.36838269       0.46800641