768
Lattice="38.994998665037166 0.07106821782705662 0.35547318029268 0.20366633889610405 23.235525993811105 -0.050934670340891476 0.6633844787472418 -0.16287480069770385 18.246656201326342" Properties=species:S:1:pos:R:3:forces:R:3:momenta:R:3 energy=-3649.6303415793473 stress="0.0 0.0 0.0 0.0 0.0 0.0 0.0 0.0 0.0" pbc="T T T"
H        7.85349156       0.23327444       4.06597932      -0.31409029       0.76467800       0.23325968       0.06873716       0.05436019      -0.03766825
H       12.36106110      12.02869428       2.92557623       0.44285552       0.31304497      -0.55058349      -0.02245317       0.02473361      -0.09540499
H        2.65483429       6.49236583       5.03604893      -0.70585488      -0.56044352       0.40741665      -0.08242322      -0.16077811      -0.28595274
H       17.77727952       6.52312354       2.24040195       1.22015266       0.86391678      -0.08682960      -0.11351416       0.18555950       0.03329907
H        6.78538465      -0.25148342      10.94608386       0.12651674      -0.15599784      -0.02590157       0.08960769       0.01702619      -0.09058158
H       12.62126103      10.01369999       4.00891950       0.55154122       0.61878789      -0.44469673       0.11096081      -0.02502201       0.08179856
H        4.72916374       5.42964382       8.19868753      -0.25179557      -0.08061785       0.03128757      -0.10476809       0.06331697      -0.13593699
H       16.44186255       7.03190768       4.20562510      -0.18947561      -0.29322483      -0.19668587      -0.25994160      -0.02827831      -0.15402663
H        5.54196531       1.24377926       5.80250163       0.64214856      -0.57568787      -0.43700379       0.10418547      -0.02085178      -0.02992401
H       14.31380933       9.82770843       3.50957881       0.67165926      -0.58333176      -0.19973736       0.03343160      -0.06606429      -0.27952764
H        5.51496401       6.98357448       8.11534047      -0.04739095       0.09855648       0.23788639      -0.04895875       0.03587964       0.02291406
H       15.77475491       5.30770760       4.18900525      -0.43087025       0.22451034       0.45883157      -0.15553627       0.13915908      -0.04353558
H        6.45650884       2.97611175       4.24507359      -0.17426993       0.20857467       0.04879875       0.11993799       0.00590504       0.07737956
H       15.09549389      11.29966954       1.77477070       0.05489164       0.02516168       0.13773343      -0.07022752      -0.14786774       0.00977110
H        4.22880454       9.01091267       4.41107469       0.09949016       0.43061983       0.34015013       0.27503236      -0.16843940       0.01008346
H       16.58815732       3.79149535       2.56085011       0.56850162       0.26044315      -0.25908855      -0.01426621      -0.09046737       0.14622131
H        7.93670906       2.49299755       3.36096793      -0.18598026       0.32993245      -0.03851881       0.04608077      -0.06485278      -0.08950603
H       14.16019800      12.76198005       1.36576645      -0.08112402       0.11800475       0.24311575      -0.02976057      -0.03841893       0.09881927
H        2.72188650       8.83812650       5.50308921       1.15925519      -0.28911041      -0.74126131       0.09068048       0.00255692       0.09995728
H       17.90444102       3.95034767       6.16459943      -0.15240259      -0.11150308      -0.21353882      -0.06307590      -0.02434561       0.06086658
C        7.11705622       1.00940759       4.44353337      -0.30504341       1.07590216      -1.03766871      -0.02004374       0.55580601      -0.01798731
C       13.34224474      11.49818202       2.78341425      -0.83821493       0.50232943       0.61903910       0.03142947      -0.03389979       0.38926853
C        3.47020979       7.07712526       4.65043944       0.35654762       0.68029458       0.18840490      -0.26635668       0.23181274      -0.02576058
C       17.16329164       5.74139130       2.72218094      -1.15701077       0.47019673       0.59951293       0.20315519       0.75198639       0.13855797
N        6.19105544       0.56181893       5.25070768       0.04983787       0.57183915       0.71640211      -0.76570292       0.38253085       0.03765750
N       13.46183162      10.40547564       3.49961093      -1.06077013      -1.46275094       1.01447955       0.23446541       0.39106859      -0.88411327
N        4.77521433       6.39456602       8.54190229       1.06623835      -0.51231159      -1.08885889       0.06049502      -0.17863316       0.28330838
N       16.38705468       6.07668433       3.79968465       1.29414991      -1.11879253      -1.42421693      -0.76401536      -0.37819431       0.39637733
N        7.12992236       2.26752487       3.95904220       1.01762857      -1.84415061       0.32488159       0.23570007      -0.84228480       0.62548443
N       14.31907098      11.92907818       2.02939940       0.13462440       0.31488784      -0.80185697       0.31145772       0.17344120       0.36634694
N        3.53917109       8.38810799       4.96905307      -1.19236118      -0.33081158       0.20631472       0.62528890       0.17052517      -0.22074347
N       17.21116952       4.56392597       2.13737701      -1.77722146      -0.77900511       0.76188580       0.09512827      -0.06435273       0.97717567
Pb       1.37682179       2.40324674       2.11022620       0.08360496      -0.15274165      -0.04910960       0.10071714      -0.26897273       1.40818602
Pb      19.10792630      10.46672314       4.96146973      -0.39242095      -0.05273955      -0.36054638       2.05213765      -1.10106286      -0.56263865
Pb       9.15101058       8.15775824       2.79259727      -0.00029995      -0.15320584      -0.05056690       0.52762557      -0.61780130       0.19730606
Pb      11.44292178       4.65273006       4.80950744      -0.15425092       0.03842312      -0.21766740      -0.06570338      -1.15392513       0.13529744
I        0.58583636       4.47402688       4.44939659       0.05235445      -0.22942226       0.12312734      -0.20747351       1.65729925       0.95908389
I        0.21072601       8.12524131       2.45640403      -0.08321574       0.04932635       0.04925322      -1.15895501      -0.74906241      -0.82260711
I       10.21937061      10.14742560       5.02046619       0.02865752      -0.08107766       0.13592253      -1.13412129      -1.13845751      -0.41301514
I       10.43733080       2.48066341       2.46081079      -0.07457968      -0.02452310       0.21507607       0.97935275      -0.61006462      -1.24332608
I       18.03274465       1.11766884       3.01690821      -0.14213466       0.02101037      -0.10343511      -0.91442290       1.19848621      -0.68268382
I        2.61274436      11.62652793       4.10727992      -0.06621186       0.04495403      -0.02723550       0.14525490      -0.19961162      -0.66353911
I       12.26137912       6.68749296       2.44614107      -0.05198096       0.23161059      -0.01496524      -1.40331369       0.02751614      -2.09142800
I        8.19467225       5.97555466       5.05486690       0.28862496      -0.00732195       0.03807996      -0.40062249      -0.67592301      -1.48127265
I        4.25051603       3.64052327       1.89197599      -0.16429387       0.02574267       0.02188429       0.05210133       1.60362785       1.05849246
I       16.10277117       9.18476819       5.34575130       0.26069773       0.23276794       0.07968500       0.69360716       0.44530712      -0.57005305
I        6.18032460       9.27843404       2.57954388       0.04560531      -0.02198166       0.11057334       0.73965985      -2.04276433      -0.46564977
I       14.24130144       3.39433120       4.42825056       0.03539050      -0.17668767       0.02442762      -0.93152832      -0.61307926      -2.15137824
H        8.42196537       0.23117783       9.29034937      -0.73224669       0.84163646       0.43907434       0.11496047       0.08291174       0.11930166
H       12.70024443      12.46287050       7.72429523      -0.00864053      -0.26059105       0.11658977      -0.09265889      -0.11462801       0.09908500
H        2.99959816       6.28873311       9.63714524       0.36266300      -0.27322379      -0.32801540      -0.01218109      -0.10803000       0.18268756
H       17.94345013       6.30459850       6.75774199       0.10284880      -0.48353807       0.05731833      -0.00556436      -0.03895024      -0.07080274
H        6.46471382      -0.30700992       5.74347334      -0.58501602      -0.49355357       0.19151182       0.03591829       0.27430318       0.06503422
H       14.21085938      13.14062188       6.23536088       0.46212983      -0.13729618      -0.24513575      -0.05566973      -0.02059339       0.13481443
H        4.23277018       5.40852084       3.62587174      -0.10176643       0.92557970       0.45089500       0.01462446      -0.11628304       0.07173576
H       16.31250596       7.04243756       8.26642750       0.24437495       1.11183040       0.16039723      -0.04766595      -0.07102181      -0.02890746
H        5.72954043       1.20003491      10.40126796       1.02330286      -0.68595980      -0.13609489       0.22879415      -0.06519551       0.05033643
H       15.03141399      11.52189487       6.12039139       0.44999020      -0.03885527      -0.31276738      -0.11534506      -0.03665321       0.08160502
H        5.09080942       6.98631962       3.34525843      -0.73956733      -0.45215872       0.55981723      -0.28619238      -0.02356271       0.10523801
H       15.38943158       5.61190396       8.17848788       0.32388221      -0.19277552      -0.06293611       0.12415339      -0.13702335      -0.08439457
H        6.55570935       2.62919765       8.27255971       0.39060524      -0.39904733       0.04723701      -0.05644543      -0.18707314      -0.05631215
H       14.12182084       9.78305754       7.69003638      -0.11986563       0.05035534      -0.17928366      -0.14411721       0.11079335       0.19637693
H        4.66465678       8.76178733       9.76081472      -0.81890855      -0.94761483      -0.04744003      -0.16258086      -0.01988410      -0.01677811
H       16.33140006       3.67786248       7.00802818       0.65685433       0.48758166      -0.11841913      -0.13644129       0.09720272      -0.01402344
H        8.20316019       2.09125705       7.72815143      -0.43545310      -0.17767132       0.42824212      -0.01017559       0.00195867      -0.17548729
H       12.58043284      10.21451671       8.43537876      -0.01937397      -0.08722833       0.21378585       0.03038430      -0.10398823      -0.03601408
H        3.11112180       8.43444551      10.47002661       0.27390077      -0.70031010      -0.58616030      -0.05653923      -0.05510036      -0.09595136
H       17.88626189       4.32038719       1.38762092       0.13464199       0.36126520       0.05041871      -0.03953849       0.07216539       0.08168554
C        7.51337816       0.93768363       9.36770384       0.65658073      -1.47784985      -0.12332504      -0.03390001       0.06869476       0.19654779
C       13.45840984      11.71865470       7.41810136       0.41314600       0.60681066      -1.25539100      -0.46224492      -0.28358289       0.14007578
C        3.87669851       6.88507619       9.32486181      -1.72625045      -0.15461024       0.96549536       0.78096278      -0.19950410       0.26556006
C       17.15822488       5.60636182       7.10404296      -0.63447674      -1.16082763      -0.31198428      -0.29522168      -0.40295097      -0.23594822
N        6.64646263       0.59900799      10.33036807      -0.69390643       1.67088665      -0.59513828       0.31697151       0.40498915       0.15204252
N       14.34103654      12.16038234       6.52101215      -1.31307377      -0.24818668       1.26317083       1.18753862       0.04343433      -0.03990496
N        4.34015083       6.43440094       3.89338398       1.15865290      -0.40949309      -1.24358342       0.19258691      -0.24636309      -0.18673087
N       16.25223093       6.11420416       7.90349789      -0.66498847      -0.66625212       0.03141877      -0.56041908      -0.11734328       0.62508206
N        7.41309139       1.95882073       8.42744736      -0.21961623       0.30926181      -0.06249109       0.15666241       0.19655855       0.54178714
N       13.38252780      10.47443610       7.85052670       0.17829851      -0.15448139       0.30769164       0.84361672      -0.63622661      -0.00603509
N        3.84675743       8.09117090       9.81503524       0.90847223       2.51448174       0.82546984      -0.38139587      -0.30708864      -0.07720234
N       17.09494557       4.32256450       6.68803024       0.02685561       0.93254012       0.53443851       0.10902489      -0.54009595      -0.05728875
Pb       1.57317670       2.32586759       6.79619887      -0.06444076       0.08869339      -0.11732787       2.22984562       1.34824267       0.03274576
Pb      19.24266489      10.40324301       9.47101521       0.09041315       0.18857757       0.44202576      -3.19813866       2.45598340      -2.74895929
Pb       9.39285004       7.94468267       7.39905054       0.25060589       0.08566327      -0.19096011      -0.39282387       0.03356360       1.16480082
Pb      11.47710030       4.28090497       9.23151538      -0.05169606      -0.05655797       0.06575571       0.07117775       1.09425550       2.77459102
I        0.71799483       4.44461786       9.25928001       0.13850606      -0.27584885      -0.21105028      -1.67514336       0.23236814       1.46316214
I        0.43241014       8.19659486       6.79218650       0.10982908       0.22580941       0.18944161      -1.96472462      -2.08856157       0.40513763
I       10.39809237      10.05870267       9.78521067       0.01069800      -0.10033358      -0.19249946      -0.84730344      -1.46025917       0.35089737
I       10.48617854       2.36998970       6.79403848       0.03480624      -0.11725661       0.12434347      -0.11595040      -1.12790134      -0.21993560
I       18.18394502       0.77901136       7.30349887      -0.22006260       0.17547054       0.15475416      -0.54458188      -0.92427393       1.60212053
I        2.72553168      11.54506012       8.89039949       0.05573195      -0.03595743      -0.19761156      -0.28784923      -2.32030705      -0.79547196
I       12.73220861       6.54942445       7.13588756      -0.34108349       0.09576947      -0.07401384      -0.00944773      -1.02444804      -0.40889765
I        8.52462478       5.75085226       9.53606576      -0.16995609      -0.01514548       0.04744201       0.72194927       1.48425016       0.23074929
I        4.52693579       3.33151990       6.59761500       0.03251057       0.27520821       0.03340002      -1.82144086       1.00797728      -0.67711242
I       16.45746006       9.17352744       9.82396387      -0.05527356      -0.14678089      -0.04997238      -0.30405648      -3.23984122      -1.63241213
I        6.59803271       9.10085869       7.05892840      -0.06639135       0.14777858       0.23276283       0.17639066       0.64449362       0.31591126
I       14.26715690       3.11863732       9.02260025       0.43624172      -0.12483663       0.10641514       1.54314412      -1.40911338       0.41614654
H        8.54507891       0.68551008      13.72269089       0.56166666      -0.57594833      -0.05733160       0.00290993      -0.08291179       0.32696131
H       12.88577805      12.10484697      12.26494103      -0.00192806       0.14581297      -0.17868562       0.11286865      -0.10414814       0.04959269
H        3.25021096       5.87009375      13.85260805      -0.96375477      -0.49165218       0.21555756      -0.11626011      -0.07057162       0.00506838
H       18.07282742       6.27840815      11.80182005       0.07759094       0.50800362       0.00716761       0.02624356      -0.06558502       0.06288966
H        5.81560340      -0.14168687       1.11087731       0.48408605       0.44948254      -0.19668232      -0.02582763      -0.09214088      -0.11168385
H       12.63548542       9.97717070      13.00344390       0.92268634       0.07960310      -0.55507371       0.06085866       0.11404566      -0.01901134
H        3.94189314       5.41352293      -0.89245796       0.08246756       0.14891661      -0.01781156       0.02827527      -0.28983966      -0.03635463
H       16.45260800       7.07284761      13.24484291      -0.21754480       0.17233352       0.22769488      -0.01464482       0.01948101      -0.02346918
H        6.05007019       1.27644889      15.25533119       0.56222718      -0.67440785      -0.32680608      -0.16837859       0.10458852      -0.02641469
H       14.20811682       9.37527723      12.31502275      -0.15322845       0.32843271      -0.09329979      -0.01364869       0.12725709      -0.11166204
H        4.78489407       6.99528208      -0.81580421       0.44254281      -0.17008515      -0.35755794       0.07425688      -0.04551233       0.19902227
H       15.34152849       5.66647715      12.97782387       0.37309006       0.06706863      -0.02952798      -0.00628202      -0.10430794      -0.03908928
H        6.69631631       2.98798164      13.73726661       0.11073687       0.15105033      -0.02573099      -0.07941798      -0.07211500       0.02637732
H       15.26300030      11.12730545      10.73160678       0.31682902       0.10755995      -0.12840347      -0.00742471       0.06671990      -0.00751073
H        4.72401184       8.42731591      14.52619621       0.16551873       0.16765737      -0.25117013      -0.14311158      -0.04370804      -0.21497626
H       16.33299035       3.88785322      11.36444949      -0.24189728       0.11813120       0.09216163       0.06528063      -0.01432692       0.18106318
H        8.25177927       2.81450049      12.87085164      -0.46763061      -0.36540882       0.46109605       0.03608945      -0.15263131      -0.04350297
H       14.56867782      12.85340393      10.86190684       0.39200069      -1.64584351       0.30593188       0.08610938      -0.27304023      -0.05240836
H        3.04217634       7.98386692      14.95770302       0.47347393      -0.36342378      -0.36627278       0.06714342      -0.03190158      -0.02107942
H       18.28588149       3.87547403      15.01052337      -0.59920595      -0.32827476       0.27011785      -0.12085991       0.02399784      -0.16607429
C        7.67887272       1.23448283      14.04307050      -0.46924391      -0.49001510       0.25660770       0.41726303      -0.62512654       0.11527023
C       13.65420479      11.39345502      11.92740814      -0.56077900      -1.27857621       1.20292237      -0.35717656       0.24779294       0.04505843
C        4.04505757       6.59496947      13.77824658       1.32154371       0.71704386      -0.84135696       0.19244668      -0.23620562       0.15350211
C       17.14760548       5.70887677      11.94661551      -0.50624478       0.30253583       0.82495516       0.01445037      -0.04848464      -0.01027842
N        6.81809538       0.66203879      14.87173619      -0.45331433       0.13879365       0.69966856       0.38216037       0.43545975       0.31726271
N       13.52413787      10.14777335      12.42721366      -0.87039087       0.23373177       0.31775541      -0.35813571       0.31985981      -0.48001730
N        4.04801982       6.35952815      -0.50050067      -0.22927667       0.03882055      -0.01043048      -0.15032060       0.86218959      -0.41404145
N       16.24908408       6.16242872      12.80222493       0.35646414      -0.24165984      -0.61082794       0.35252674       0.84241847       0.86288104
N        7.53874377       2.43450285      13.53041246       0.25170496       0.45572265      -0.44055931      -0.30645091       0.16687925       0.09407281
N       14.58711685      11.80750431      11.13235255      -0.04519084       2.10471273      -0.94197446      -0.91311974       0.78450188       0.13635034
N        3.91936826       7.75583690      14.42076583      -0.56575991      -0.27429767       0.50958851       0.34535030       0.28977503       0.06179143
N       17.07687813       4.58766756      11.28616425       0.19691862      -0.88917178      -0.72916750      -0.27405509       0.23901750      -0.96248617
Pb       1.86987618       2.15322332      11.22879451      -0.14555181       0.15873874       0.23053333       1.42435196      -0.79680318      -1.46382494
Pb      19.46415521      10.40763037      14.22080896      -0.26868313       0.18244808      -0.24947495       3.13269321       2.53826537      -1.78066945
Pb       9.57175267       7.78061224      11.89539420      -0.25651669       0.13192292       0.13529030      -3.64685031       3.06751803      -0.48692711
Pb      11.76979376       4.22818706      13.93817185      -0.22436872      -0.20232290      -0.18428381      -1.03128217      -0.65089434      -0.89378096
I        0.86450560       4.26623513      13.59222027       0.06056330      -0.27491314      -0.07699470      -2.77528379       0.10420649       0.93931131
I        0.53320417       8.18134431      11.57541316       0.21608419       0.05033951      -0.11852067      -4.04801107       0.37290402       1.44699706
I       10.53255975       9.81650711      14.26340110      -0.08636186       0.09946410      -0.12625694       0.95289863       1.85931146      -0.23815666
I       10.74663343       2.06834717      11.48979150      -0.09111850       0.29486725       0.28718621      -2.77029761      -1.25963908       0.15155980
I       18.36183303       0.72181335      11.95817710      -0.11134596       0.28217102       0.11943549       1.35083479      -0.24307342      -0.46294656
I        2.91207179      11.19001208      13.52191417      -0.09217502       0.28144067       0.01255874      -1.13488655       1.86339578       0.22731279
I       12.49981643       6.29143608      11.62124522       0.16668601       0.25636294      -0.10048930      -0.68329799       0.04025504      -0.63523357
I        8.49861500       5.66398223      14.10669930       0.32483944      -0.02057165       0.05788654      -1.28552930      -0.20329711       0.88425673
I        4.77106937       3.27959761      11.05149988      -0.26871557       0.15764450       0.01003944      -0.18844601       3.30796265      -1.95250095
I       16.60944873       9.16668774      14.45536484      -0.02628410       0.11932605       0.10427922      -0.15730325       0.38062834       0.43328091
I        6.66103982       9.18080406      11.80522244       0.21056000      -0.22269499       0.11363370      -2.90137028       0.71244436       0.87781085
I       14.69387116       3.01987019      13.73576024      -0.23651699       0.06738298      -0.13574114       0.02507050      -2.20914965       0.72369280
H        7.80449060       0.75114088      -0.05288986       0.09881357      -0.12438747      -0.16523622      -0.17352721      -0.04992053       0.12724403
H       12.59665565      11.69573384      16.36310654      -0.50345959       0.42215031      -0.18251134      -0.03978449      -0.17611925       0.19948987
H        2.28043216       6.30854976       0.66704267       0.36814944       0.05164704      -0.41071018       0.09656381       0.00177682       0.03696417
H       18.47488533       6.00736135      15.92546680      -0.55005250      -0.91904519      -0.25547399      -0.19691731       0.07861076       0.21254282
H        6.92711739      -0.30260987      15.30255109       0.12841832       1.14423324      -0.69325330      -0.32351744       0.04796109       0.07274878
H       14.28172422      12.74681792      15.06568410      -0.01531626       0.64991878       0.01337792       0.14227351      -0.15046861       0.10953828
H        5.02687136       5.30569930      12.55143600       0.18536593       0.37858608       0.10844662       0.16974933      -0.21765085       0.05540184
H       16.80113598       6.89932250      17.31445346      -0.03251764      -0.80070179      -0.72923749      -0.21748854      -0.04293926       0.00971441
H        5.01967748       1.42757814       0.88531501      -0.16987047      -0.00727342       0.26449378       0.06336227      -0.02284895      -0.05010022
H       15.61561640      11.52549092      15.51144985      -0.48271949       0.11503912       0.10863660      -0.01513136      -0.17522702       0.21002094
H        5.91784339       6.81331225      12.87118836       0.41046585       0.53201042      -0.30630513      -0.03023617      -0.11287043       0.02501377
H       15.72920167       5.50800618      17.06423882      -0.13483376      -0.22519834       0.09190066      -0.15796743      -0.11117990      -0.08697291
H        6.12160018       3.17721150      -0.40322768      -1.34225151       0.90140299       0.37497945       0.05004797       0.01349288       0.02519476
H       14.86103047       9.63552838      17.17548513      -0.50305878       0.38244518       0.00504336       0.09761428      -0.13102064       0.06613146
H        4.06060534       8.73298543       0.64157547       0.28079018       0.09809490      -0.11279391      -0.00261636       0.09491862      -0.07171766
H       16.64373065       3.51518669      15.70079129       0.01687827       0.11364832       0.08394532      -0.11749004       0.18131965      -0.09729310
H        7.61649233       2.82957390      -1.11126284       0.83288256       0.11772633      -0.23251751      -0.05118806      -0.01698358       0.02590196
H       13.05519149       9.83994965      17.53268207      -0.53302590      -0.49817321       0.52974430       0.01739198      -0.02858897       0.01422143
H        2.48940500       8.43740814       1.42246278       0.71422054      -0.14979486      -0.46424219      -0.16467174       0.13063787      -0.09653487
H       17.81023959       4.39114678      10.60156429       0.21468206      -0.17317372       0.00125750       0.10944134       0.05340291      -0.14899939
C        6.89320501       1.35796306       0.06992388      -0.00498419      -0.38174335       0.00059747       0.47994402       0.19301407      -0.16812786
C       13.63865523      11.25936989      16.29688174       0.55828914      -0.32488665       0.33810780      -0.06701652      -0.66311384      -0.51198232
C        3.16761203       6.88086379       0.31095032      -0.27043557       0.77561888       1.14530306       0.33909743       0.00570517       0.20897732
C       17.53755667       5.38670564      16.06138511      -0.26890630      -0.20714588       0.79041115       0.42277996       0.03035887       0.39330717
N        5.89124438       0.85433639       0.77610632      -0.23772333       0.00665956      -0.13056278       0.30060732      -0.19328671      -0.21341062
N       14.59212037      11.90830864      15.62892453       0.43882502      -1.08593790      -0.13767032      -0.94668435      -0.08967073       0.16899759
N        5.07485488       6.24524458      12.99155662      -1.22169423      -0.68035974       0.93796747       0.60039947      -0.06237572       0.31538554
N       16.58884715       5.99670613      16.78986557       0.49379509       0.63532665       0.04617634      -0.07099767      -0.16782104       1.04892196
N        6.87807445       2.54981454      -0.49227948       0.54997468      -1.06275599       0.10855752      -0.17118622       0.55279742      -0.33314783
N       13.85549999      10.14009895      17.00626055       0.96419804       0.18280224      -0.59207485       0.22883161       0.61363011       0.39876920
N        3.30201692       8.09602736       0.85080792      -1.27270367      -0.65563649       0.14866784       0.52541365      -0.05146812       1.17436783
N       17.47551852       4.11565888      15.61881596       0.98767085       2.00608583      -0.15314225       0.30476881       0.42129842       0.30715496
Pb       1.88199081       2.08375041      15.82231058       0.01051982      -0.00260394       0.00374878       1.02880162       0.27000613       1.69032040
Pb      18.90051614      10.28834369       0.40298957      -0.04702911       0.38893834       0.06242297       1.64480588      -0.85367996       3.39979656
Pb       9.56984518       7.78093832      16.54522549      -0.09441764      -0.19587275      -0.18369287       1.54784854      -1.92045692       1.91590428
Pb      12.01428599       4.31397212      18.48817512      -0.22747786       0.09481642      -0.04253706      -0.83661811      -0.32448394      -2.41610064
I        0.17194551       4.32776950      -0.25035880       0.09951586       0.07129325       0.20521798      -1.09977972      -2.08584325      -0.20043790
I        0.68918453       8.22509182      16.20472914       0.17366287      -0.35637849      -0.15997424       1.48092603       0.09430558      -1.35733236
I        9.71666797      10.21178803       0.28469674       0.41512415      -0.03400965       0.13243143      -1.20373646       1.13664287       1.01240832
I       10.72333057       2.31203198      16.20716663       0.07257786      -0.10570993       0.07314024       0.66155526       1.67818159      -2.43410274
I       18.42837395       0.91691981      16.56574067       0.12075288      -0.04612640       0.05583135      -0.28395682      -1.08033842       1.17252231
I        2.99645184      11.48515522      18.26071511       0.04213535      -0.10749245      -0.23685703      -0.47056031      -0.80063894       0.40371639
I       12.66333361       6.43303169      16.12916721       0.06759129       0.13443473      -0.13106180      -1.11691062       0.71178658       2.12310114
I        8.23722895       5.85040674       0.67477739      -0.11471776      -0.01989060      -0.08340171       2.15483863      -0.44773824      -0.33371829
I        4.68501389       3.42119329      15.63735822       0.15010812       0.05850510      -0.02059089      -0.92503763       1.11960213      -0.65225707
I       16.00216609       9.02939140       0.83632768       0.23228314      -0.06997094      -0.12194771      -1.25045943      -0.18444306      -0.39539322