768
Lattice="31.52003920688824 -1.0395494997101957 0.3212732111417801 -0.9162685860741572 30.3547437254124 0.028757121508259497 0.35595936046071336 -0.14720492652102254 17.2635365134837" Properties=species:S:1:pos:R:3:forces:R:3:momenta:R:3 pbc="T T T"
H        1.51461191       3.28817985       6.41455003       0.07672586       0.05257427       0.14193145       0.05287410       0.01202399      -0.03819735
H        3.73258676       2.75779310       5.73654188      -0.64433107       0.18251050      -0.65238860       0.07052687       0.13539956      -0.07150957
H        3.26678019       2.82740042       4.02255818       0.01135515      -0.00879609       0.20833183      -0.19547561      -0.00320993      -0.14582881
H        0.78944818       3.67275554       3.52725839       0.41145880      -0.32051439      -0.72973045       0.07798818      -0.07802895       0.03861350
H       31.33554216       2.65495985       5.29526719      -0.93565959       0.42876372       0.29651702       0.15638630      -0.02838582      -0.06572928
H        5.95310994       6.59097679       1.87234081      -0.30804875       0.55107359       0.30643059       0.10892973       0.10356908       0.06184631
H        5.30752321       7.09165499      17.05060968       0.31124624      -0.95891696       0.06102235       0.15698258      -0.07044576      -0.07961130
H        5.44165092       5.41352085      16.44448415      -0.03809913       0.34658526      -0.03420248      -0.11656759      -0.00256957       0.00956553
H        5.90010621       3.88171411       0.72806290       0.12508981       0.11483070       0.80517938       0.09805775      -0.03692975       0.21718405
H        6.34064928       4.38842156       2.40191690       0.05630198      -0.04924768       0.19979401       0.10164421       0.11450916      -0.10180812
C        1.74505132       3.27346997       5.34406114       0.75399959      -0.83178930       0.60057786       0.13656853      -0.49672198       0.13403927
C        5.72624499       5.83676241       1.11438119       0.41021553       0.98419869       0.71068852       0.13605663      -0.25105695       0.16134066
N        2.97829527       2.89982053       5.00762330      -0.31049658       0.39721303       0.16795728      -0.31158701      -0.02801845      -0.43756312
N        0.72401233       3.53464168       4.54732419       0.46986769       0.08165375       0.10456541       1.00277126      -0.89280925      -0.19085387
N        5.60655969       6.08107597      17.21939220      -0.50959718       0.55044786      -0.60423559      -0.52263278      -0.53868394       0.07532270
N        6.05710809       4.62808436       1.45490048      -0.12477088      -1.50857858      -1.30458947       0.43565726      -0.25013752       0.02230195
Pb       3.59164965       0.69110291       0.82202089      -0.09328275       0.05526952       0.14473564       1.41883382      -0.68315989      -1.13789526
Pb      31.13367080      -0.00155195       1.08269384       0.05059845      -0.02372663       0.22151705      -2.09110405      -1.93549830       0.13251611
I        5.77806681       1.47578305       3.28558234      -0.07444474      -0.14658164      -0.21144911      -1.04400339      -0.67815167       1.38194076
I        1.04573614       7.20384799       2.65393156      -0.06847346      -0.24220353      -0.17675741       0.79103200       0.06458736       0.58638847
I        5.71878622       2.00372079       7.32416596      -0.03745604      -0.06021828       0.27793849      -0.98660311       3.05132304      -0.04693545
I        1.10921864       6.65659266       7.04591948       0.18422174      -0.01250510      -0.05316653       2.12951216       1.85404213      -0.36284430
I        5.37772653       5.69263790       5.11182577       0.00333946      -0.36857623      -0.26493325       0.40413637       0.21767568      -0.88576363
I        1.74113280       3.50125138       0.97803324       0.17120648      -0.26912443      -0.06019523      -1.53344306       2.96417933      -0.11998558
H        1.35005457      11.79992576      17.10574580      -0.33425035       0.14824989      -0.41018616      -0.01623871       0.06653812      -0.04417159
H        0.61633759      12.76805536       1.99705978       0.42679526      -0.88494313      -0.09364191      -0.00482462      -0.06354546      -0.19880161
H        0.92419902      11.17179125       2.69350398      -0.14130803      -0.40199769       0.83492657      -0.01691803       0.28701061       0.04879844
H        0.93441068       9.21201851       1.07615405       0.12372893      -0.71059960       0.49227894       0.04714645       0.06490758      -0.06135527
H        1.29586997       9.45656592      16.64198731       0.25085117       0.14985900       0.04680506      -0.06878057      -0.13449371      -0.00529851
H        4.61822770      12.15142345       6.13532040       0.29517605      -0.40629674       0.51529442       0.34576456      -0.03248722       0.06334003
H        2.98531160      13.68787974       5.52506026      -0.64856114      -0.30927499       0.19878080       0.03811321       0.00804471      -0.06121660
H        3.83173231      14.30097127       4.13110452       0.47648931       0.89222901      -0.45302260      -0.00356589      -0.06456990       0.01452080
H        6.32912480      13.53412666       4.11192034       0.00032813       0.54999564      -0.38795092       0.01857724       0.24019473       0.10333112
H       13.47677791      15.20023007       5.17102472      -0.07198303      -0.26626028       0.33543703      -0.11921817       0.11542880       0.00918856
C        0.92537584      11.22559158       0.65637394       0.27572222      -0.43679006      -0.05456948      -0.24530983       0.21074296      -0.47761946
C        4.83907076      12.86286224       5.33785145      -0.75029970       0.34465808      -0.12559290       0.71511240       0.14192507      -0.00474549
N        0.82507256      11.73782890       1.86721799      -0.15512355       0.96609206      -0.73265454      -0.72230141      -0.40858499       0.21085174
N        1.04252681       9.93331526       0.36371148      -0.40120344       1.17672167      -0.27292392       0.38140642       0.24583050       0.47698376
N        3.78293723      13.61124413       4.89297890       0.41668917      -0.38205365       0.03462820       0.45513873      -0.31734542      -0.26877410
N        6.03635678      12.86975591       4.81245320       0.67169841      -0.47017722       0.32534204      -0.19703724       0.30972239      -0.10587029
Pb       3.22717671       7.97934946       4.89417881       0.04491941       0.25881420       0.02568727       0.82945723       1.32321697      -2.05786116
Pb      30.76989738       7.10707502       5.32842022      -0.20969622      -0.04120645       0.21755136      -2.68654785      -0.81118040      -1.97263633
I        4.85346858       9.45661287       7.12665271       0.15506939       0.04200786       0.21845645      -0.70288768       0.06381064       0.83450537
I        1.31575580      14.56166959       7.30936985      -0.03853829       0.11378729       0.13774259       0.75074119      -0.76496385       1.57220164
I        5.36567833       9.39197851       2.77196961      -0.11292588      -0.12442669       0.17820242      -0.11058436       0.36118161      -0.85983933
I        0.84709056      14.97269097       3.23722070       0.19673466       0.08123309      -0.23004317       2.55635236       0.17213321       1.02901881
I        4.91197164      13.03719913       0.78327138      -0.08264944       0.16311719       0.01268322       1.23909627       0.45927078      -0.89769478
I        1.16739809      10.59853023       5.26661150       0.13807702       0.08850201       0.06568149       1.55745960       0.53516241      -2.18570268
H        8.98414636       4.17980514       4.22077631       0.14480625      -0.18684996      -0.93633031       0.14917252      -0.03406448       0.17268750
H        8.94081523       4.71665304       6.42543609       0.07607288       0.47331517      -0.09167673      -0.12855301      -0.15390264      -0.10584253
H        9.37696777       3.09125280       6.98193709       0.06642285       0.47991227      -0.65677373      -0.06326824      -0.10430003      -0.05972141
H        9.98342835       1.37298411       5.30113430      -0.31278387       0.18573230      -0.43501120      -0.04271456       0.01372645      -0.02176917
H        9.60793116       1.94886444       3.55553801       0.00726408      -0.25625981       0.60785111       0.06169121       0.07192333      -0.00984901
H       12.63017596       6.71382302       1.39570245      -0.07136217       0.00293886       0.08632277      -0.03151510       0.21634896       0.16074787
H       14.62189858       5.49670679       1.58830100       1.07564031       0.58171685       0.67260255      -0.05409682      -0.04143265       0.06438858
H       14.05179254       4.20548789       0.59077178       0.04480819       0.19860806      -0.02379301      -0.08783900       0.03703376      -0.15109835
H       12.38287193       4.33076157      16.76079101      -0.45137342       0.22356528       0.08642561      -0.05186446      -0.19115053      -0.22518893
H       11.22314268       5.62868519      17.26449880       0.44194577      -0.14649116      -0.13846538       0.07408252      -0.00680430      -0.11347013
C        9.27576410       3.35166891       4.91754090      -0.30776425       0.42740689       1.48287529       0.26295140       0.36796228      -0.48520402
C       12.76672657       5.76567212       0.86822341      -0.84109556       0.50225790      -0.10663569      -0.17859096       0.10572984       0.46972706
N        9.23575157       3.74796046       6.17369880      -0.11942128      -1.34548044       1.02983975      -0.16444782       0.99085162      -0.07055950
N        9.59847174       2.11718441       4.57979699       0.39664096       0.08126681      -0.90446702      -0.14914815      -0.16262125      -0.04004404
N       13.90072462       5.13725505       1.01249329      -0.20414422      -1.13218141      -0.58260593      -0.54643432       0.34953600      -0.21048021
N       12.15172693       5.16822780      17.34813364       0.15105944      -0.21895631       0.00129297       0.08163255      -0.03721376      -0.16165437
Pb      11.40533097       0.45970771       0.74487374       0.29844871      -0.02290367      -0.26868950       0.29706614       1.67293533       2.53486311
Pb       7.54032605       0.20459384       0.84114199      -0.29584654       0.24666650      -0.45134566      -1.93504449       1.15942305      -0.57373054
I       13.26514909       1.63770109       3.14653196       0.05488769      -0.07758776      -0.14626546       0.04636004      -0.37158302      -0.30832111
I        9.23731401       7.06408003       3.09012084      -0.15504877      -0.38503879      -0.39751812      -0.41136558       0.32116144       2.62636600
I       13.80274174       2.01045930       7.47768457      -0.08950474       0.28381075      -0.13167812      -0.86625946      -0.34122049      -0.81677803
I        9.04179278       6.81801882       7.53024678      -0.09487414       0.37705504       0.19040512      -0.35655066      -1.80338900       1.54789692
I       12.77844930       5.25825875       5.04175076      -0.00687217       0.04344622      -0.00116576      -2.78380913      -1.73379889      -0.11477938
I        9.39705648       2.85319139       1.19680366      -0.11445057       0.22690635      -0.22368246       0.54811967       0.23098860       0.05340617
H        8.36079056      11.22164830       2.33242785      -0.16421059      -0.39526562      -0.32686264       0.02976819       0.05526631      -0.13841652
H        6.96892201      11.58008610       0.51721401      -0.01400953       0.06927790       0.06740464      -0.04213835       0.32235382       0.13659208
H        8.44525118      10.86067840      16.57956427       0.42800670      -0.22420695      -0.67995904      -0.03692262      -0.12666091      -0.27268008
H       10.38097799       9.99834343       0.40821939      -0.34908426       0.02727363      -0.36156653      -0.15391441      -0.01564483       0.10818170
H       10.43601816      10.01857276       2.06598811      -0.52284233       0.28558068       0.48343830       0.03054937       0.17203929      -0.14443748
H       13.61295711      13.35641907       3.64503467      -0.10791406      -0.01261051       0.77278708       0.10337138      -0.26383157      -0.14810098
H       13.46124990      11.10444168       4.48997993      -0.04475499       1.30826111       1.02871821      -0.02810417      -0.00379616       0.07916730
H       13.36451788      11.59399415       6.22166878       0.09202906       0.11206700       0.70143109      -0.04280908      -0.01131335      -0.00974638
H       13.31372301      13.99408677       6.63593774       0.03993624       0.51003053       0.77492069      -0.01285542       0.00894027      -0.11023839
H        6.88217337      12.33275812       5.32546745      -0.26610841      -0.13000071      -0.13119544       0.05625317      -0.10413763      -0.04817512
C        8.68622662      10.85070267       1.30162025      -1.05790631       0.81258264       0.72702912       0.43190307      -0.14666547       0.08325224
C       13.48303376      13.15169538       4.78291267       0.15294879       1.82042236      -1.34246923      -0.21885687       0.28772470       0.09952025
N        7.87088245      11.12785464       0.29295604       0.22675817      -0.15189997       0.93317730       1.37752128       0.06387379       0.29505412
N        9.86584643      10.29022271       1.26331519       1.60432103      -0.58419551      -1.03422835      -0.03128782       0.68003418      -0.31421178
N       13.49916561      11.91635602       5.22437497       0.06723135      -3.54039504      -1.17272511      -0.36531281       0.03763376       0.33399015
N       13.42893101      14.21712261       5.59325811      -0.23267437      -0.03782488      -1.03475859       0.38367756       0.71132785       0.50492306
Pb      11.16319589       7.96899226       5.33730293       0.08110432      -0.05118777       0.13611925       1.05010089      -0.07866104       1.99752739
Pb       7.26593528       8.32544720       5.13114925      -0.32463902       0.01262452       0.00333100       3.26156997       0.34320511       1.23472948
I       13.09431862       9.01548279       7.58087188       0.11533177       0.09184869       0.07710961       1.01861788       0.64558607       1.37965949
I        9.16488411      14.60337180       6.87188651       0.06798750       0.03630747       0.34277006       2.46727564      -0.45500555       0.31981811
I       13.04551476       9.16570399       3.02781782       0.02134161       0.12725388      -0.15574019      -1.20868685      -0.59415436       0.25801819
I        9.09464387      14.08706515       2.65829397      -0.01264136      -0.29745842       0.44441819       0.07038302       0.56193065       1.05724199
I       12.97105491      13.12250838       0.51429108       0.00545631      -0.06019302      -0.01980252      -0.27082519      -0.79768975       0.05091932
I        9.17723061      10.74468944       5.30047386       0.08417033       0.22326948       0.07069097       0.11756087      -1.48512505      -1.13950296
H        1.69259159       3.21457739      15.04631829       0.07672586       0.05257427       0.14193145       0.05287410       0.01202399      -0.03819735
H        3.91056644       2.68419064      14.36831014      -0.64433107       0.18251050      -0.65238860       0.07052687       0.13539956      -0.07150957
H        3.44475987       2.75379796      12.65432644       0.01135515      -0.00879609       0.20833183      -0.19547561      -0.00320993      -0.14582881
H        0.96742786       3.59915308      12.15902665       0.41145880      -0.32051439      -0.72973045       0.07798818      -0.07802895       0.03861350
H       31.51352184       2.58135739      13.92703545      -0.93565959       0.42876372       0.29651702       0.15638630      -0.02838582      -0.06572928
H        6.13108962       6.51737433      10.50410907      -0.30804875       0.55107359       0.30643059       0.10892973       0.10356908       0.06184631
H        5.12954353       7.16525746       8.41884143       0.31124624      -0.95891696       0.06102235       0.15698258      -0.07044576      -0.07961130
H        5.26367124       5.48712332       7.81271590      -0.03809913       0.34658526      -0.03420248      -0.11656759      -0.00256957       0.00956553
H        6.07808589       3.80811165       9.35983116       0.12508981       0.11483070       0.80517938       0.09805775      -0.03692975       0.21718405
H        6.51862896       4.31481910      11.03368516       0.05630198      -0.04924768       0.19979401       0.10164421       0.11450916      -0.10180812
C        1.92303100       3.19986751      13.97582940       0.75399959      -0.83178930       0.60057786       0.13656853      -0.49672198       0.13403927
C        5.90422467       5.76315995       9.74614945       0.41021553       0.98419869       0.71068852       0.13605663      -0.25105695       0.16134066
N        3.15627495       2.82621807      13.63939156      -0.31049658       0.39721303       0.16795728      -0.31158701      -0.02801845      -0.43756312
N        0.90199201       3.46103922      13.17909245       0.46986769       0.08165375       0.10456541       1.00277126      -0.89280925      -0.19085387
N        5.42858001       6.15467844       8.58762395      -0.50959718       0.55044786      -0.60423559      -0.52263278      -0.53868394       0.07532270
N        6.23508777       4.55448190      10.08666874      -0.12477088      -1.50857858      -1.30458947       0.43565726      -0.25013752       0.02230195
Pb       3.76962933       0.61750045       9.45378915      -0.09328275       0.05526952       0.14473564       1.41883382      -0.68315989      -1.13789526
Pb      31.31165048      -0.07515441       9.71446210       0.05059845      -0.02372663       0.22151705      -2.09110405      -1.93549830       0.13251611
I        5.95604649       1.40218059      11.91735060      -0.07444474      -0.14658164      -0.21144911      -1.04400339      -0.67815167       1.38194076
I        1.22371582       7.13024553      11.28569982      -0.06847346      -0.24220353      -0.17675741       0.79103200       0.06458736       0.58638847
I        5.89676590       1.93011833      15.95593422      -0.03745604      -0.06021828       0.27793849      -0.98660311       3.05132304      -0.04693545
I        1.28719832       6.58299020      15.67768774       0.18422174      -0.01250510      -0.05316653       2.12951216       1.85404213      -0.36284430
I        5.55570621       5.61903544      13.74359403       0.00333946      -0.36857623      -0.26493325       0.40413637       0.21767568      -0.88576363
I        1.91911248       3.42764892       9.60980150       0.17120648      -0.26912443      -0.06019523      -1.53344306       2.96417933      -0.11998558
H        1.17207489      11.87352823       8.47397755      -0.33425035       0.14824989      -0.41018616      -0.01623871       0.06653812      -0.04417159
H        0.79431727      12.69445290      10.62882804       0.42679526      -0.88494313      -0.09364191      -0.00482462      -0.06354546      -0.19880161
H        1.10217870      11.09818879      11.32527224      -0.14130803      -0.40199769       0.83492657      -0.01691803       0.28701061       0.04879844
H        1.11239036       9.13841605       9.70792231       0.12372893      -0.71059960       0.49227894       0.04714645       0.06490758      -0.06135527
H        1.11789029       9.53016839       8.01021906       0.25085117       0.14985900       0.04680506      -0.06878057      -0.13449371      -0.00529851
H        4.79620738      12.07782099      14.76708866       0.29517605      -0.40629674       0.51529442       0.34576456      -0.03248722       0.06334003
H        3.16329128      13.61427728      14.15682852      -0.64856114      -0.30927499       0.19878080       0.03811321       0.00804471      -0.06121660
H        4.00971199      14.22736881      12.76287278       0.47648931       0.89222901      -0.45302260      -0.00356589      -0.06456990       0.01452080
H        6.50710448      13.46052420      12.74368860       0.00032813       0.54999564      -0.38795092       0.01857724       0.24019473       0.10333112
H       13.65475759      15.12662761      13.80279298      -0.07198303      -0.26626028       0.33543703      -0.11921817       0.11542880       0.00918856
C        1.10335552      11.15198912       9.28814220       0.27572222      -0.43679006      -0.05456948      -0.24530983       0.21074296      -0.47761946
C        5.01705044      12.78925978      13.96961971      -0.75029970       0.34465808      -0.12559290       0.71511240       0.14192507      -0.00474549
N        1.00305224      11.66422644      10.49898625      -0.15512355       0.96609206      -0.73265454      -0.72230141      -0.40858499       0.21085174
N        1.22050649       9.85971280       8.99547974      -0.40120344       1.17672167      -0.27292392       0.38140642       0.24583050       0.47698376
N        3.96091691      13.53764167      13.52474716       0.41668917      -0.38205365       0.03462820       0.45513873      -0.31734542      -0.26877410
N        6.21433646      12.79615345      13.44422146       0.67169841      -0.47017722       0.32534204      -0.19703724       0.30972239      -0.10587029
Pb       3.40515639       7.90574700      13.52594707       0.04491941       0.25881420       0.02568727       0.82945723       1.32321697      -2.05786116
Pb      30.94787706       7.03347256      13.96018848      -0.20969622      -0.04120645       0.21755136      -2.68654785      -0.81118040      -1.97263633
I        5.03144826       9.38301041      15.75842097       0.15506939       0.04200786       0.21845645      -0.70288768       0.06381064       0.83450537
I        1.49373548      14.48806713      15.94113811      -0.03853829       0.11378729       0.13774259       0.75074119      -0.76496385       1.57220164
I        5.54365801       9.31837605      11.40373787      -0.11292588      -0.12442669       0.17820242      -0.11058436       0.36118161      -0.85983933
I        1.02507024      14.89908851      11.86898896       0.19673466       0.08123309      -0.23004317       2.55635236       0.17213321       1.02901881
I        5.08995132      12.96359667       9.41503964      -0.08264944       0.16311719       0.01268322       1.23909627       0.45927078      -0.89769478
I        1.34537777      10.52492777      13.89837976       0.13807702       0.08850201       0.06568149       1.55745960       0.53516241      -2.18570268
H        9.16212604       4.10620268      12.85254457       0.14480625      -0.18684996      -0.93633031       0.14917252      -0.03406448       0.17268750
H        9.11879491       4.64305058      15.05720435       0.07607288       0.47331517      -0.09167673      -0.12855301      -0.15390264      -0.10584253
H        9.55494745       3.01765034      15.61370535       0.06642285       0.47991227      -0.65677373      -0.06326824      -0.10430003      -0.05972141
H       10.16140803       1.29938165      13.93290256      -0.31278387       0.18573230      -0.43501120      -0.04271456       0.01372645      -0.02176917
H        9.78591084       1.87526198      12.18730627       0.00726408      -0.25625981       0.60785111       0.06169121       0.07192333      -0.00984901
H       12.80815564       6.64022056      10.02747071      -0.07136217       0.00293886       0.08632277      -0.03151510       0.21634896       0.16074787
H       14.79987826       5.42310433      10.22006926       1.07564031       0.58171685       0.67260255      -0.05409682      -0.04143265       0.06438858
H       14.22977222       4.13188543       9.22254004       0.04480819       0.19860806      -0.02379301      -0.08783900       0.03703376      -0.15109835
H       12.20489225       4.40436404       8.12902276      -0.45137342       0.22356528       0.08642561      -0.05186446      -0.19115053      -0.22518893
H       11.04516300       5.70228766       8.63273055       0.44194577      -0.14649116      -0.13846538       0.07408252      -0.00680430      -0.11347013
C        9.45374378       3.27806645      13.54930916      -0.30776425       0.42740689       1.48287529       0.26295140       0.36796228      -0.48520402
C       12.94470625       5.69206966       9.49999167      -0.84109556       0.50225790      -0.10663569      -0.17859096       0.10572984       0.46972706
N        9.41373125       3.67435800      14.80546706      -0.11942128      -1.34548044       1.02983975      -0.16444782       0.99085162      -0.07055950
N        9.77645142       2.04358195      13.21156525       0.39664096       0.08126681      -0.90446702      -0.14914815      -0.16262125      -0.04004404
N       14.07870430       5.06365259       9.64426155      -0.20414422      -1.13218141      -0.58260593      -0.54643432       0.34953600      -0.21048021
N       11.97374725       5.24183027       8.71636539       0.15105944      -0.21895631       0.00129297       0.08163255      -0.03721376      -0.16165437
Pb      11.58331065       0.38610525       9.37664200       0.29844871      -0.02290367      -0.26868950       0.29706614       1.67293533       2.53486311
Pb       7.71830573       0.13099138       9.47291025      -0.29584654       0.24666650      -0.45134566      -1.93504449       1.15942305      -0.57373054
I       13.44312877       1.56409863      11.77830022       0.05488769      -0.07758776      -0.14626546       0.04636004      -0.37158302      -0.30832111
I        9.41529369       6.99047757      11.72188910      -0.15504877      -0.38503879      -0.39751812      -0.41136558       0.32116144       2.62636600
I       13.98072142       1.93685684      16.10945283      -0.08950474       0.28381075      -0.13167812      -0.86625946      -0.34122049      -0.81677803
I        9.21977246       6.74441636      16.16201504      -0.09487414       0.37705504       0.19040512      -0.35655066      -1.80338900       1.54789692
I       12.95642898       5.18465629      13.67351902      -0.00687217       0.04344622      -0.00116576      -2.78380913      -1.73379889      -0.11477938
I        9.57503616       2.77958893       9.82857192      -0.11445057       0.22690635      -0.22368246       0.54811967       0.23098860       0.05340617
H        8.53877024      11.14804584      10.96419611      -0.16421059      -0.39526562      -0.32686264       0.02976819       0.05526631      -0.13841652
H        7.14690169      11.50648364       9.14898227      -0.01400953       0.06927790       0.06740464      -0.04213835       0.32235382       0.13659208
H        8.26727150      10.93428087       7.94779602       0.42800670      -0.22420695      -0.67995904      -0.03692262      -0.12666091      -0.27268008
H       10.55895767       9.92474097       9.03998765      -0.34908426       0.02727363      -0.36156653      -0.15391441      -0.01564483       0.10818170
H       10.61399784       9.94497030      10.69775637      -0.52284233       0.28558068       0.48343830       0.03054937       0.17203929      -0.14443748
H       13.79093679      13.28281661      12.27680293      -0.10791406      -0.01261051       0.77278708       0.10337138      -0.26383157      -0.14810098
H       13.63922958      11.03083922      13.12174819      -0.04475499       1.30826111       1.02871821      -0.02810417      -0.00379616       0.07916730
H       13.54249756      11.52039169      14.85343704       0.09202906       0.11206700       0.70143109      -0.04280908      -0.01131335      -0.00974638
H       13.49170269      13.92048431      15.26770600       0.03993624       0.51003053       0.77492069      -0.01285542       0.00894027      -0.11023839
H        7.06015305      12.25915566      13.95723571      -0.26610841      -0.13000071      -0.13119544       0.05625317      -0.10413763      -0.04817512
C        8.86420630      10.77710021       9.93338851      -1.05790631       0.81258264       0.72702912       0.43190307      -0.14666547       0.08325224
C       13.66101344      13.07809292      13.41468093       0.15294879       1.82042236      -1.34246923      -0.21885687       0.28772470       0.09952025
N        8.04886213      11.05425218       8.92472430       0.22675817      -0.15189997       0.93317730       1.37752128       0.06387379       0.29505412
N       10.04382611      10.21662025       9.89508345       1.60432103      -0.58419551      -1.03422835      -0.03128782       0.68003418      -0.31421178
N       13.67714529      11.84275356      13.85614323       0.06723135      -3.54039504      -1.17272511      -0.36531281       0.03763376       0.33399015
N       13.60691069      14.14352015      14.22502637      -0.23267437      -0.03782488      -1.03475859       0.38367756       0.71132785       0.50492306
Pb      11.34117557       7.89538980      13.96907119       0.08110432      -0.05118777       0.13611925       1.05010089      -0.07866104       1.99752739
Pb       7.44391496       8.25184474      13.76291751      -0.32463902       0.01262452       0.00333100       3.26156997       0.34320511       1.23472948
I       13.27229830       8.94188033      16.21264014       0.11533177       0.09184869       0.07710961       1.01861788       0.64558607       1.37965949
I        9.34286379      14.52976934      15.50365477       0.06798750       0.03630747       0.34277006       2.46727564      -0.45500555       0.31981811
I       13.22349444       9.09210153      11.65958608       0.02134161       0.12725388      -0.15574019      -1.20868685      -0.59415436       0.25801819
I        9.27262355      14.01346269      11.29006223      -0.01264136      -0.29745842       0.44441819       0.07038302       0.56193065       1.05724199