768
Lattice="25.244031463055336 -0.051139010145229986 -0.15563925591508607 -0.008975214029691772 25.575374942549175 -0.11406019386377196 -0.3474594723078396 -0.009706484009668169 25.26731789926129" Properties=species:S:1:pos:R:3:forces:R:3:momenta:R:3 pbc="T T T"
H        9.55750917      10.22249415       4.51497238       0.53038517       1.02413042      -0.95216828      -0.06345565      -0.05180706      -0.06540719
H        9.51329189       3.67126611       2.51003628       0.61755851      -0.53211871      -0.63346309      -0.03949264      -0.01806778      -0.14471663
H        8.64523396       3.45748408      10.15692508       0.00209061      -0.07165503       0.45133363      -0.00797919       0.13556675       0.04491107
H       10.82728558      10.60794688       9.74270310       0.00064925       0.29544019      -0.27193156       0.09414397       0.01896215       0.13422969
H       11.59281344      10.42106870       3.39014148      -0.67442594       0.60482369      -0.26769512      -0.05343987       0.14308193       0.01582901
H       11.44471283       5.13240657       3.02495903       0.04924207      -0.15672600      -0.51885507       0.04949418      -0.09941700      -0.25368091
H        1.49285895      11.46078398      10.75736201       1.32475123       0.20201923      -0.86311073       0.05865850       0.04548338       0.02595497
H        9.30613860      10.47950935      11.55710462       0.43785264      -0.51290334       0.45951100       0.15578815      -0.05671739      -0.02789334
H        4.55537674       4.91334586       2.15910179       0.60691568       0.90681675       0.22731852       0.23695768      -0.03569290      -0.13803174
H        2.65525872      12.74512374       3.02343436      -0.11961298      -0.19170818       0.16566890       0.15228058       0.12171941       0.14836648
H        2.07138317      12.31256860       9.21598128       0.13691515      -0.84134843       0.71291899       0.01450160       0.07155226      -0.10149344
H        8.27672412      11.73946322      11.04848786       0.68258600      -0.63126889      -0.54564379      -0.08608871      -0.04888918       0.06234786
H        3.72480852       6.18411328       4.21398082       0.20910132       0.50450638       0.30356129      -0.10031222       0.04080039      -0.13856837
H        1.69782821      11.36322690       4.90465709       1.71679156      -1.86225110       0.15026001       0.16543075       0.05048425      -0.01017387
H        4.52983112      11.45751387       8.47075284       0.04781748       0.13001459      -0.16849373      -0.00469094       0.00526116       0.14173518
H        4.04434268       5.75348630      10.62686023       0.44596867       1.45104240       0.66880847       0.10802706      -0.00145365      -0.07169978
H        7.91038026      11.74928151       4.25482558      -0.70069294      -0.04220803       0.52395540      -0.08323102       0.10130823       0.15515278
H        3.00229814      10.20993218       5.58466328      -0.09104717      -1.07775064       1.22332399      -0.00496004       0.12266932      -0.03505342
H        8.85603557       5.14838670      11.86058825       0.97456709       0.06928164      -1.33306747       0.36080272      -0.23826723       0.19736476
H        4.62689842       4.94612657       9.07572965      -0.72240385       0.22299149       0.51883270      -0.10459496       0.07038554      -0.24215208
C        9.75398380      11.10611239       3.80807206      -1.97972549      -1.55568043       1.88652914      -0.31592578       0.57745629       0.12381933
C        3.64170801      11.12520447       3.89114374       0.12252723       1.19206690       0.24115022       0.67612157      -0.47667158       0.14882562
C        3.38884725      10.91556694      10.14422399      -1.20765189      -0.49934394       0.53206221      -0.50941490      -0.16843634      -0.36955941
C        2.65539323       4.58941626       9.72693572       1.20682467      -1.18297863      -1.93679902       0.02310778       0.14473504       0.04751224
N        3.72254376       4.38231494       2.38931562      -0.87772291      -1.79607484      -1.68835572      -0.48566003       0.05198503      -0.10471604
N        3.46239663      12.08978903       2.99587239       0.76548686      -0.18443124      -1.30695815      -0.16243818       0.75241663       0.61058639
N        2.25195277      11.60147881      10.00548649      -0.44007950       0.47130150      -0.09143824      -0.18358590       0.66453379       0.11046933
N        9.15440295      11.17473788      10.85445756      -0.82087600       0.84916343       0.44772292       0.82199899      -0.35464442       0.05921001
N        2.95468661       5.51437151       4.30659038       0.80902546       0.31431153      -0.03856063       0.48842228      -0.17674779      -0.55542192
N        2.72547752      10.86042381       4.89529247      -1.87449284       2.68369885      -1.05366775       0.29727357       0.14485783       0.26599619
N        9.36040678       5.31716707      10.92132433      -0.81173553      -0.10545585       0.05973217      -0.00134486       1.09053922      -0.78160571
N        3.88456307       5.15793759       9.80313585       0.19692612      -1.59162071      -1.02684135      -0.22519085      -0.08143421      -0.22589345
Pb       6.23216628       1.33798570      13.00938277       0.28898455       0.02213597      -0.31385301      -0.87668164       2.00012622      -1.18780137
Pb       0.02618208       1.47153229      12.99455737      -0.20618106       0.41454257      -0.00988796       1.81519553      -1.30977174      -1.03156569
Pb       6.28406978       7.97845903       6.70888661       0.08432559      -0.10287878      -0.01485152       1.59955176      -2.35036621       1.00680586
Pb       6.13950563       1.61127515       6.53731002       0.15045399      -0.05545935       0.37503549       2.84060827      -1.73131858       1.03486144
I        9.49463909       1.16590253      13.65917922       0.04026059       0.09674257      -0.20764667      -2.35895445      -0.43916726      -1.94141493
I        3.18606696      14.37047122      12.38980809      -0.08440775       0.20311277       0.09980047       0.02853957       0.31913842       3.27909504
I        3.00534695       1.26417813       7.35105015       0.31471556      -0.03212983       0.00197171      -0.73403694      -1.16207376       0.70015553
I        9.44427166       1.67519390       6.56981005      -0.19629781       0.10403484      -0.04374366      -0.05859244       0.38920289      -0.46692220
I        6.11667819      11.06977966      13.29993471      -0.16291008      -0.02044713      -0.00383314      -0.46482142      -0.13173347      -0.74497984
I        6.99899689       4.65106804       0.53123683      -0.20436673      -0.07060874       0.03399456      -0.85578425      -1.71172981      -1.63411902
I        5.69833937       4.74273043       6.71824237       0.15738486      -0.00064448       0.00263959       0.26752288      -0.64319601       0.99341091
I        6.60856742      11.12651846       6.45302445      -0.14449995       0.03567458      -0.03593434       0.26731632      -1.49291656       0.40214190
I        6.17476767      14.53721103       3.41748066      -0.28406020      -0.07624095      -0.06323965      -0.00617077       0.95466596      -2.70871887
I        0.51949803       1.45816367       3.68659447       0.10855281      -0.10742423      -0.21245180       1.61842311      -0.05174156       2.34320959
I       24.76517632       1.85563384       9.77869912      -0.03632015       0.04684297       0.13661353       1.99930862      -0.34757184      -0.30813412
I        6.55854947       1.18115090       9.73850286       0.10208601       0.09131055       0.23783437      -0.01583054      -0.20738770      -1.69235508
H        2.06921966       3.85750697       3.61288828      -0.42210482      -0.58654486      -0.47243433      -0.20939622      -0.14516352       0.00370913
H        4.68890371      10.63708257       3.82957997       0.06084604      -0.62595378      -0.10320987       0.09969473      -0.01540594       0.00458382
H        3.37719702      10.22266465      11.03731427       0.35013872       0.38831749      -0.43486616       0.13633832       0.07655479       0.11790319
H        2.37299358       3.80740270       8.88965504       0.56530284       0.57221522       0.29753090       0.07155196       0.02784849      -0.02187117
H        3.51089945       3.64105488       1.68157666       0.10878774       0.47670865       0.71442701       0.14804386      -0.03248382       0.02466777
H        4.24599587      12.26178235       2.25316400      -0.49943521      -0.04372378       0.56474954       0.02833782       0.14117218      -0.02106827
H        9.51279775       3.84196564       7.97380126      -0.12686181       0.58042487       0.35525358      -0.06112352      -0.06108583      -0.08385419
H        0.83035196       4.28767812      10.58834426      -1.12805219      -1.09689355      -0.57271545      -0.06727437       0.04869525      -0.13815001
H       11.11916864      11.85031950       2.47075067      -0.17358141       0.12895355       0.06805347       0.07616285       0.03711847       0.12233808
H       10.53822348       5.83875232       4.36293564       0.03372190      -0.30748600      -0.35934299       0.10988642       0.06688972      -0.14605753
H        9.75497153       5.84692285       8.26518768       0.00337275      -0.70557517      -0.40307766       0.04646048      -0.08709966       0.01440700
H        1.84167317       5.52048147      11.38687612      -0.20607548       0.04537497       0.10966682       0.06506210       0.13434939       0.02436113
H        8.78077827      12.74053146       3.07813140      -0.18636506      -0.04618403       0.03474087       0.04174986      -0.02215914       0.03814348
H        8.39130437       4.84740634       5.08240359       0.50356272      -0.64552992      -1.05186598      -0.14101952      -0.16787601      -0.04852956
H        9.80552780       6.29932229      10.69958813      -0.26364754      -0.36360699       0.10617983       0.07481223      -0.05208566       0.13128772
H        8.58921017      12.53819893       8.84671715       0.31404469       0.24683578      -0.70545988       0.06132449       0.24192713       0.14360964
H        2.39530856       5.46981676       5.13677448      -0.57941603       0.13247417       0.67291708      -0.01015082      -0.13563077      -0.12475551
H        7.74584245       3.69616229       3.94443726      -0.48463582      -0.80774076      -0.38108717       0.00963513       0.03541243      -0.17887991
H        5.18145705      10.19855179       9.55294067      -0.29734391       0.48762512      -0.18874513      -0.06860740      -0.01065760       0.04781713
H       10.19649593      12.00617286       7.99308074       0.25280144       0.51093458      -1.14098156      -0.15983305       0.12991327       0.01824328
C        2.87475304       4.55406381       3.41752257       0.18887937       0.08298799       0.15560211      -0.20400817      -0.23451624      -0.37353628
C        9.56172953       4.34256605       3.36608645       0.78620473       1.18536660       0.16675192       0.21003716       0.18384509       0.52012335
C        9.14145139       4.47237524       9.91671080      -0.51831570      -0.32852519       0.72483484      -0.69007611      -0.79463776      -0.24247841
C        9.91808910      11.26380960       9.76453827      -0.76581210      -0.68340086       0.89411781       0.01058722      -0.19526072       0.32949086
N       10.87837615      11.16503907       3.18932300       2.01395864      -0.68713855      -0.33735012      -0.39580884       1.33128706       0.22020833
N       10.57550649       5.17326169       3.55203038      -0.72801423      -0.14179256       0.88662953       0.17105295      -0.05826346      -0.05926611
N        9.44900280       4.73124262       8.59746248       0.89046210       0.90423686      -0.11529576      -0.55822271      -0.29914321       0.36225413
N        1.66450964       4.86767434      10.53904364      -0.25824441       1.52454159       1.81698838       0.02974835       0.25172592      -0.89134462
N        8.72186029      11.91563020       3.69340350       1.18948845       0.36154659      -0.89885594      -0.47788719       0.57053079      -0.69158338
N        8.51165339       4.31413482       4.14545081      -0.84191404       1.71310394       1.93676270       0.12129449      -0.39683069      -0.14883083
N        4.43132330      10.88302426       9.31814664       0.17695991      -0.38718831       0.50383968      -0.17519163       0.14451022       0.38238351
N        9.53032678      12.00241293       8.74559849      -0.26651411      -0.24994660       1.16804968       0.25416054       0.47515155       0.05490133
Pb      -0.10403819       7.99909297      13.05080989      -0.17924854      -0.18831851       0.10601123      -0.91504993      -2.28256269      -0.86177058
Pb       6.30545457       7.71749184      13.02673935      -0.03278090       0.26449261       0.00643279       2.21478196      -1.18856226       0.34800001
Pb       0.07961210       1.71223832       6.70860251      -0.19216140       0.02260314       0.17321672       2.15179254       3.19533931      -2.08748764
Pb       0.01417691       8.06078915       6.76715386      -0.07134646       0.04554588       0.05689450       0.50714421       0.09735164       0.91579414
I        2.99043208       7.61858468      12.39053955       0.06283070      -0.04539713       0.06174605       1.32912308      -0.42311016       0.79953497
I        9.27077774       8.26084761      13.79865276       0.25793774       0.15495620      -0.24202894      -0.57866842       0.88350025       0.23038987
I        9.42153197       7.65443376       6.07937635       0.11717931      -0.04730624       0.02502362      -1.98454691       0.61101488      -2.05975111
I        3.17992198       7.93147926       7.19871142      -0.12393379       0.17687928       0.04881461       0.26069220       1.60670781       1.17645510
I       -0.16573906       4.85624631      13.47098856       0.04924818      -0.23226103      -0.06705758       0.30624505      -1.72686855       1.75137169
I        0.49635805      11.23808612       0.24001423      -0.13829452      -0.09571410       0.08070231       1.55598903       0.49440264       0.82931473
I       25.00494230      11.22644846       6.82843884       0.10691931      -0.01002892      -0.10435439       1.12145582       0.36687442       0.01875032
I        0.29768264       4.92433245       6.66568135      -0.06316873      -0.16215156       0.05203977       0.96869352      -1.60157651      -0.09986966
I       13.01489683       8.18456642       3.56633091       0.05097342       0.08843154      -0.05047701      -0.51976785      -0.70021809       1.31217813
I        5.71772274       7.81722438       3.47057413       0.02221048      -0.10810193       0.25944110      -0.45069798       1.59674991      -0.94433740
I        6.87448160       8.18895078       9.90964414      -0.00686335      -0.03414380      -0.23758672       0.00839038      -1.49142875       0.41767912
I       24.40573136       7.92674842       9.78893351      -0.04293556      -0.09855082      -0.03871363      -0.85304609      -1.24433788      -1.61070420
H        9.38377943      10.21764091      17.14863133       0.53038517       1.02413042      -0.95216828      -0.06345565      -0.05180706      -0.06540719
H        9.33956215       3.66641287      15.14369523       0.61755851      -0.53211871      -0.63346309      -0.03949264      -0.01806778      -0.14471663
H        8.47150422       3.45263084      22.79058403       0.00209061      -0.07165503       0.45133363      -0.00797919       0.13556675       0.04491107
H       10.65355584      10.60309364      22.37636205       0.00064925       0.29544019      -0.27193156       0.09414397       0.01896215       0.13422969
H       11.41908370      10.41621546      16.02380043      -0.67442594       0.60482369      -0.26769512      -0.05343987       0.14308193       0.01582901
H       11.27098309       5.12755333      15.65861798       0.04924207      -0.15672600      -0.51885507       0.04949418      -0.09941700      -0.25368091
H        1.31912921      11.45593074      23.39102096       1.32475123       0.20201923      -0.86311073       0.05865850       0.04548338       0.02595497
H        9.13240886      10.47465611      24.19076357       0.43785264      -0.51290334       0.45951100       0.15578815      -0.05671739      -0.02789334
H        4.38164700       4.90849262      14.79276074       0.60691568       0.90681675       0.22731852       0.23695768      -0.03569290      -0.13803174
H        2.48152898      12.74027050      15.65709331      -0.11961298      -0.19170818       0.16566890       0.15228058       0.12171941       0.14836648
H        1.89765343      12.30771536      21.84964023       0.13691515      -0.84134843       0.71291899       0.01450160       0.07155226      -0.10149344
H        8.10299438      11.73460998      23.68214681       0.68258600      -0.63126889      -0.54564379      -0.08608871      -0.04888918       0.06234786
H        3.55107878       6.17926004      16.84763977       0.20910132       0.50450638       0.30356129      -0.10031222       0.04080039      -0.13856837
H        1.52409847      11.35837366      17.53831604       1.71679156      -1.86225110       0.15026001       0.16543075       0.05048425      -0.01017387
H        4.35610138      11.45266063      21.10441179       0.04781748       0.13001459      -0.16849373      -0.00469094       0.00526116       0.14173518
H        3.87061294       5.74863306      23.26051918       0.44596867       1.45104240       0.66880847       0.10802706      -0.00145365      -0.07169978
H        7.73665052      11.74442827      16.88848453      -0.70069294      -0.04220803       0.52395540      -0.08323102       0.10130823       0.15515278
H        2.82856840      10.20507894      18.21832223      -0.09104717      -1.07775064       1.22332399      -0.00496004       0.12266932      -0.03505342
H        8.68230583       5.14353346      24.49424720       0.97456709       0.06928164      -1.33306747       0.36080272      -0.23826723       0.19736476
H        4.45316868       4.94127333      21.70938860      -0.72240385       0.22299149       0.51883270      -0.10459496       0.07038554      -0.24215208
C        9.58025406      11.10125915      16.44173101      -1.97972549      -1.55568043       1.88652914      -0.31592578       0.57745629       0.12381933
C        3.46797827      11.12035123      16.52480269       0.12252723       1.19206690       0.24115022       0.67612157      -0.47667158       0.14882562
C        3.21511751      10.91071370      22.77788294      -1.20765189      -0.49934394       0.53206221      -0.50941490      -0.16843634      -0.36955941
C        2.48166349       4.58456302      22.36059467       1.20682467      -1.18297863      -1.93679902       0.02310778       0.14473504       0.04751224
N        3.54881402       4.37746170      15.02297457      -0.87772291      -1.79607484      -1.68835572      -0.48566003       0.05198503      -0.10471604
N        3.28866689      12.08493579      15.62953134       0.76548686      -0.18443124      -1.30695815      -0.16243818       0.75241663       0.61058639
N        2.07822303      11.59662557      22.63914544      -0.44007950       0.47130150      -0.09143824      -0.18358590       0.66453379       0.11046933
N        8.98067321      11.16988464      23.48811651      -0.82087600       0.84916343       0.44772292       0.82199899      -0.35464442       0.05921001
N        2.78095687       5.50951827      16.94024933       0.80902546       0.31431153      -0.03856063       0.48842228      -0.17674779      -0.55542192
N        2.55174778      10.85557057      17.52895142      -1.87449284       2.68369885      -1.05366775       0.29727357       0.14485783       0.26599619
N        9.18667704       5.31231383      23.55498328      -0.81173553      -0.10545585       0.05973217      -0.00134486       1.09053922      -0.78160571
N        3.71083333       5.15308435      22.43679480       0.19692612      -1.59162071      -1.02684135      -0.22519085      -0.08143421      -0.22589345
Pb       6.40589602       1.34283894       0.37572382       0.28898455       0.02213597      -0.31385301      -0.87668164       2.00012622      -1.18780137
Pb       0.19991182       1.47638553       0.36089842      -0.20618106       0.41454257      -0.00988796       1.81519553      -1.30977174      -1.03156569
Pb       6.11034004       7.97360579      19.34254556       0.08432559      -0.10287878      -0.01485152       1.59955176      -2.35036621       1.00680586
Pb       5.96577589       1.60642191      19.17096897       0.15045399      -0.05545935       0.37503549       2.84060827      -1.73131858       1.03486144
I        9.66836883       1.17075577       1.02552027       0.04026059       0.09674257      -0.20764667      -2.35895445      -0.43916726      -1.94141493
I        3.01233722      14.36561798      25.02346704      -0.08440775       0.20311277       0.09980047       0.02853957       0.31913842       3.27909504
I        2.83161721       1.25932489      19.98470910       0.31471556      -0.03212983       0.00197171      -0.73403694      -1.16207376       0.70015553
I        9.27054192       1.67034066      19.20346900      -0.19629781       0.10403484      -0.04374366      -0.05859244       0.38920289      -0.46692220
I        6.29040793      11.07463290       0.66627576      -0.16291008      -0.02044713      -0.00383314      -0.46482142      -0.13173347      -0.74497984
I        6.82526715       4.64621480      13.16489578      -0.20436673      -0.07060874       0.03399456      -0.85578425      -1.71172981      -1.63411902
I        5.52460963       4.73787719      19.35190132       0.15738486      -0.00064448       0.00263959       0.26752288      -0.64319601       0.99341091
I        6.43483768      11.12166522      19.08668340      -0.14449995       0.03567458      -0.03593434       0.26731632      -1.49291656       0.40214190
I        6.00103793      14.53235779      16.05113961      -0.28406020      -0.07624095      -0.06323965      -0.00617077       0.95466596      -2.70871887
I        0.34576829       1.45331043      16.32025342       0.10855281      -0.10742423      -0.21245180       1.61842311      -0.05174156       2.34320959
I       24.59144659       1.85078060      22.41235807      -0.03632015       0.04684297       0.13661353       1.99930862      -0.34757184      -0.30813412
I        6.38481973       1.17629766      22.37216181       0.10208601       0.09131055       0.23783437      -0.01583054      -0.20738770      -1.69235508
H        1.89548992       3.85265373      16.24654723      -0.42210482      -0.58654486      -0.47243433      -0.20939622      -0.14516352       0.00370913
H        4.51517397      10.63222933      16.46323892       0.06084604      -0.62595378      -0.10320987       0.09969473      -0.01540594       0.00458382
H        3.20346728      10.21781141      23.67097322       0.35013872       0.38831749      -0.43486616       0.13633832       0.07655479       0.11790319
H        2.19926384       3.80254946      21.52331399       0.56530284       0.57221522       0.29753090       0.07155196       0.02784849      -0.02187117
H        3.33716971       3.63620164      14.31523561       0.10878774       0.47670865       0.71442701       0.14804386      -0.03248382       0.02466777
H        4.07226613      12.25692911      14.88682295      -0.49943521      -0.04372378       0.56474954       0.02833782       0.14117218      -0.02106827
H        9.33906801       3.83711240      20.60746021      -0.12686181       0.58042487       0.35525358      -0.06112352      -0.06108583      -0.08385419
H        0.65662222       4.28282488      23.22200321      -1.12805219      -1.09689355      -0.57271545      -0.06727437       0.04869525      -0.13815001
H       10.94543890      11.84546626      15.10440962      -0.17358141       0.12895355       0.06805347       0.07616285       0.03711847       0.12233808
H       10.36449374       5.83389908      16.99659459       0.03372190      -0.30748600      -0.35934299       0.10988642       0.06688972      -0.14605753
H        9.58124179       5.84206961      20.89884663       0.00337275      -0.70557517      -0.40307766       0.04646048      -0.08709966       0.01440700
H        1.66794343       5.51562823      24.02053507      -0.20607548       0.04537497       0.10966682       0.06506210       0.13434939       0.02436113
H        8.60704853      12.73567822      15.71179035      -0.18636506      -0.04618403       0.03474087       0.04174986      -0.02215914       0.03814348
H        8.21757463       4.84255310      17.71606254       0.50356272      -0.64552992      -1.05186598      -0.14101952      -0.16787601      -0.04852956
H        9.63179806       6.29446905      23.33324708      -0.26364754      -0.36360699       0.10617983       0.07481223      -0.05208566       0.13128772
H        8.41548043      12.53334569      21.48037610       0.31404469       0.24683578      -0.70545988       0.06132449       0.24192713       0.14360964
H        2.22157882       5.46496352      17.77043343      -0.57941603       0.13247417       0.67291708      -0.01015082      -0.13563077      -0.12475551
H        7.57211271       3.69130905      16.57809621      -0.48463582      -0.80774076      -0.38108717       0.00963513       0.03541243      -0.17887991
H        5.00772731      10.19369855      22.18659962      -0.29734391       0.48762512      -0.18874513      -0.06860740      -0.01065760       0.04781713
H       10.02276619      12.00131962      20.62673969       0.25280144       0.51093458      -1.14098156      -0.15983305       0.12991327       0.01824328
C        2.70102330       4.54921057      16.05118152       0.18887937       0.08298799       0.15560211      -0.20400817      -0.23451624      -0.37353628
C        9.38799979       4.33771281      15.99974540       0.78620473       1.18536660       0.16675192       0.21003716       0.18384509       0.52012335
C        8.96772165       4.46752200      22.55036975      -0.51831570      -0.32852519       0.72483484      -0.69007611      -0.79463776      -0.24247841
C        9.74435936      11.25895636      22.39819722      -0.76581210      -0.68340086       0.89411781       0.01058722      -0.19526072       0.32949086
N       10.70464641      11.16018583      15.82298195       2.01395864      -0.68713855      -0.33735012      -0.39580884       1.33128706       0.22020833
N       10.40177675       5.16840845      16.18568933      -0.72801423      -0.14179256       0.88662953       0.17105295      -0.05826346      -0.05926611
N        9.27527306       4.72638938      21.23112143       0.89046210       0.90423686      -0.11529576      -0.55822271      -0.29914321       0.36225413
N        1.49077990       4.86282110      23.17270259      -0.25824441       1.52454159       1.81698838       0.02974835       0.25172592      -0.89134462
N        8.54813055      11.91077696      16.32706245       1.18948845       0.36154659      -0.89885594      -0.47788719       0.57053079      -0.69158338
N        8.33792365       4.30928158      16.77910976      -0.84191404       1.71310394       1.93676270       0.12129449      -0.39683069      -0.14883083
N        4.25759356      10.87817102      21.95180559       0.17695991      -0.38718831       0.50383968      -0.17519163       0.14451022       0.38238351
N        9.35659704      11.99755969      21.37925744      -0.26651411      -0.24994660       1.16804968       0.25416054       0.47515155       0.05490133
Pb       0.06969155       8.00394621       0.41715094      -0.17924854      -0.18831851       0.10601123      -0.91504993      -2.28256269      -0.86177058
Pb       6.47918431       7.72234508       0.39308040      -0.03278090       0.26449261       0.00643279       2.21478196      -1.18856226       0.34800001
Pb      -0.09411764       1.70738508      19.34226146      -0.19216140       0.02260314       0.17321672       2.15179254       3.19533931      -2.08748764
Pb      -0.15955283       8.05593591      19.40081281      -0.07134646       0.04554588       0.05689450       0.50714421       0.09735164       0.91579414
I        2.81670234       7.61373144      25.02419850       0.06283070      -0.04539713       0.06174605       1.32912308      -0.42311016       0.79953497
I        9.44450748       8.26570085       1.16499381       0.25793774       0.15495620      -0.24202894      -0.57866842       0.88350025       0.23038987
I        9.24780223       7.64958052      18.71303530       0.11717931      -0.04730624       0.02502362      -1.98454691       0.61101488      -2.05975111
I        3.00619224       7.92662602      19.83237037      -0.12393379       0.17687928       0.04881461       0.26069220       1.60670781       1.17645510
I        0.00799068       4.86109955       0.83732961       0.04924818      -0.23226103      -0.06705758       0.30624505      -1.72686855       1.75137169
I        0.32262831      11.23323288      12.87367318      -0.13829452      -0.09571410       0.08070231       1.55598903       0.49440264       0.82931473
I       24.83121257      11.22159522      19.46209779       0.10691931      -0.01002892      -0.10435439       1.12145582       0.36687442       0.01875032
I        0.12395290       4.91947921      19.29934030      -0.06316873      -0.16215156       0.05203977       0.96869352      -1.60157651      -0.09986966
I       12.84116709       8.17971318      16.19998986       0.05097342       0.08843154      -0.05047701      -0.51976785      -0.70021809       1.31217813
I        5.54399300       7.81237114      16.10423308       0.02221048      -0.10810193       0.25944110      -0.45069798       1.59674991      -0.94433740