768
Lattice="25.244031463055336 -0.051139010145229986 -0.15563925591508607 -0.008975214029691772 25.575374942549175 -0.11406019386377196 -0.3474594723078396 -0.009706484009668169 25.26731789926129" Properties=species:S:1:pos:R:3:forces:R:3:momenta:R:3 energy=-3643.6812687149372 stress="0.0 0.0 0.0 0.0 0.0 0.0 0.0 0.0 0.0" pbc="T T T"
H       10.28843499       9.31521664       4.38463653      -0.18117616       0.66472826      -0.29791829      -0.16515120      -0.10283168      -0.16295669
H        9.56494506       3.17677194       2.28408220       0.13088815      -0.00329098      -0.04612475       0.21829922       0.15616200       0.04397447
H        9.21257728       2.45121263      10.17107316       0.24263492       0.31743114      -0.14050919       0.02222943      -0.18672446      -0.01844663
H       10.61953583       9.35682133       9.13786145      -0.08131400       0.32362433       0.30137349      -0.03063520       0.05876788      -0.14837579
H       12.22402556       9.53371251       3.19759545       0.28952758      -0.31625875       0.30621679      -0.25166427      -0.19786852      -0.13097169
H       11.34175284       4.71443529       2.34850745       0.30681323      -0.12691469      -0.17428218      -0.00862682       0.02755296       0.07618899
H        2.03244083      11.07766788      10.42412509       0.26004314       0.22779444      -0.20118393       0.06187441      -0.07281463       0.19939368
H        9.90316358       9.31414865      11.50716522      -0.25176232       0.37646745      -0.50576744      -0.12412246      -0.07145766       0.18478840
H        4.95736496       4.74741201       1.97659372       0.94212686       0.76374684      -0.02732001      -0.08222976      -0.09189269      -0.02682035
H        3.55944742      11.68528320       2.29564369      -0.40581750       0.32834186       0.28082125      -0.00137487      -0.12215757      -0.15377505
H        2.91633832      11.73979015       8.96004727      -0.58676609       0.18017411      -0.07575329       0.09175184      -0.17114642       0.12754888
H        9.18677278      11.04594632      11.48547155      -0.07174800       0.13265977       0.15441922       0.05793634       0.05612152       0.04768958
H        4.26609586       5.57130466       4.36771994      -0.06416027      -0.16254585      -0.43794562       0.00565676       0.00327119      -0.01198447
H        2.67032597      10.95650766       4.69489012       0.85749641      -0.75784780      -0.30617797       0.01582327       0.02267258      -0.02252213
H        5.09245882      11.08465021       8.56698095       0.16778055       0.08336935      -0.57047990      -0.19593910      -0.05834676       0.11826360
H        4.37361843       5.33578641      10.67259582       0.39327562       0.78131131       0.37457942       0.13641806       0.08246277      -0.01303140
H        8.57738909      11.12385926       4.17601553       0.66790040      -0.19412348      -0.32256081      -0.09422398       0.08936771       0.13639322
H        3.56978174       9.58483330       5.37480437      -0.04748697      -0.10832709       0.14875120      -0.09328756      -0.03933546      -0.17087463
H        9.57831815       4.13829555      11.78277336      -0.44130227       0.00773470       0.57850697      -0.01315515      -0.00254288       0.10807793
H        5.17564317       4.44605907       9.35492767       0.30142970       0.00990488      -0.07763015       0.20135218       0.16669537      -0.10124385
C       10.43500214      10.25584994       3.76567937      -1.10412607      -0.15023789       0.16752986       0.16017134       0.26854903      -0.01551235
C        4.21959621      10.11357493       3.52819590      -0.65591113       0.42357359       0.47150597       0.32798534       0.55802034       0.76496636
C        3.90233150      10.40375463      10.07426370       0.85183062      -0.86667961       0.95181743      -0.20034925       0.02654519      -0.03540057
C        3.37497482       3.75700293      10.01426123      -0.34407908      -0.88649391      -0.75375075       0.35508684       0.90264549      -0.26151132
N        4.30184810       4.02174896       2.14668147      -1.54861196      -0.48613964       1.63093168      -0.08811023      -0.31672277      -0.94427377
N        4.19054073      10.89377540       2.44180698       0.03969757      -1.28177689       1.36254316      -0.25461271       0.54018019      -0.07989083
N        2.82676182      11.07905291       9.75336584      -0.23058770       0.22163322       0.18098260      -0.58657877      -0.15519352       0.23679031
N        9.71982750      10.23821897      10.97429811       0.04493888      -0.61741023       0.48280161       0.62030251       0.03791747      -0.28886124
N        3.55951732       4.82043728       4.24729304      -0.12703388       0.06871967       0.45626268       0.37774990      -0.16495040       0.00925510
N        3.42936516      10.23304963       4.60110776      -0.31317274       0.96290697      -0.55813355      -0.25697805       0.32384303      -0.64529250
N       10.07873182       4.22487396      10.91450703       0.14815813      -0.15978279      -1.05782982       0.02357404      -0.54409054       0.01992644
N        4.42927922       4.55109563      10.04428775      -0.81155548      -0.54728458       0.03926756      -0.58662436      -0.24811962       0.57400044
Pb       6.70613194       0.87982201      13.12573234       0.01003886      -0.26142416      -0.07056870       2.37120548      -2.39197178      -3.75318628
Pb       0.44102274       0.87421330      13.12706376      -0.01049152       0.46162901       0.27438101       1.50485058       2.11399094      -0.61030078
Pb       6.78001322       7.13930823       6.72872378       0.30550542       0.41480385      -0.28033326       0.35910975      -1.18123888      -0.61159010
Pb       6.79630601       1.07342968       6.85289610      -0.04967631      -0.37089510      -0.12230328       0.00974493      -0.74865656      -0.33715720
I        9.85081269       0.85336383      13.74287351       0.11346610      -0.13745028       0.07878333       1.18543180       0.62662200      -0.33333967
I        3.62206272      13.94965342      12.35899169      -0.08952956      -0.06431091       0.12919254       0.54004769      -1.22800265      -1.97261088
I        3.58712828       0.38017497       7.24869852       0.18132294       0.19885997       0.18223036       2.03312888      -0.93208058      -1.98287802
I        9.98060330       1.27849166       6.21998909      -0.15979187      -0.15947397      -0.09017659       1.81255419      -1.90634383       0.69535078
I        6.51603253      10.43950741      12.90666718       0.10357550      -0.06746966      -0.02841825      -0.67392942      -0.07209295       0.93318207
I        7.18296503       4.13332899       0.04565342       0.13485212      -0.29246178      -0.05999659      -0.37468085       0.83246296       0.02298881
I        6.39430819       4.09413964       7.15488866       0.10511987      -0.09361465      -0.09552075       1.70464331       2.61724848       0.10360057
I        7.26357784      10.40907222       6.38411109      -0.12336009       0.08476907       0.00295635       1.80227681       0.16826452      -1.84724659
I        6.27808739      13.78035282       3.48163628       0.06805867       0.02068806       0.01284936       0.12827182      -1.10408552       1.49832477
I        1.05380199       0.90512875       3.74990326      -0.10423118       0.04238321      -0.14719583      -0.86868123       0.72938964       0.19185215
I       -0.33402299       1.36515350      10.10092012       0.08796241      -0.03633850       0.01799057      -1.84241198      -0.80140656       0.63242685
I        7.31678927       0.38074203       9.98910228      -0.16137465       0.22828622      -0.11946692       0.72585561       3.43042655       1.33437604
H        2.76074990       3.23398639       3.26649570      -0.64209364      -0.86551630       0.05335741       0.12297575      -0.15137068      -0.12495960
H        4.94872187       9.26790826       3.57690447      -0.17668813       0.36696361      -0.24397378      -0.08772072      -0.30406368      -0.19310992
H        3.96157577       9.80908913      11.08299456      -0.26925018       0.24643301      -0.86949491       0.03924848       0.01750529      -0.10189018
H        3.37185544       2.90168981       9.30889499       0.11149996       0.17451238       0.10353604       0.13082724      -0.15192932       0.04129115
H        4.18433355       3.27727548       1.47849439      -0.07000043      -0.45063389      -0.74618143       0.03479506      -0.10266109       0.15669725
H        4.84196939      10.63143635       1.71129554       0.68943766       0.15636731      -1.03096982       0.11530468       0.15694721       0.18094867
H       10.26906948       2.71250609       8.04868320      -0.02677559      -0.00631771      -0.23675214      -0.12560953       0.08398925       0.16190245
H        1.42981847       3.33910590      10.65118508       0.12301032      -0.47748890      -0.25778812      -0.10840590       0.13194830      -0.08010640
H       11.92700448      11.11256294       2.54616608      -0.45012019       0.30858816      -0.08198064       0.20349890      -0.01858623       0.04389663
H       10.70478848       5.52518217       3.77551088      -0.24414838       0.14126671       0.09309853       0.07986527       0.26947276       0.21148891
H       10.99662045       4.30212437       8.46735365      -0.33904090      -0.33717260       0.06560706      -0.23758980       0.03757778      -0.00826651
H        2.20829451       4.71419947      11.34034257      -0.28141752       1.01097149       1.21239225       0.11075526       0.18234608       0.10861511
H        9.63288666      11.95347149       2.96273710      -0.26518451      -0.35674009       0.48131291      -0.01729305       0.09630598      -0.01852270
H        8.42100517       4.81257200       4.58553771       0.49623680      -0.87027372      -1.03445201      -0.16448354       0.09517790      -0.14811801
H       10.64250316       5.09781941      10.70854878      -0.15778140      -0.12069259       0.13525573      -0.11528063      -0.14769151       0.00761868
H        9.44491278      12.43087239       9.27027265      -0.07229432       0.08455101       0.27809942       0.02648342      -0.07848684       0.14340223
H        2.85594710       4.72357516       4.99731101       0.06112879      -0.08210832      -0.00783398       0.03362828       0.17330135      -0.01181462
H        7.83077121       3.33464262       3.85265592      -0.68327167      -0.66904086      -0.31569170      -0.05176255       0.17215389       0.26072381
H        5.73078843       9.76105082       9.48822180       0.56303060      -0.24858623       0.22423489      -0.10324864       0.06314169       0.12522908
H       10.47656143      11.60196069       8.02120652      -0.60799729      -0.22679163       0.79104997       0.08557045      -0.01484506       0.06197262
C        3.51027891       3.98719018       3.22748429       1.31976617       1.14070139      -0.86985616      -0.11134574       0.07889386      -0.28563221
C        9.58933742       3.98946604       3.02586779      -1.97960526      -0.57343667       0.55209941      -0.29650775       0.11359142      -0.02235055
C        9.84443390       3.35627457       9.93864800       0.73133969       0.25466184      -0.23747512      -0.21757501       0.47001708       0.20239372
C       10.11274999      10.34103309       9.67855084       0.48507630      -0.00930684      -0.32171066       0.25399122      -0.62583724       0.39140242
N       11.59354147      10.36164683       3.17279268       0.61438924      -0.10962454      -0.15414675       0.07450830      -0.57936742       0.11859942
N       10.59864369       4.79450956       3.05344615       1.23662403       0.75874223       0.14864586      -0.59247577       0.00393542       0.92229753
N       10.38750692       3.48503818       8.72122890      -0.30945647       0.43589549       0.88829799       0.27951392      -0.30906478      -0.71205143
N        2.29901014       3.89319767      10.76697189       0.42550666      -0.03585049      -0.80454399       0.09925120       0.43180690       0.11625753
N        9.44827258      11.13268381       3.60015614       0.35438185       0.18117707       0.04479054      -0.30029634      -0.46589808      -0.82106327
N        8.52788452       4.07225436       3.84289119       0.83447962       1.31135594       0.95715951       0.47359710      -0.35744330       0.00060896
N        5.00157120      10.43417034       9.33564855      -0.65665812       0.08237611       0.39903419      -0.75686695       0.40300138       0.19014494
N        9.97742023      11.54563737       8.96337645       0.42540390      -0.04795512      -1.03501455       0.17516220      -0.81926055      -0.72080994
Pb       0.37474610       7.44328370      13.10372732      -0.09426790       0.00364230       0.13779692      -0.10610144       0.05382268       0.51606671
Pb       6.78808490       7.18967865      12.95723190      -0.02839583       0.12221076      -0.38348371       1.81209081      -3.36308810       0.15902841
Pb       0.51593613       1.14987168       6.98595508       0.06837827      -0.23141093      -0.21546681      -0.77387424       0.97818393      -2.56721880
Pb       0.63838113       7.41985574       6.85203952      -0.10759078       0.15468936      -0.01966709      -0.39883506       0.54728751      -0.93060902
I        3.50013465       7.22272858      12.37848923       0.06424841      -0.06355199       0.04124504      -0.40921210       0.06357234      -1.29533171
I        9.84451221       7.42963548      13.55593204       0.11921046      -0.01766804      -0.10326251       0.51898479      -0.66862729       1.76555071
I       10.00365531       6.92998413       5.94670307      -0.04538197      -0.11321658       0.04905618       0.24616172      -0.83523367      -0.38950361
I        3.79510324       7.54573046       7.33395148      -0.24793910       0.06727080      -0.03737868       0.11871763       1.24746429       1.00852032
I        0.19987788       4.27005587      13.74553257       0.04276573      -0.16365854      -0.10461586      -0.92684785      -1.86706697      -0.24482520
I        0.94866119      10.57585461       0.10237949      -0.05295084       0.02478989       0.06963863      -1.41781010      -0.48726119       1.25693653
I        0.41555686      10.76182494       6.67128429      -0.10410533      -0.54068321       0.15281373      -0.00964719       0.20985083       2.68828599
I        1.08591269       4.18155076       6.94272322       0.05514329       0.44973400      -0.04228896       1.18128136       0.97065324      -0.54344376
I       13.70279151       7.53518745       3.42296611       0.04654791      -0.11411299       0.07128275       1.79038190      -0.54200064       2.55530639
I        6.36934298       6.89801327       3.27312928       0.05993065       0.07730651       0.16218305       1.03312622       1.41438198      -0.58087772
I        7.59371424       7.43883616       9.60590187      -0.13658019       0.01655524       0.42083748       1.21111864      -0.84021916       0.67789713
I       -0.30399178       7.05272500       9.98573665       0.10178630      -0.00562334      -0.10073430       0.70723383       0.04445994       1.67678810
H       10.06211730       9.48669281      17.07195179      -0.30441781       0.80218775      -0.85969846       0.00344142       0.23285857       0.22711328
H       10.11401179       3.38648873      15.00416710       0.21986939      -0.92095370      -0.53273739      -0.11276203       0.21292293       0.03436248
H        8.69438063       3.14669957      22.66480198      -0.20383259      -0.21493296       0.06199271       0.00089149       0.11701461       0.01346550
H       10.64058450       9.32778987      22.01060686       0.29074503       0.02796043       0.39875007      -0.01391955      -0.08164087      -0.07690978
H       11.84685400       9.39721603      15.62687931       1.19102583      -0.69552673       0.08704917       0.07432124      -0.02104401      -0.05109662
H       11.75368652       4.77400954      15.76224692      -0.32337908       0.42709653       0.25813996       0.01772438      -0.25490640       0.05945491
H        2.20915676      11.06213055      23.53317824      -0.04934812      -0.03936906       0.13704292       0.02731902       0.18454992       0.00347113
H        9.61243337       9.65952111      24.21842638      -0.22464434       0.91738536      -0.81153503      -0.09252019       0.22059815      -0.05903215
H        4.98102602       4.48120483      14.86601813      -0.09454600       0.32632647       0.22228950      -0.06757239      -0.04810496      -0.01109774
H        3.60245210      12.26546951      15.46737214       0.46259368      -0.45204313       0.08044061       0.01809218       0.11255568      -0.00584955
H        2.64839074      11.66163213      21.87550677       0.22182032       1.26637659      -1.18967405       0.17522599      -0.03590005       0.03916280
H        8.99443318      11.32497957      23.70625119       0.13446555      -0.42837150       0.15554378      -0.02101788       0.11723542      -0.30883767
H        4.39158259       5.58481530      17.05008794       0.23627204       0.00232448      -0.41881074      -0.20007145      -0.22044468       0.03017990
H        2.62759728      11.51921881      17.72995805       0.04125263      -0.16655298      -0.06249599      -0.04221304      -0.03193221      -0.09251089
H        4.83680441      10.88147750      20.87308867       0.04402412       0.21677955      -0.36095381       0.05078193       0.07834182      -0.08842329
H        4.19648007       5.35712479      23.00359409       0.14342932      -0.02317605      -0.21707414      -0.10440668       0.00858424       0.06419863
H        8.42807530      11.05267021      16.64219667      -0.66860704       0.53704882      -0.08643391       0.08203763      -0.18075705      -0.14014165
H        3.12438190       9.86717462      18.33819056      -0.08329879      -0.09335130      -0.03802667      -0.09511538       0.01807704       0.00942836
H        9.38968551       4.66294781      24.29037064      -0.48674290       0.22077498       0.47434091       0.03485289       0.23111237       0.13981243
H        5.08194784       4.65195768      21.63323677      -0.21443077      -0.17450207       0.14674924       0.05682112      -0.07312443       0.26136569
C       10.10838366      10.18526426      16.16985281       1.24171716       0.74874132      -0.45143216       0.37589524      -0.50805986      -0.26634311
C        3.97160383      10.45333746      16.56800237       0.31706973       0.70080212      -1.79466600      -0.43350512      -0.14863233      -0.43890794
C        4.03043318      10.39022537      22.83516526      -2.22192654       1.54621788       0.05773159      -0.58749817      -0.28419267       0.06700788
C        3.20163561       3.94491210      21.93281045      -1.26635578      -0.48349414       0.12197610       0.83026526       0.04420066       0.01178054
N        4.00342563       4.04252225      14.98958784       0.89610871      -0.34324352      -2.05658021       0.53209381      -0.49704394      -0.47938160
N        4.20227264      11.40728301      15.54507888      -1.70691559      -0.35618552       2.72437262       0.36005468       0.08006726       0.34621169
N        2.88759495      11.10372244      22.72766970       0.79971770      -2.12640180       1.29597281      -0.09300040       0.24580234      -0.22038257
N        9.52466993      10.42189958      23.48373199       0.43175349      -0.56546664       1.00156316       0.10995569       0.25059916       0.03072546
N        3.61063905       4.91702100      17.06002761      -0.51017232       0.23530640       1.18284173       0.41839568       0.21576018      -0.12614955
N        3.13910871      10.58390880      17.58316527      -0.30641675       0.57098948       0.41098314      -0.46162323       0.01782961      -0.88500637
N        9.80333674       4.75626651      23.35551375       0.82387444       0.67018015      -0.49698142      -0.41731830      -0.15127523      -0.45829729
N        4.24645137       4.65519417      22.23854287       0.88402158       1.19291156       0.38857182      -0.65731732      -0.03890395       0.26883559
Pb       6.91026198       0.85439093       0.41005702      -0.24042658       0.04973070       0.09469472       0.02307531      -1.10560615      -1.64582610
Pb       0.46749058       0.99541921       0.43707597       0.38995159       0.04921715       0.10348584      -0.71954111      -2.06185728      -0.56964966
Pb       6.59998568       7.53387080      19.17522433       0.19028253       0.08010213       0.12324870       0.21127608       0.01535787       2.35647078
Pb       6.76479977       1.06668797      19.31034003      -0.15671368      -0.22672784       0.07619024      -0.77686106       3.56472773       3.23696693
I       10.10991981       0.75370792       0.89308642      -0.30572414      -0.12107291       0.07785725      -0.98664743      -0.32441831       0.20924627
I        3.44055635      14.08880234      25.16765462       0.16559100       0.05669979      -0.06135516       2.73673430      -1.96774007      -1.11094860
I        3.53827848       0.63675373      19.98246916      -0.00641535      -0.04070250       0.03412224       2.25255753      -1.80109680      -2.00453662
I        9.85247815       1.31151938      18.88141705       0.11970848      -0.27300522      -0.00482736      -0.69020047      -0.18429850      -0.75702493
I        7.03604245      10.50517061       0.29054388      -0.13061506      -0.07159179       0.03386944       0.66385854       0.04382275       1.05120704
I        6.93955918       4.04655527      13.03872675       0.16727740       0.07059483      -0.15488492      -0.78465840       0.33062361       0.58439038
I        6.46522419       4.30083862      19.22803816      -0.08821674      -0.01288486       0.22865083       2.13238287       1.79942228       1.10401425
I        7.27902719      10.78396611      18.95580831      -0.22719827      -0.38755856       0.03107660       1.68194551      -1.80724968       1.22843464
I        6.47012081      13.98873688      16.14548988       0.04559305       0.07588347      -0.02993737      -1.91036068       1.48114190       0.52941737
I        0.95640980       0.72390288      16.39971291       0.15653086      -0.16039570      -0.30954612       0.78695371       0.17843550      -0.35655276
I       -0.39562145       1.14399437      22.52069703       0.06176616       0.07828510       0.26986703      -1.06728425       0.82075744      -0.70508328
I        6.94703953       0.73859706      22.55238895       0.17832658      -0.13505684      -0.09287817       0.08144467      -0.71115844      -0.20872742
H        2.37961104       3.45247537      16.20860981       0.35475869       0.52844840      -0.30553675       0.13063305       0.01800880      -0.20371927
H        4.53017502       9.46713235      16.55572760       0.07010228       0.09898958      -0.19600748       0.06843653      -0.17284268      -0.05496233
H        4.18746111       9.86677309      23.87697998       0.00145717      -0.49133388       0.04592301       0.04286018      -0.08700257       0.09405146
H        3.33921397       3.20678900      21.14518649      -0.22178494      -0.38810931      -0.07127102      -0.18718464      -0.22548975       0.06118887
H        3.75982946       3.41313977      14.21015604      -0.20119183      -0.23247424       0.29827524       0.26482646      -0.13575973       0.09108515
H        4.80789849      11.18273860      14.78926657       1.00356247      -0.33382533      -1.08658505       0.23341991      -0.07586994      -0.09532994
H        9.72425650       3.00986320      20.61550501       0.22212292       0.14233242      -0.31345379      -0.09520121       0.03445978      -0.11130554
H        1.24175309       3.38921556      22.30487182       0.34335383       0.13141595      -0.03800847      -0.01286378       0.07021935      -0.09864102
H       11.40481742      10.71840973      14.61475495       0.07995237       0.40484074      -0.47462624       0.07708054       0.22807719       0.09451683
H       10.78518750       5.53592841      17.03957519      -0.15706169       0.37234339       0.59139736      -0.04046791       0.04782579       0.03769556
H       10.74062165       4.45015349      20.90501352       0.48312598       0.30106835      -0.15221497      -0.03958360      -0.04123980       0.10982558
H        1.74183366       4.82274463      23.11389273       0.05299569       0.42550912       0.72427889       0.01039028       0.06372593      -0.10262956
H        9.18692512      11.75395285      15.14926485       0.09714732       0.12356891       0.02120927       0.12229681      -0.05686301      -0.03079048
H        8.53348936       4.17484817      17.56776797       0.12911075      -0.30102520      -0.40501533      -0.17374105       0.13983724       0.16841831
H       10.51022518       5.50986072      23.11666244      -0.31502193      -0.32879998       0.42055061      -0.07769564       0.02959718      -0.18833299
H        9.17635583      11.89525292      21.45669065       0.43755340       0.06034690      -0.24967867      -0.08781971      -0.01288833       0.02936877
H        2.99134712       4.99796662      17.90473289       0.13297257      -0.32975370      -0.66544109       0.21914192      -0.17241798       0.11193030
H        8.13792852       3.00131371      16.24232659      -0.08998770      -0.01548202       0.05643871       0.00505348      -0.11286072       0.14267297
H        5.78930438       9.74401920      21.92037320      -0.60530238       0.54050518      -0.01074503      -0.00973489       0.06747577       0.05631709
H       10.35098138      10.97689273      20.47504989       0.51048232       0.22981786      -1.12671266      -0.15359589      -0.12541349      -0.15846600
C        3.28509396       4.11710370      16.06004102      -0.93672762      -0.31277659       1.68990438      -0.03189512      -0.15132039      -0.13857544
C        9.93432970       3.93728520      15.94672683       0.89684450       2.22175073       0.92034099       0.00967048      -0.07986575      -0.29329983
C        9.45821408       3.89486039      22.42053836       0.29849813      -0.39021543      -0.05719610       0.49985656      -0.44203070      -0.38690598
C       10.07907587      10.26898446      22.29709557      -0.75100273      -0.14517569      -0.09939378      -0.51292644       0.93371374      -0.07506622
N       11.22064685      10.14758734      15.43048953      -1.52532823      -0.40153140       1.06212958      -0.33432672      -0.74282832      -0.36366486
N       10.87394090       4.84877806      16.30143681      -0.34745595      -1.95243525      -1.29530013      -1.07541262      -0.35428515      -0.35783714
N       10.01591905       3.81115884      21.22192623      -0.73876686      -0.22684870       0.02502727       0.68665208       0.63415278       0.03743083
N        2.00108730       4.06029564      22.50328654       0.36541481      -0.76392551      -1.03388778      -0.24634497      -0.42819412      -0.50835099
N        9.16677296      11.08574574      15.93253921      -0.02481990      -1.29860978       0.87724240       0.41212110      -0.10889244      -0.32387659
N        8.79172000       3.73220205      16.60500907      -0.33257247       0.33785577       0.31395495       0.65084725       0.36699738       0.54046663
N        4.92119613      10.33940656      21.78881211       1.83345396      -0.78538878      -0.01150773       0.13443310       0.27559259       0.02702584
N        9.87181422      11.14201643      21.33814377      -0.69918859       0.11453835       0.81318108       0.47883235       0.19815950      -0.61595828
Pb       0.91926819       7.36837861       0.35365656      -0.28529041       0.11178955       0.16926733      -1.47800655      -2.69255447       1.63417665
Pb       7.11860085       7.15980207       0.17212242       0.30486471       0.40474780       0.09105293       1.43150563      -2.39845434      -2.44855990
Pb       0.41674121       1.02072073      19.51718755       0.05077475      -0.12971369      -0.16214351      -0.87999182       0.04826405       0.60645241
Pb       0.37573056       7.46755195      19.33133400      -0.04402650       0.11073018      -0.07510273       0.58767484       1.99586040      -0.00661822
I        3.80491675       7.16473800      24.91225150      -0.44165816      -0.09628246      -0.04063351       1.24380128       0.17121147      -0.62841371
I       10.37837361       7.86609425       0.75091228      -0.44687376      -0.15163173      -0.05092895       0.30871440       1.32403415      -0.00100620
I        9.90366065       7.25712627      18.84492177      -0.17768469      -0.12837738      -0.00081677       1.97300047       2.16518022       2.16052126
I        3.53196273       7.76972205      19.90100337       0.12835708      -0.04898449      -0.08530864      -1.34220659       0.59897686       1.10645102
I        0.52619164       4.20239666       0.58134698       0.14488560      -0.01441980      -0.11298739       0.85720266       2.18216179       0.82245102
I        0.77143552      10.65692596      12.64675899      -0.09678755      -0.19113543       0.07693488      -0.49521935      -0.75722273       1.03801980
I        0.01977267      10.67678611      19.79229919      -0.00119245      -0.07480857      -0.03746927       2.21474773       0.30757365       2.99217658
I        0.50697320       4.22646546      18.76864352      -0.04139418       0.00061325       0.17136652       3.04608261      -1.06672764      -0.09763868
I       13.65424501       7.38777823      16.17388652      -0.10421690       0.02706426      -0.42361200      -3.48912848      -1.61157306       1.04077069
I        6.38327768       7.17643093      15.94956113      -0.11416696       0.00529294       0.13508624       2.29397124      -1.94998802      -0.04043670