768
Lattice="38.994998665037166 0.07106821782705662 0.35547318029268 0.20366633889610405 23.235525993811105 -0.050934670340891476 0.6633844787472418 -0.16287480069770385 18.246656201326342" Properties=species:S:1:pos:R:3:forces:R:3:momenta:R:3 pbc="T T T"
H        7.72431784       0.73682389       4.23770282      -1.51047770       0.52276576       0.28206647      -0.14405938       0.12669107      -0.03724583
H       12.02739398      12.36687144       2.20073597       0.64228503      -0.69580826       0.21368046       0.03998948      -0.03213815       0.14274699
H        2.65471014       6.58746734       4.69749136      -0.48434043      -0.28613663       0.34895411      -0.05744533      -0.02174322      -0.14309957
H       17.65148819       6.12322040       1.81007494      -0.28126124      -0.11527511       0.29922306       0.19173722       0.04149517      -0.11575863
H        6.17944751       0.02568642      10.18469579      -0.19123937       1.04492654      -0.14796007      -0.07597768      -0.20727089       0.06125454
H       12.41669745      10.31955565       3.54059722       0.30776084       0.19726802      -0.49103448      -0.04840971      -0.12464863      -0.16270306
H        4.27622036       5.92873254       7.63817371       0.06024381      -0.19614569       0.08443528       0.02414973      -0.22702154       0.09100868
H       16.13540181       6.99715951       3.51803591       0.06071657       0.16596886      -0.27057715       0.09015212       0.04617547      -0.06651233
H        5.19858565       1.59342634       5.66634014      -0.38783876      -0.18580533       0.25608405       0.01638598       0.07516069       0.00057095
H       13.99937694      10.02125143       2.75626833      -0.66448178       0.58764751       0.44386582      -0.06760816       0.09353968      -0.01224313
H        5.22437196       7.37435380       8.01265300       0.76153307       0.47075627      -0.52621462      -0.00272373       0.14565362      -0.02906902
H       15.05028630       5.60456836       3.27510178       0.42456107       0.43533447      -0.24985904       0.11806001       0.04955140       0.13385773
H        6.06896640       3.29062177       4.17835508       0.18565951      -0.48987921       0.03682251       0.07458262      -0.06158594      -0.14231491
H       14.84428894      11.65886954       1.32648055      -0.16717385       0.60277478      -0.32999177      -0.18808549      -0.08969117      -0.00802870
H        4.08561656       9.24937434       4.46369789      -0.52590904      -0.61553839       0.37737885       0.09933188      -0.15000180       0.11398541
H       15.51973355       3.92182633       1.53496782       1.14825306       0.81392763      -0.25695239       0.15098470       0.20412039      -0.17057593
H        7.54923742       2.85535630       3.38208973       0.76077369       0.19446694      -0.61991236       0.07898370      -0.05738955       0.09079914
H       13.81645762      13.16103697       0.91384402       0.07656588      -0.60746840      -0.02955751      -0.03904130       0.22404378       0.07177706
H        2.78782207       8.64167688       5.70538224       0.35888199       0.13629050      -0.29274100      -0.09652284       0.03737591       0.00149122
H       17.40473169       4.30829816       5.30122501      -0.22506306       0.04161336       0.14399331      -0.05697852       0.10457733      -0.11814627
C        6.79054235       1.35324279       4.48309021       1.89655449       0.23580056      -0.37721354      -0.20407346       0.40765246      -0.47497805
C       13.01191087      11.74996945       2.18994353      -0.89964702       1.53951428      -0.31135341      -0.98113775       0.51284503      -0.09862413
C        3.40959279       7.28374583       4.34967306      -0.27096050       0.40613485       0.19921129      -0.46877598       0.29639328       0.31376286
C       16.69788521       5.60239797       2.07804087       0.41432481       0.15752928      -0.60432992       0.18009751      -0.02935336       0.62753100
N        5.92251279       0.92800545       5.36538459       0.26977415       0.07168735      -0.59793610      -0.33406525      -0.10171752      -0.05954745
N       13.18279313      10.65514292       2.92754194       0.23218517      -1.16575005       0.26402345      -0.43535599      -0.22952257      -0.25032411
N        4.41101473       6.79495193       8.18365589       0.11323761      -1.36276665      -0.90050035       0.37464415       0.39210979       0.11282648
N       15.85301201       6.16866108       2.90543666      -0.65096450      -0.66998738       0.80639499      -0.18319590      -0.77365343      -0.24438052
N        6.78436880       2.57305085       3.96281177      -1.02342670      -0.21692222       0.60795628      -0.11340859      -0.54959095       0.31941488
N       13.91655647      12.21851807       1.35545533       0.38438105      -0.59204909       0.33914340       0.59274290       0.22077051       0.02586985
N        3.50021039       8.44788915       4.96190656       0.09418579       0.42075466      -0.14126992       0.27405757       0.09396483      -0.04774619
N       16.46310200       4.44859708       1.45296697      -1.73432817      -0.44831954       0.78078172       0.55823049       0.43565246       0.70568633
Pb       1.16547566       2.40437319       1.74930520      -0.09819396       0.33585121       0.08686436       1.54349837      -1.48230886       2.09886680
Pb      18.74667168      10.45906126       4.77687822       0.03801173      -0.05424223      -0.15092407      -1.78281691      -2.06628438       1.51679091
Pb       8.93227309       8.39789485       2.51740045      -0.16517956       0.01310768      -0.23434196       1.83070968      -2.64933488      -1.07610190
Pb      10.90701128       4.80045128       4.35228550       0.10584877      -0.12461319       0.03804648       0.98307715      -1.38386367       1.98568422
I        0.37974897       4.60751553       4.18447853      -0.02042946      -0.07160840      -0.16787076       0.79908907       0.42464979       0.54702583
I       39.10278613       8.58033220       2.34856078      -0.06861918       0.09499310       0.10580858       1.50695514       2.25471115       0.23900673
I        9.78219136      10.33444914       4.59941906       0.39398456       0.21232979       0.18426033       0.08393450       0.63112259      -0.61432531
I        9.75857018       2.80282470       2.07725505       0.17941130      -0.00026785      -0.06142138      -0.96655599      -0.43982971       1.25131335
I       17.56859733       1.05288132       2.43489427       0.11495666      -0.17191652      -0.05989101      -1.03076793      -0.72479884      -0.20191031
I        2.31130354      11.89234298       4.04466369      -0.06210429       0.10393490       0.01130413       1.67824243      -0.27499605       0.55277539
I       11.90232768       7.14108433       2.15076124       0.01490183      -0.22097210       0.02032915       1.70217893      -0.64787356      -0.41625169
I        7.98931310       6.30183355       4.78659744      -0.16535184      -0.21879338      -0.02955475       0.28882297      -1.90691140       0.01116113
I        3.95626689       3.89045677       1.61220759      -0.07599565      -0.11922086      -0.07054836      -1.00771387       1.32945041       2.00778799
I       16.07901740       8.87074781       5.25745586      -0.17372179       0.30222051      -0.07835883       0.02486448      -1.75316501      -1.00102410
I        5.97128482       9.69757483       2.69537445       0.16849690       0.18485453      -0.17379965       0.21537421       0.16230550       0.57395935
I       13.75263520       3.48830782       4.25861369       0.00081266      -0.13806133      -0.17391097      -0.89522342      -0.78082889       0.74496134
H        7.77286204       0.77791986       8.66272460       0.45408989      -0.62329026      -0.26265887       0.10110024       0.04944316       0.09118649
H       12.28946680      12.04240018       6.95606698      -0.42410089       0.32954272       0.22163111       0.04362794       0.05097435       0.08984074
H        2.58900708       6.62616846       9.13309916      -0.33639505      -0.02474906      -0.06644723      -0.17891224      -0.16961889      -0.17118617
H       17.68491062       6.29346420       6.43109158       0.38279484       0.10802164      -0.45791154      -0.02793854       0.02108393       0.12827533
H        5.97365517      -0.03719457       5.67837912      -0.07990578      -0.33875606       0.35200790      -0.07511747       0.08083404      -0.09134184
H       14.07675855      12.98265976       5.78224704       0.22335099       0.53968381       0.13043688       0.02867069      -0.13082594      -0.03232215
H        4.05649943       5.95338237       2.92810683      -0.04030445       0.22989878       0.08573256       0.12937020       0.00617919      -0.31414349
H       16.32857095       7.00543014       8.13473628       0.17557100       1.14079312       0.57872476       0.13314129       0.07577049      -0.10938159
H        5.36128994       1.66141118      10.16418539       0.19015803      -0.50758744      -0.24634377      -0.01575211       0.06706040       0.15841798
H       15.19458713      11.61962300       6.12681049       0.12581602       0.09707867       0.02608434      -0.05433514       0.07790517      -0.11110503
H        4.92548565       7.51853593       3.02223187      -0.24336796      -0.19054125      -0.15312860       0.13992124       0.01892499       0.16816466
H       15.42566769       5.52704130       8.16755446      -0.82742900      -0.41835278       0.27590923       0.06204813       0.18941637       0.00179699
H        6.03419602       3.13555280       8.30570162      -0.39505855       0.58153614      -0.02278928       0.00170595      -0.15647153      -0.08295550
H       14.12395314       9.69577456       7.27613466      -0.02576594      -0.18099379       0.03198278      -0.06535923      -0.16579316       0.00207224
H        4.41300451       9.01957100       9.41439251      -0.24917673      -0.42270400      -0.04628201      -0.10453009       0.12073989      -0.18753634
H       15.99278375       3.81451010       6.18818173      -0.73728140      -0.10388241       0.26562158       0.02039985      -0.06368544      -0.15350930
H        7.59841042       2.77090760       7.55064303      -0.04124095       0.12208024       0.01046556      -0.22905769      -0.02394463      -0.01743125
H       12.36286695       9.87329234       7.74040964      -0.15894365      -0.11694293       0.35790027      -0.02469929      -0.15840794       0.04740900
H        2.85261293       8.73455399      10.15300711      -0.19828486      -0.06468150       0.03172704      -0.11781180       0.17798662      -0.16294730
H       17.12764599       4.13527300       0.75784976       0.57338534      -0.31975903      -0.40738562       0.13642707      -0.02367050      -0.05187483
C        6.90678372       1.38318470       8.85759455       0.34376969       0.84593641      -0.61159039      -0.02984951       0.08381844      -0.18609211
C       13.26469965      11.51124334       6.89612618      -0.40588877      -0.92291376       0.34760920       0.15096218       0.13927659      -0.31598538
C        3.46212864       7.24479371       8.93260977      -0.21867848       0.21570129       0.83097629       0.21208270       0.00254202      -0.90221467
C       16.85551000       5.65537977       6.69778756      -0.40683280      -0.07786890       0.56016330       0.75518201       0.23265813       0.06725924
N        6.06498939       0.98570525       9.76475942      -0.56519540      -0.98967663       1.05444818       0.23695423      -0.44205199       0.04715975
N       14.35870482      12.15218018       6.38603857       0.37543149      -0.56008734      -0.85061631       0.18334590      -0.47295614       0.43464298
N        4.13878708       6.90954425       3.31302402       1.04297491      -0.24083551      -0.42432327      -0.49208345      -0.14177493       0.53814423
N       16.17140355       6.08755773       7.78693813       0.46941036      -1.38321727      -1.24796571       0.03463369      -0.05357843       0.10404892
N        6.80090315       2.50715451       8.14121644       0.45909842      -0.65552182       0.32627749       0.63749216       0.06668935      -0.73211253
N       13.24399674      10.25227522       7.32878307       0.25722054       0.77647405      -0.30272349      -0.18148068      -0.88475286      -0.28968648
N        3.58886057       8.40041001       9.52887486      -0.00552832       1.10531578       0.56545147       0.18826969       0.32622488       0.29761713
N       16.65480576       4.54556498       5.97394892       1.22240724       0.65180221      -0.16667575      -0.80377287      -0.03917125       0.60182450
Pb       1.45345908       2.56045316       6.27544363      -0.31665533      -0.00497166       0.22562934      -1.74375955       0.03813697      -4.12652524
Pb      18.79493091      10.46043578       9.17937425       0.13635163       0.10760604      -0.20029684       0.31684753      -2.44533330      -2.17592831
Pb       9.09629428       8.22159797       7.09054861       0.22088162       0.17495718      -0.05383562       2.46536489       0.91359150       0.10189129
Pb      11.22212208       4.86010113       8.97014122      -0.06755284      -0.13684599      -0.07634668      -1.91014561       0.53466638       0.82268256
I        0.39458703       4.60646966       8.72456782       0.20706632      -0.34536806      -0.07974914      -0.82404149       1.00382056       2.47833495
I        0.50054147       8.25796135       6.67994312      -0.24199199       0.30925438       0.18593511      -0.27097116      -0.61355398       1.22513715
I       10.14688939      10.37975996       9.34667626       0.02817834       0.01654424      -0.17379236      -1.31608911       1.19090317      -1.10809247
I       10.12587208       2.70581675       6.72728843       0.04441357       0.12282530      -0.02852488      -1.18381042      -0.98113110       1.10812377
I       17.70904622       1.26779437       6.72988221       0.28529244      -0.32357813       0.28869585      -0.73741255      -0.27994467      -1.03382335
I        2.44486774      11.93449404       8.62726217      -0.05140541      -0.08235824      -0.08861052      -0.59091703      -0.15131621      -0.13423226
I       12.18358054       6.84071137       6.51942987      -0.03362772       0.05286142       0.15465651      -0.24673319      -0.88563965       0.35053231
I        8.47571431       6.01054741       9.22947817      -0.59343699       0.09103462       0.09481680       0.93181462      -1.01496126      -1.65141362
I        4.27076259       3.79286350       6.05532993      -0.13300407       0.40036865       0.12847387       1.23030738       0.17654144       0.84389487
I       16.13597197       9.02240749       9.59382426      -0.19036851       0.28680600       0.14901041      -0.55521580       1.69944081      -1.45828863
I        6.29981128       9.40915366       7.20139573      -0.03554360       0.34743618       0.05133590       2.93696313       0.18444297      -2.72138064
I       13.90590436       3.43948128       8.64486146       0.44370867      -0.14298058       0.05369142      -0.89646643      -2.35832772       2.35292332
H        8.05601008       0.65538649      13.36103092      -1.51047770       0.52276576       0.28206647      -0.14405938       0.12669107      -0.03724583
H       12.35908622      12.28543404      11.32406407       0.64228503      -0.69580826       0.21368046       0.03998948      -0.03213815       0.14274699
H        2.98640238       6.50602994      13.82081946      -0.48434043      -0.28613663       0.34895411      -0.05744533      -0.02174322      -0.14309957
H       17.98318043       6.04178300      10.93340304      -0.28126124      -0.11527511       0.29922306       0.19173722       0.04149517      -0.11575863
H        5.84775527       0.10712382       1.06136769      -0.19123937       1.04492654      -0.14796007      -0.07597768      -0.20727089       0.06125454
H       12.74838969      10.23811825      12.66392532       0.30776084       0.19726802      -0.49103448      -0.04840971      -0.12464863      -0.16270306
H        4.60791260       5.84729514      16.76150181       0.06024381      -0.19614569       0.08443528       0.02414973      -0.22702154       0.09100868
H       16.46709405       6.91572211      12.64136401       0.06071657       0.16596886      -0.27057715       0.09015212       0.04617547      -0.06651233
H        5.53027789       1.51198894      14.78966824      -0.38783876      -0.18580533       0.25608405       0.01638598       0.07516069       0.00057095
H       14.33106918       9.93981403      11.87959643      -0.66448178       0.58764751       0.44386582      -0.06760816       0.09353968      -0.01224313
H        5.55606420       7.29291640      17.13598110       0.76153307       0.47075627      -0.52621462      -0.00272373       0.14565362      -0.02906902
H       15.38197854       5.52313096      12.39842988       0.42456107       0.43533447      -0.24985904       0.11806001       0.04955140       0.13385773
H        6.40065864       3.20918437      13.30168318       0.18565951      -0.48987921       0.03682251       0.07458262      -0.06158594      -0.14231491
H       15.17598118      11.57743214      10.44980865      -0.16717385       0.60277478      -0.32999177      -0.18808549      -0.08969117      -0.00802870
H        4.41730880       9.16793694      13.58702599      -0.52590904      -0.61553839       0.37737885       0.09933188      -0.15000180       0.11398541
H       15.85142579       3.84038893      10.65829592       1.14825306       0.81392763      -0.25695239       0.15098470       0.20412039      -0.17057593
H        7.88092966       2.77391890      12.50541783       0.76077369       0.19446694      -0.61991236       0.07898370      -0.05738955       0.09079914
H       14.14814986      13.07959957      10.03717212       0.07656588      -0.60746840      -0.02955751      -0.03904130       0.22404378       0.07177706
H        3.11951431       8.56023948      14.82871034       0.35888199       0.13629050      -0.29274100      -0.09652284       0.03737591       0.00149122
H       17.73642393       4.22686076      14.42455311      -0.22506306       0.04161336       0.14399331      -0.05697852       0.10457733      -0.11814627
C        7.12223459       1.27180539      13.60641831       1.89655449       0.23580056      -0.37721354      -0.20407346       0.40765246      -0.47497805
C       13.34360311      11.66853205      11.31327163      -0.89964702       1.53951428      -0.31135341      -0.98113775       0.51284503      -0.09862413
C        3.74128503       7.20230843      13.47300116      -0.27096050       0.40613485       0.19921129      -0.46877598       0.29639328       0.31376286
C       17.02957745       5.52096057      11.20136897       0.41432481       0.15752928      -0.60432992       0.18009751      -0.02935336       0.62753100
N        6.25420503       0.84656805      14.48871269       0.26977415       0.07168735      -0.59793610      -0.33406525      -0.10171752      -0.05954745
N       13.51448537      10.57370552      12.05087004       0.23218517      -1.16575005       0.26402345      -0.43535599      -0.22952257      -0.25032411
N        4.74270697       6.71351453      17.30698399       0.11323761      -1.36276665      -0.90050035       0.37464415       0.39210979       0.11282648
N       16.18470425       6.08722368      12.02876476      -0.65096450      -0.66998738       0.80639499      -0.18319590      -0.77365343      -0.24438052
N        7.11606104       2.49161345      13.08613987      -1.02342670      -0.21692222       0.60795628      -0.11340859      -0.54959095       0.31941488
N       14.24824871      12.13708067      10.47878343       0.38438105      -0.59204909       0.33914340       0.59274290       0.22077051       0.02586985
N        3.83190263       8.36645175      14.08523466       0.09418579       0.42075466      -0.14126992       0.27405757       0.09396483      -0.04774619
N       16.79479424       4.36715968      10.57629507      -1.73432817      -0.44831954       0.78078172       0.55823049       0.43565246       0.70568633
Pb       1.49716790       2.32293579      10.87263330      -0.09819396       0.33585121       0.08686436       1.54349837      -1.48230886       2.09886680
Pb      19.07836392      10.37762386      13.90020632       0.03801173      -0.05424223      -0.15092407      -1.78281691      -2.06628438       1.51679091
Pb       9.26396533       8.31645745      11.64072855      -0.16517956       0.01310768      -0.23434196       1.83070968      -2.64933488      -1.07610190
Pb      11.23870352       4.71901388      13.47561360       0.10584877      -0.12461319       0.03804648       0.98307715      -1.38386367       1.98568422
I        0.71144121       4.52607813      13.30780663      -0.02042946      -0.07160840      -0.16787076       0.79908907       0.42464979       0.54702583
I       39.43447836       8.49889480      11.47188888      -0.06861918       0.09499310       0.10580858       1.50695514       2.25471115       0.23900673
I       10.11388360      10.25301174      13.72274716       0.39398456       0.21232979       0.18426033       0.08393450       0.63112259      -0.61432531
I       10.09026242       2.72138730      11.20058315       0.17941130      -0.00026785      -0.06142138      -0.96655599      -0.43982971       1.25131335
I       17.90028957       0.97144392      11.55822237       0.11495666      -0.17191652      -0.05989101      -1.03076793      -0.72479884      -0.20191031
I        2.64299578      11.81090558      13.16799179      -0.06210429       0.10393490       0.01130413       1.67824243      -0.27499605       0.55277539
I       12.23401992       7.05964693      11.27408934       0.01490183      -0.22097210       0.02032915       1.70217893      -0.64787356      -0.41625169
I        8.32100534       6.22039615      13.90992554      -0.16535184      -0.21879338      -0.02955475       0.28882297      -1.90691140       0.01116113
I        4.28795913       3.80901937      10.73553569      -0.07599565      -0.11922086      -0.07054836      -1.00771387       1.32945041       2.00778799
I       16.41070964       8.78931041      14.38078396      -0.17372179       0.30222051      -0.07835883       0.02486448      -1.75316501      -1.00102410
I        6.30297706       9.61613743      11.81870255       0.16849690       0.18485453      -0.17379965       0.21537421       0.16230550       0.57395935
I       14.08432744       3.40687042      13.38194179       0.00081266      -0.13806133      -0.17391097      -0.89522342      -0.78082889       0.74496134
H        8.10455428       0.69648246      17.78605270       0.45408989      -0.62329026      -0.26265887       0.10110024       0.04944316       0.09118649
H       12.62115904      11.96096278      16.07939508      -0.42410089       0.32954272       0.22163111       0.04362794       0.05097435       0.08984074
H        2.25731484       6.70760586       0.00977106      -0.33639505      -0.02474906      -0.06644723      -0.17891224      -0.16961889      -0.17118617
H       18.01660286       6.21202680      15.55441968       0.38279484       0.10802164      -0.45791154      -0.02793854       0.02108393       0.12827533
H        6.30534741      -0.11863197      14.80170722      -0.07990578      -0.33875606       0.35200790      -0.07511747       0.08083404      -0.09134184
H       14.40845079      12.90122236      14.90557514       0.22335099       0.53968381       0.13043688       0.02867069      -0.13082594      -0.03232215
H        4.38819167       5.87194497      12.05143493      -0.04030445       0.22989878       0.08573256       0.12937020       0.00617919      -0.31414349
H       16.66026319       6.92399274      17.25806438       0.17557100       1.14079312       0.57872476       0.13314129       0.07577049      -0.10938159
H        5.02959770       1.74284858       1.04085729       0.19015803      -0.50758744      -0.24634377      -0.01575211       0.06706040       0.15841798
H       15.52627937      11.53818560      15.25013859       0.12581602       0.09707867       0.02608434      -0.05433514       0.07790517      -0.11110503
H        5.25717789       7.43709853      12.14555997      -0.24336796      -0.19054125      -0.15312860       0.13992124       0.01892499       0.16816466
H       15.75735993       5.44560390      17.29088256      -0.82742900      -0.41835278       0.27590923       0.06204813       0.18941637       0.00179699
H        6.36588826       3.05411540      17.42902972      -0.39505855       0.58153614      -0.02278928       0.00170595      -0.15647153      -0.08295550
H       14.45564538       9.61433716      16.39946276      -0.02576594      -0.18099379       0.03198278      -0.06535923      -0.16579316       0.00207224
H        4.08131227       9.10100840       0.29106441      -0.24917673      -0.42270400      -0.04628201      -0.10453009       0.12073989      -0.18753634
H       16.32447599       3.73307270      15.31150983      -0.73728140      -0.10388241       0.26562158       0.02039985      -0.06368544      -0.15350930
H        7.93010266       2.68947020      16.67397113      -0.04124095       0.12208024       0.01046556      -0.22905769      -0.02394463      -0.01743125
H       12.69455919       9.79185494      16.86373774      -0.15894365      -0.11694293       0.35790027      -0.02469929      -0.15840794       0.04740900
H        2.52092069       8.81599139       1.02967901      -0.19828486      -0.06468150       0.03172704      -0.11781180       0.17798662      -0.16294730
H       17.45933823       4.05383560       9.88117786       0.57338534      -0.31975903      -0.40738562       0.13642707      -0.02367050      -0.05187483
C        7.23847596       1.30174730      17.98092265       0.34376969       0.84593641      -0.61159039      -0.02984951       0.08381844      -0.18609211
C       13.59639189      11.42980594      16.01945428      -0.40588877      -0.92291376       0.34760920       0.15096218       0.13927659      -0.31598538
C        3.79382088       7.16335631      18.05593787      -0.21867848       0.21570129       0.83097629       0.21208270       0.00254202      -0.90221467
C       17.18720224       5.57394237      15.82111566      -0.40683280      -0.07786890       0.56016330       0.75518201       0.23265813       0.06725924
N        5.73329715       1.06714265       0.64143132      -0.56519540      -0.98967663       1.05444818       0.23695423      -0.44205199       0.04715975
N       14.69039706      12.07074278      15.50936667       0.37543149      -0.56008734      -0.85061631       0.18334590      -0.47295614       0.43464298
N        4.47047932       6.82810685      12.43635212       1.04297491      -0.24083551      -0.42432327      -0.49208345      -0.14177493       0.53814423
N       16.50309579       6.00612033      16.91026623       0.46941036      -1.38321727      -1.24796571       0.03463369      -0.05357843       0.10404892
N        7.13259539       2.42571711      17.26454454       0.45909842      -0.65552182       0.32627749       0.63749216       0.06668935      -0.73211253
N       13.57568898      10.17083782      16.45211117       0.25722054       0.77647405      -0.30272349      -0.18148068      -0.88475286      -0.28968648
N        3.25716833       8.48184741       0.40554676      -0.00552832       1.10531578       0.56545147       0.18826969       0.32622488       0.29761713
N       16.98649800       4.46412758      15.09727702       1.22240724       0.65180221      -0.16667575      -0.80377287      -0.03917125       0.60182450
Pb       1.78515132       2.47901576      15.39877173      -0.31665533      -0.00497166       0.22562934      -1.74375955       0.03813697      -4.12652524
Pb      19.12662315      10.37899838      18.30270235       0.13635163       0.10760604      -0.20029684       0.31684753      -2.44533330      -2.17592831
Pb       9.42798652       8.14016057      16.21387671       0.22088162       0.17495718      -0.05383562       2.46536489       0.91359150       0.10189129
Pb      11.55381432       4.77866373      18.09346932      -0.06755284      -0.13684599      -0.07634668      -1.91014561       0.53466638       0.82268256
I        0.72627927       4.52503226      17.84789592       0.20706632      -0.34536806      -0.07974914      -0.82404149       1.00382056       2.47833495
I        0.83223371       8.17652395      15.80327122      -0.24199199       0.30925438       0.18593511      -0.27097116      -0.61355398       1.22513715
I        9.81519715      10.46119736       0.22334816       0.02817834       0.01654424      -0.17379236      -1.31608911       1.19090317      -1.10809247
I       10.45756432       2.62437935      15.85061653       0.04441357       0.12282530      -0.02852488      -1.18381042      -0.98113110       1.10812377
I       18.04073846       1.18635697      15.85321031       0.28529244      -0.32357813       0.28869585      -0.73741255      -0.27994467      -1.03382335
I        2.77655998      11.85305664      17.75059027      -0.05140541      -0.08235824      -0.08861052      -0.59091703      -0.15131621      -0.13423226
I       12.51527278       6.75927397      15.64275797      -0.03362772       0.05286142       0.15465651      -0.24673319      -0.88563965       0.35053231
I        8.14402207       6.09198481       0.10615007      -0.59343699       0.09103462       0.09481680       0.93181462      -1.01496126      -1.65141362
I        4.60245483       3.71142610      15.17865803      -0.13300407       0.40036865       0.12847387       1.23030738       0.17654144       0.84389487
I       15.80427973       9.10384489       0.47049616      -0.19036851       0.28680600       0.14901041      -0.55521580       1.69944081      -1.45828863