768
Lattice="31.52003920688824 -1.0395494997101957 0.3212732111417801 -0.9162685860741572 30.3547437254124 0.028757121508259497 0.35595936046071336 -0.14720492652102254 17.2635365134837" Properties=species:S:1:pos:R:3:forces:R:3:momenta:R:3 pbc="T T T"
H        1.74960423       2.84642584       6.62715396      -0.28756060       0.19672154      -0.05193563      -0.03463649       0.04647396       0.10772770
H        3.93849859       2.11567279       6.44498666      -0.44938544       0.10450002      -0.21808399      -0.00783725       0.14377308       0.05314780
H        3.82410166       1.91345469       4.73199708       0.55162978      -0.01834042      -1.38042690      -0.00759635      -0.24816507       0.30116080
H        1.71538895       2.83897982       3.57298522      -0.07597183      -0.10467438       0.54521103       0.18507180      -0.01761576      -0.13772970
H        0.39008197       3.22895423       4.68165851      -0.00235922       0.04936798       0.12571876      -0.14246535       0.03042364      -0.11740107
H        7.23197993       6.17355115       2.32163687       0.12833623       0.24439089       0.17280185       0.27790741       0.15211628       0.05144386
H        6.38145755       6.88544447       0.30016433      -0.14898786       0.48996806      -0.60705540       0.04385159      -0.25362400       0.05278993
H        6.43084345       5.12039768      16.87515872       0.01452701      -0.68683580      -0.94577762       0.20720354       0.29012235       0.02252275
H        6.83946847       3.35550688       1.07687096      -0.10377696       0.83129463       0.49656570       0.33856100      -0.16009121       0.02224839
H        7.29433569       3.75842081       2.73672975       0.15810809       0.27175309       0.36928341      -0.15983198       0.02329782      -0.02317298
C        2.13864452       2.68266953       5.61283094      -0.91477910       0.06071284       0.61978239       0.20203799      -0.37869466      -0.33809918
C        6.95483637       5.43953725       1.54038684      -0.53805446      -2.80645347      -0.40263533      -0.02842449      -0.22094595      -0.05964285
N        3.36462500       2.22378727       5.58100672       1.16172195      -0.34383891       1.00075213      -0.39109701       0.58938540      -0.62843530
N        1.35389964       2.88424799       4.55990140       0.22681593       0.17298631      -0.57256962       0.43537637       1.05741277      -0.66332817
N        6.37733316       5.86434146       0.39070789       0.55392464       0.36335948       2.26691845       0.15286498      -0.06032144       0.24100915
N        7.06739265       4.10952959       1.80304111      -0.18346936       0.92487935      -1.42126403      -0.54390283       0.55555266       0.19867613
Pb       4.48901795      -0.02007342       1.16776261      -0.24193019       0.41593672      -0.06607156       2.81599750      -1.74680603      -0.24860839
Pb       0.46768692       0.48842330       1.12316506       0.08187953      -0.15493126      -0.36169163      -1.34479164      -1.11007467      -0.12581747
I        6.55828084       1.04443515       3.61041158      -0.12553374      -0.16487577      -0.17448240       1.44428903      -0.60910900      -0.19104239
I        2.48118893       6.69513136       2.68096659       0.12753268      -0.11172535       0.10364074       0.76157554       0.21570484      -0.31446379
I        6.60904680       1.59062573       7.79505967      -0.03860612      -0.13708919      -0.04245495       1.74716261      -1.01669386      -1.12085974
I        2.51626071       6.17247772       7.33140120       0.13366186      -0.16607444      -0.08024416      -1.29918237      -1.63687580      -0.76878803
I        6.53841364       4.78844685       5.36483290      -0.18512170       0.04113657       0.10004899       1.57240121      -3.07707161      -1.10479692
I        2.71925416       2.86158542       1.12326327      -0.12548026      -0.08825874      -0.00640154       1.04095878      -0.94248608      -1.52082739
H        2.62605460      11.30971982      17.05672617      -0.20833626       0.49844062      -0.09264145      -0.09245224      -0.08096569       0.00046451
H        2.04035567      12.30407101       2.04740761      -0.02011838       0.36732437       0.02218789       0.02163909       0.04292137       0.07289299
H        2.40089583      10.76178501       2.73068948      -0.12864850      -0.55799956       0.64727321       0.04038281      -0.02633929      -0.09840747
H        2.62832676       8.80449247       1.12953857      -0.09126641      -0.25024991       0.64997784      -0.05206899      -0.13978274       0.11856665
H        2.79987896       9.06991771      16.72987636       0.27936335       0.01097706      -0.11614783      -0.04137670       0.20126995       0.03490261
H        5.92812757      11.63326613       6.52522381      -0.56574000      -1.09209076       1.21324961       0.14516299      -0.17724604       0.12035131
H        4.43216891      13.39491811       6.20757180       0.19437139       0.03331364      -0.23177009       0.12301531      -0.15479129      -0.05299044
H        5.43606922      14.12536484       4.95410012       0.10362964      -0.01925095      -0.16049521      -0.22979686       0.04480417       0.03381404
H        7.42585841      12.83809120       4.30149476       0.59646503       0.15376551      -0.19554716      -0.00538299       0.12156066      -0.10218551
H       14.02557297      14.28478545       4.87544184      -0.09465889       0.79599658      -0.40756761      -0.22856512      -0.10068178       0.11496688
C        2.34017065      10.81083364       0.66966659      -0.47793773       0.53005332       1.83000413       0.03293776      -0.58336405      -0.11802808
C        6.12790444      12.35643185       5.79254494      -0.47537653       1.30424980      -0.96438682      -0.22156044      -0.52676653       0.19048118
N        2.17410792      11.30634541       1.89832131       0.37551089       0.07035084      -1.69843787       0.26467821      -0.62310448       0.39856309
N        2.55103213       9.55021621       0.44801826       0.18901087      -0.91271514      -1.42498736      -0.42268433      -0.33326581      -0.08677028
N        5.24831261      13.31840512       5.55944062      -0.24266319      -0.50584645       0.70514889       0.50950458      -0.03320259       0.11915680
N        7.23085021      12.20658766       5.10264530       0.82569686      -0.74377230       0.02194308      -0.90422566       0.66688637      -0.04273689
Pb       4.50265920       7.38427761       5.12355920       0.12115727       0.11271313       0.14696905      -1.86417268       0.57572868      -0.06253889
Pb       0.63191067       7.55821084       5.17149121      -0.20983062      -0.13693148       0.18188842      -1.79540137      -3.01185700       1.73864989
I        6.34817880       8.80834751       7.57567265      -0.16927754       0.26599515      -0.37099810      -0.43780117       0.91570058       2.27334972
I        2.12751444      14.13951171       7.44135913       0.14330396       0.03715677       0.15790799      -1.82951526      -0.08775683       0.16327632
I        6.56792492       8.69832159       3.02668377       0.16637017       0.07875549       0.20818332      -0.54278502      -0.97539338      -0.00507324
I        1.71119324      14.39306026       3.31762200       0.20484883      -0.00402191       0.41217642       0.89692147       0.88658512      -0.28497297
I        5.57067990      12.63250072       1.06605923       0.14201567      -0.42698593      -0.00455763       0.70102896      -1.46694605      -2.34690090
I        2.59353750      10.05690622       5.27646701       0.13570454       0.05205621       0.16337348       0.49278769      -1.21665036       0.97813380
H       10.43315582       3.47426800       4.51956142       0.17600392      -0.16255629      -0.52472223      -0.24842476      -0.05772277       0.25541574
H       10.70559934       3.95436384       6.73149511      -0.13100433       0.67782034       0.03287733       0.09790510       0.30316203       0.31648226
H       10.83345902       2.32665621       7.25315004      -0.24676592      -0.15718938       0.09731709       0.15087966       0.00549167      -0.01313023
H       10.32960821       0.47834598       5.19159383       0.08092526       0.70514671      -0.36192414       0.09897760      -0.19265799       0.01963298
H       10.41481057       1.34075678       3.59013193      -0.27764229      -0.02429246       0.82106554       0.01882131      -0.12364184       0.15749546
H       14.46882131       5.93479261       1.74771705      -0.49837483       0.10786159       0.10789073      -0.07257139       0.09467309      -0.02741493
H       16.49307129       4.80686618       1.33668677      -0.14685010       0.19930303       0.08125940       0.20583462       0.12466349       0.03246485
H       15.70472050       3.64010773       0.32113561      -0.08731755      -0.24520644       0.15020902       0.13900470       0.10792839       0.12743631
H       13.25154981       3.63111977       0.16536778       0.10027287       0.35050001       0.27036549       0.20327051       0.07925503       0.07910899
H       12.44883017       4.98119621       0.90419306      -1.95556469       1.11867183      -0.11625150       0.02094491      -0.09059161      -0.05794805
C       10.50769442       2.59513445       5.18339866      -0.35606198       1.40263865       0.56517875       0.20896958       0.28641216      -0.27379941
C       14.43148593       4.99936381       1.18245689      -0.25498919       0.24058311       0.00989553      -0.06948482      -0.16200243      -0.37355883
N       10.67929249       2.97522920       6.46699264       0.26420576      -1.31864318      -0.10385662       0.07374961      -0.28432717      -0.08565790
N       10.34385355       1.38310091       4.64529141       0.38401441      -1.28994489      -0.36021394       0.52578019       0.00560818       0.58736444
N       15.58395931       4.41360210       1.00607043       1.38759395      -0.68605279      -0.28713849      -0.21089110       0.67424323       0.11720423
N       13.29155285       4.51291244       0.70702553       1.33462953      -1.01202911      -0.07845745       0.04916824       0.00451463      -0.27113716
Pb      12.25542716      -0.34445484       0.80858780       0.16211382      -0.22703780       0.10319662      -2.89949322       1.03965186      -2.43076479
Pb       8.28905469      -0.23102510       1.02900793       0.03608890      -0.14362485       0.15196841       0.47736240       0.44717645      -1.79457232
I       13.99021341       0.86440658       3.23696667      -0.03838786       0.35246752       0.14321738       0.46458555      -0.04287451       2.15588394
I       10.40263903       6.06880164       3.32326309       0.08341143       0.12678799       0.25186719      -0.53097415       2.74352162      -0.70211571
I       14.54467363       1.33017442       7.65687587      -0.02623750       0.16985577      -0.22003692      -0.56169883       0.52553272       0.99806893
I       10.14916795       6.14902286       8.02337827       0.11895542       0.23604784      -0.23368183      -1.54816833      -0.40924913      -0.86012990
I       14.13286965       4.64428601       5.15089550      -0.00689823       0.04419120       0.06878576       0.69501522      -0.65297233       1.00298350
I       10.27131046       2.14922026       1.27957027       0.12173846       0.37197911       0.00920723      -1.20679053       0.21370750      -1.81920601
H        9.91767429       9.71748873       2.63747990       0.20892295       0.27410065       0.47545463      -0.21303315      -0.08569959      -0.11999474
H        8.30979568      10.13077278       1.15115470       0.78108564      -0.20708543      -0.47736717       0.02697138      -0.02769596       0.13342528
H        9.80885001      10.03511922      16.97868965       0.03315250       0.15106689       0.10997149       0.10680683       0.06887287      -0.06855976
H       12.00057514       9.73423985       0.41802829       0.16145774       0.06643405       0.65624328      -0.09809197      -0.05361608       0.16950248
H       12.21689916       9.62657560       2.21266667       0.16410706      -0.18060917      -0.73706010      -0.14126872      -0.02889780       0.03579367
H       14.05275110      12.19491962       3.96922953      -0.10615185      -0.29000599      -1.12806256      -0.05061912      -0.06146216      -0.16024606
H       14.59642359      10.26730967       5.24149555       0.07738560       0.58192333      -0.11285015       0.10255466      -0.05395709      -0.04691047
H       14.99507039      11.18773466       6.68694780      -0.16120217       0.46680357       0.27737464      -0.02661802      -0.01640110       0.03681481
H       14.55161898      13.73670981       6.48812545      -0.02734204       0.11482113       0.16066295      -0.17155473      -0.13694931      -0.13146477
H        7.93435829      11.47626469       5.39228083      -0.51285483       0.75723194      -0.35108574       0.02061419       0.21760417      -0.38305611
C       10.30941031       9.89358526       1.61341746      -1.03953074      -0.15662264       0.16634105       0.24157200       0.16719013       0.29537713
C       14.33890914      12.29130215       5.00691816      -0.04629004       0.92407186       1.64144714       0.70185885       0.12454186      -0.04897456
N        9.34210991      10.16572880       0.75285261      -0.97257926       0.09048736      -0.21931400       0.59939139      -0.28067040      -0.21471154
N       11.60504289       9.74051631       1.37834637       0.59487313      -0.17830352      -0.13416048       0.49435430      -0.04896436       0.14708368
N       14.70994486      11.22145636       5.68849191       0.01384542      -0.60627957      -0.28633815       0.53747060      -0.20737622       0.14903229
N       14.29014049      13.53357044       5.50665963       0.29794949      -1.94716460       0.18650310       0.93219801       0.06753482      -0.55704056
Pb      12.30463456       7.16935868       5.75711249      -0.05075545       0.12242075       0.00382231      -1.07173573       0.72746186       0.57949148
Pb       8.34777505       7.35666643       5.49507463       0.20151002       0.17704027      -0.07537508       0.10395094      -0.48024403       0.36838959
I       14.74905546       8.24875432       7.82664541      -0.28163422      -0.05913801      -0.01708381      -1.82587690       0.72663479      -0.16646577
I        9.84238428      13.77354131       7.37130024      -0.05651445       0.05203748      -0.38456279       1.29982958       1.81349836       0.55230430
I       14.28137604       8.53390517       3.58695027      -0.15292279       0.09859949      -0.48293249       1.97323771      -0.31782564       0.14729673
I       10.02406502      13.36254582       3.00530180      -0.18747493       0.03443262      -0.08612095       0.12223204       0.55759563       0.57190933
I       13.93156395      12.39629648       0.79125536       0.12556783       0.14249526      -0.03498471       0.77867889       1.15686805       0.38593443
I       10.23570309      10.03731596       5.60549455       0.20082083      -0.31122908       0.10908434       0.99867056      -1.16757623       1.49269873
H        1.92758391       2.77282338      15.25892222      -0.28756060       0.19672154      -0.05193563      -0.03463649       0.04647396       0.10772770
H        4.11647827       2.04207033      15.07675492      -0.44938544       0.10450002      -0.21808399      -0.00783725       0.14377308       0.05314780
H        4.00208134       1.83985223      13.36376534       0.55162978      -0.01834042      -1.38042690      -0.00759635      -0.24816507       0.30116080
H        1.89336863       2.76537736      12.20475348      -0.07597183      -0.10467438       0.54521103       0.18507180      -0.01761576      -0.13772970
H        0.56806165       3.15535177      13.31342677      -0.00235922       0.04936798       0.12571876      -0.14246535       0.03042364      -0.11740107
H        7.40995961       6.09994869      10.95340513       0.12833623       0.24439089       0.17280185       0.27790741       0.15211628       0.05144386
H        6.55943723       6.81184201       8.93193259      -0.14898786       0.48996806      -0.60705540       0.04385159      -0.25362400       0.05278993
H        6.25286377       5.19400015       8.24339047       0.01452701      -0.68683580      -0.94577762       0.20720354       0.29012235       0.02252275
H        7.01744815       3.28190442       9.70863922      -0.10377696       0.83129463       0.49656570       0.33856100      -0.16009121       0.02224839
H        7.47231537       3.68481835      11.36849801       0.15810809       0.27175309       0.36928341      -0.15983198       0.02329782      -0.02317298
C        2.31662420       2.60906707      14.24459920      -0.91477910       0.06071284       0.61978239       0.20203799      -0.37869466      -0.33809918
C        7.13281605       5.36593479      10.17215510      -0.53805446      -2.80645347      -0.40263533      -0.02842449      -0.22094595      -0.05964285
N        3.54260468       2.15018481      14.21277498       1.16172195      -0.34383891       1.00075213      -0.39109701       0.58938540      -0.62843530
N        1.53187932       2.81064553      13.19166966       0.22681593       0.17298631      -0.57256962       0.43537637       1.05741277      -0.66332817
N        6.55531284       5.79073900       9.02247615       0.55392464       0.36335948       2.26691845       0.15286498      -0.06032144       0.24100915
N        7.24537233       4.03592713      10.43480937      -0.18346936       0.92487935      -1.42126403      -0.54390283       0.55555266       0.19867613
Pb       4.66699763      -0.09367588       9.79953087      -0.24193019       0.41593672      -0.06607156       2.81599750      -1.74680603      -0.24860839
Pb       0.64566660       0.41482084       9.75493332       0.08187953      -0.15493126      -0.36169163      -1.34479164      -1.11007467      -0.12581747
I        6.73626052       0.97083269      12.24217984      -0.12553374      -0.16487577      -0.17448240       1.44428903      -0.60910900      -0.19104239
I        2.65916861       6.62152890      11.31273485       0.12753268      -0.11172535       0.10364074       0.76157554       0.21570484      -0.31446379
I        6.78702648       1.51702327      16.42682793      -0.03860612      -0.13708919      -0.04245495       1.74716261      -1.01669386      -1.12085974
I        2.69424039       6.09887526      15.96316946       0.13366186      -0.16607444      -0.08024416      -1.29918237      -1.63687580      -0.76878803
I        6.71639332       4.71484439      13.99660116      -0.18512170       0.04113657       0.10004899       1.57240121      -3.07707161      -1.10479692
I        2.89723384       2.78798296       9.75503153      -0.12548026      -0.08825874      -0.00640154       1.04095878      -0.94248608      -1.52082739
H        2.44807492      11.38332229       8.42495792      -0.20833626       0.49844062      -0.09264145      -0.09245224      -0.08096569       0.00046451
H        2.21833535      12.23046855      10.67917587      -0.02011838       0.36732437       0.02218789       0.02163909       0.04292137       0.07289299
H        2.57887551      10.68818255      11.36245774      -0.12864850      -0.55799956       0.64727321       0.04038281      -0.02633929      -0.09840747
H        2.80630644       8.73089001       9.76130683      -0.09126641      -0.25024991       0.64997784      -0.05206899      -0.13978274       0.11856665
H        2.62189928       9.14352018       8.09810811       0.27936335       0.01097706      -0.11614783      -0.04137670       0.20126995       0.03490261
H        6.10610725      11.55966367      15.15699207      -0.56574000      -1.09209076       1.21324961       0.14516299      -0.17724604       0.12035131
H        4.61014859      13.32131565      14.83934006       0.19437139       0.03331364      -0.23177009       0.12301531      -0.15479129      -0.05299044
H        5.61404890      14.05176238      13.58586838       0.10362964      -0.01925095      -0.16049521      -0.22979686       0.04480417       0.03381404
H        7.60383809      12.76448874      12.93326302       0.59646503       0.15376551      -0.19554716      -0.00538299       0.12156066      -0.10218551
H       14.20355265      14.21118299      13.50721010      -0.09465889       0.79599658      -0.40756761      -0.22856512      -0.10068178       0.11496688
C        2.51815033      10.73723118       9.30143485      -0.47793773       0.53005332       1.83000413       0.03293776      -0.58336405      -0.11802808
C        6.30588412      12.28282939      14.42431320      -0.47537653       1.30424980      -0.96438682      -0.22156044      -0.52676653       0.19048118
N        2.35208760      11.23274295      10.53008957       0.37551089       0.07035084      -1.69843787       0.26467821      -0.62310448       0.39856309
N        2.72901181       9.47661375       9.07978652       0.18901087      -0.91271514      -1.42498736      -0.42268433      -0.33326581      -0.08677028
N        5.42629229      13.24480266      14.19120888      -0.24266319      -0.50584645       0.70514889       0.50950458      -0.03320259       0.11915680
N        7.40882989      12.13298520      13.73441356       0.82569686      -0.74377230       0.02194308      -0.90422566       0.66688637      -0.04273689
Pb       4.68063888       7.31067515      13.75532746       0.12115727       0.11271313       0.14696905      -1.86417268       0.57572868      -0.06253889
Pb       0.80989035       7.48460838      13.80325947      -0.20983062      -0.13693148       0.18188842      -1.79540137      -3.01185700       1.73864989
I        6.52615848       8.73474505      16.20744091      -0.16927754       0.26599515      -0.37099810      -0.43780117       0.91570058       2.27334972
I        2.30549412      14.06590925      16.07312739       0.14330396       0.03715677       0.15790799      -1.82951526      -0.08775683       0.16327632
I        6.74590460       8.62471913      11.65845203       0.16637017       0.07875549       0.20818332      -0.54278502      -0.97539338      -0.00507324
I        1.88917292      14.31945780      11.94939026       0.20484883      -0.00402191       0.41217642       0.89692147       0.88658512      -0.28497297
I        5.74865958      12.55889826       9.69782749       0.14201567      -0.42698593      -0.00455763       0.70102896      -1.46694605      -2.34690090
I        2.77151718       9.98330376      13.90823527       0.13570454       0.05205621       0.16337348       0.49278769      -1.21665036       0.97813380
H       10.61113550       3.40066554      13.15132968       0.17600392      -0.16255629      -0.52472223      -0.24842476      -0.05772277       0.25541574
H       10.88357902       3.88076138      15.36326337      -0.13100433       0.67782034       0.03287733       0.09790510       0.30316203       0.31648226
H       11.01143870       2.25305375      15.88491830      -0.24676592      -0.15718938       0.09731709       0.15087966       0.00549167      -0.01313023
H       10.50758789       0.40474352      13.82336209       0.08092526       0.70514671      -0.36192414       0.09897760      -0.19265799       0.01963298
H       10.59279025       1.26715432      12.22190019      -0.27764229      -0.02429246       0.82106554       0.01882131      -0.12364184       0.15749546
H       14.64680099       5.86119015      10.37948531      -0.49837483       0.10786159       0.10789073      -0.07257139       0.09467309      -0.02741493
H       16.67105097       4.73326372       9.96845503      -0.14685010       0.19930303       0.08125940       0.20583462       0.12466349       0.03246485
H       15.88270018       3.56650527       8.95290387      -0.08731755      -0.24520644       0.15020902       0.13900470       0.10792839       0.12743631
H       13.42952949       3.55751731       8.79713604       0.10027287       0.35050001       0.27036549       0.20327051       0.07925503       0.07910899
H       12.62680985       4.90759375       9.53596132      -1.95556469       1.11867183      -0.11625150       0.02094491      -0.09059161      -0.05794805
C       10.68567410       2.52153199      13.81516692      -0.35606198       1.40263865       0.56517875       0.20896958       0.28641216      -0.27379941
C       14.60946561       4.92576135       9.81422515      -0.25498919       0.24058311       0.00989553      -0.06948482      -0.16200243      -0.37355883
N       10.85727217       2.90162674      15.09876090       0.26420576      -1.31864318      -0.10385662       0.07374961      -0.28432717      -0.08565790
N       10.52183323       1.30949845      13.27705967       0.38401441      -1.28994489      -0.36021394       0.52578019       0.00560818       0.58736444
N       15.76193899       4.33999964       9.63783869       1.38759395      -0.68605279      -0.28713849      -0.21089110       0.67424323       0.11720423
N       13.46953253       4.43930998       9.33879379       1.33462953      -1.01202911      -0.07845745       0.04916824       0.00451463      -0.27113716
Pb      12.43340684      -0.41805730       9.44035606       0.16211382      -0.22703780       0.10319662      -2.89949322       1.03965186      -2.43076479
Pb       8.46703437      -0.30462756       9.66077619       0.03608890      -0.14362485       0.15196841       0.47736240       0.44717645      -1.79457232
I       14.16819309       0.79080412      11.86873493      -0.03838786       0.35246752       0.14321738       0.46458555      -0.04287451       2.15588394
I       10.58061871       5.99519918      11.95503135       0.08341143       0.12678799       0.25186719      -0.53097415       2.74352162      -0.70211571
I       14.72265331       1.25657196      16.28864413      -0.02623750       0.16985577      -0.22003692      -0.56169883       0.52553272       0.99806893
I       10.32714763       6.07542040      16.65514653       0.11895542       0.23604784      -0.23368183      -1.54816833      -0.40924913      -0.86012990
I       14.31084933       4.57068355      13.78266376      -0.00689823       0.04419120       0.06878576       0.69501522      -0.65297233       1.00298350
I       10.44929014       2.07561780       9.91133853       0.12173846       0.37197911       0.00920723      -1.20679053       0.21370750      -1.81920601
H       10.09565397       9.64388627      11.26924816       0.20892295       0.27410065       0.47545463      -0.21303315      -0.08569959      -0.11999474
H        8.48777536      10.05717032       9.78292296       0.78108564      -0.20708543      -0.47736717       0.02697138      -0.02769596       0.13342528
H        9.63087033      10.10872169       8.34692140       0.03315250       0.15106689       0.10997149       0.10680683       0.06887287      -0.06855976
H       12.17855482       9.66063739       9.04979655       0.16145774       0.06643405       0.65624328      -0.09809197      -0.05361608       0.16950248
H       12.39487884       9.55297314      10.84443493       0.16410706      -0.18060917      -0.73706010      -0.14126872      -0.02889780       0.03579367
H       14.23073078      12.12131716      12.60099779      -0.10615185      -0.29000599      -1.12806256      -0.05061912      -0.06146216      -0.16024606
H       14.77440327      10.19370721      13.87326381       0.07738560       0.58192333      -0.11285015       0.10255466      -0.05395709      -0.04691047
H       15.17305007      11.11413220      15.31871606      -0.16120217       0.46680357       0.27737464      -0.02661802      -0.01640110       0.03681481
H       14.72959866      13.66310735      15.11989371      -0.02734204       0.11482113       0.16066295      -0.17155473      -0.13694931      -0.13146477
H        8.11233797      11.40266223      14.02404909      -0.51285483       0.75723194      -0.35108574       0.02061419       0.21760417      -0.38305611
C       10.48738999       9.81998280      10.24518572      -1.03953074      -0.15662264       0.16634105       0.24157200       0.16719013       0.29537713
C       14.51688882      12.21769969      13.63868642      -0.04629004       0.92407186       1.64144714       0.70185885       0.12454186      -0.04897456
N        9.52008959      10.09212634       9.38462087      -0.97257926       0.09048736      -0.21931400       0.59939139      -0.28067040      -0.21471154
N       11.78302257       9.66691385      10.01011463       0.59487313      -0.17830352      -0.13416048       0.49435430      -0.04896436       0.14708368
N       14.88792454      11.14785390      14.32026017       0.01384542      -0.60627957      -0.28633815       0.53747060      -0.20737622       0.14903229
N       14.46812017      13.45996798      14.13842789       0.29794949      -1.94716460       0.18650310       0.93219801       0.06753482      -0.55704056
Pb      12.48261424       7.09575622      14.38888075      -0.05075545       0.12242075       0.00382231      -1.07173573       0.72746186       0.57949148
Pb       8.52575473       7.28306397      14.12684289       0.20151002       0.17704027      -0.07537508       0.10395094      -0.48024403       0.36838959
I       14.92703514       8.17515186      16.45841367      -0.28163422      -0.05913801      -0.01708381      -1.82587690       0.72663479      -0.16646577
I       10.02036396      13.69993885      16.00306850      -0.05651445       0.05203748      -0.38456279       1.29982958       1.81349836       0.55230430
I       14.45935572       8.46030271      12.21871853      -0.15292279       0.09859949      -0.48293249       1.97323771      -0.31782564       0.14729673
I       10.20204470      13.28894336      11.63707006      -0.18747493       0.03443262      -0.08612095       0.12223204       0.55759563       0.57190933