768
Lattice="25.244031463055336 -0.051139010145229986 -0.15563925591508607 -0.008975214029691772 25.575374942549175 -0.11406019386377196 -0.3474594723078396 -0.009706484009668169 25.26731789926129" Properties=species:S:1:pos:R:3:forces:R:3:momenta:R:3 energy=-3598.742506140379 stress="0.0 0.0 0.0 0.0 0.0 0.0 0.0 0.0 0.0" pbc="T T T"
H        9.37575507       9.11016014       3.61100990       0.64362887       1.18528921      -1.22751107      -0.15613709       0.13221325      -0.24931460
H        9.61352675       2.69576314       2.69874035       0.16013442      -0.41124655       0.10016978      -0.03182438      -0.14712807       0.10559179
H        8.82732857       3.06531180       9.52651269       1.02157623       1.75553559       0.22612015      -0.13490412       0.28639729       0.07149653
H       10.39622742       9.42559975       9.48685117      -2.09379405       1.77734046       0.27894859       0.27024313       0.02907253      -0.07958609
H       12.06172638       9.43423991       3.50469136      -1.78753251       1.22705992      -0.06457459      -0.17051797      -0.10849695      -0.09076092
H       12.12117721       3.49748620       3.14779576       0.86307508      -0.47581714      -0.62353607       0.27737604       0.31629414       0.55129075
H        1.50215340      10.80482847      10.13875050       0.76514296      -0.11417567      -0.05561169      -0.14714642       0.06263072      -0.04816343
H        9.30048422       9.42949157      11.72999888       0.13016119       2.10299785      -2.38720366      -0.16301692       0.13956964       0.80505222
H        4.92226336       4.60577796       2.73526877       1.70754726       2.16392974      -0.59052803       0.23205841       0.11122369      -0.04836736
H        3.13982294      11.78647469       3.00564208       0.36014789      -0.30680978      -0.67523079       0.08953837       0.21054274      -0.35389640
H        2.23593611      11.50307444       8.71361583       0.10696152      -0.35528058      -0.40585333       0.25767546      -0.13120298      -0.06910602
H        8.47152889      10.93763579      11.49402394      -0.14369673       0.95060399      -0.40947033      -0.02757291       0.41594095       0.05119523
H        3.82042430       5.10094913       5.00523989      -0.15734584       0.20054349      -0.23484346       0.28967251       0.20946625      -0.11243273
H        2.63642162      10.90240179       4.65910958       0.87613720      -1.57225944       0.21343665       0.01266025      -0.13199825       0.03515658
H        4.57334436      10.11000335       7.89821303       0.77713514       0.41471080      -0.85425158       0.59599710      -0.00482757       0.34572266
H        3.79947186       5.95680697      10.55855144      -0.46985236       0.70637619       0.41398234       0.16681007      -0.28556570       0.49491898
H        8.08341194      10.96546395       3.33762047       0.71883303      -0.10836336       0.06623742       0.09589943       0.07625080       0.09675369
H        3.32216113       9.43978743       5.46487163       0.44704113      -1.64953690       0.84911388       0.50527276      -0.08555034       0.31667439
H        9.24207155       4.18241982      11.70061465       0.34334795       0.12991613      -0.61151857      -0.23261326       0.13265880      -0.13433843
H        4.94661784       5.46871377       9.28518366       0.36102251      -0.14022591      -0.06965288       0.00578021      -0.27898295      -0.10680476
C       10.02434936      10.30517477       3.27004680       0.61497598      -1.76011195       2.14993651       0.17272375       0.54329635      -0.33460281
C        4.00109018       9.96013908       3.51612955      -1.37987607       2.36433147       1.24700449      -1.05206878      -1.03670429       0.55123042
C        3.39362713      10.11245677       9.76142556      -0.39181239       0.16706302       0.83542209       0.02956468      -0.68668658      -1.67824309
C        3.40593865       4.01947740       9.61599551      -1.04930798      -0.37306349       1.61598565       0.08841525       0.91963160      -0.77023717
N        3.91184703       4.16428056       2.34529892       1.47247511       0.91520189       0.48996805      -0.64523726       0.05356691       1.44916600
N        3.84140494      11.02640865       2.66758744       0.38291638      -0.65464439      -0.09636560      -0.12119674       0.52412197      -0.83720383
N        2.29367507      10.78864673       9.45203783       0.16747548       0.53349947      -0.38032101       0.01080030       1.40599624       0.45787588
N        9.32251525      10.44010360      11.13710199       0.16992434      -3.61215625       3.47552450       1.24848329       0.20517469       0.25534256
N        2.92787103       4.52317835       4.56218508       0.49703207      -1.61999311      -1.18642806      -0.58188594      -1.09866805      -1.47630923
N        3.16618611       9.91536043       4.58385240      -0.59263877       3.14127312      -2.46474831       0.03075732      -1.10093869      -0.16992410
N        9.92818756       4.41913521      10.93252162      -0.03345987      -0.41567730      -0.59976901       1.50243267       2.02275155      -0.27893511
N        4.07218543       5.24191700       9.85245420       0.96716978      -0.30556688      -1.22505726      -1.74732696       0.24934931       0.15815212
Pb       6.40737299       0.77257229      13.26103844       0.34719174       0.19611552      -0.05343174      -0.15650396      -5.30802126       0.03427377
Pb      -0.16325472       0.62843933      13.09842274       0.68741869       0.32040835      -0.14197711       0.20761782      -5.14237138      -3.09237444
Pb       7.21426580       7.16293159       6.51471846      -0.25078195       0.37135453       0.35821383      -2.16951797      -8.27117070      -4.66932395
Pb       6.75262265       0.90816213       7.01954214       0.35066547       0.07037664      -0.32868962      -8.56708347      -3.40577563       0.43223964
I        9.93153240       0.43105871      13.58183151      -0.63806301      -0.33351336       0.27735348      -3.99095511      -0.07155477       4.67871855
I        3.28210822      13.66172478      12.35802523       0.65159530       0.03897279      -0.01885442       0.81742275       0.09243644       6.34425080
I        3.86045278      -0.29306971       7.85793199      -0.44551624       0.56232984      -0.14223127       2.34243404       3.74087398       1.23193063
I       10.17063611       1.47845433       5.71115573      -0.45299145      -0.03845638       0.43307690      -3.22127993       1.97320470      -2.35659926
I        6.63294148      10.13378227      12.14899962      -0.31529835       0.68121062       0.45978018      -2.63086376       2.96200833      -1.91798256
I        7.09784383       3.88839367      -0.28149204       0.08418771       0.62444151       0.18678144       2.93754970      -0.89450018       2.37171286
I        6.79044236       4.26619950       7.24186762      -0.19330693      -0.61509856       0.21258017       4.28380429       2.36862884       1.28461922
I        6.90596469      10.47575973       6.24116778       0.07316769      -0.11024993      -0.38500622       0.74232312       0.40078832      -0.63070157
I        6.56844382      13.82369650       3.40429414      -0.07705494       0.06720338      -0.14931573       1.03867695      -0.60272965      -2.41856579
I        1.25931689       0.69172055       3.72542673      -0.24117511      -0.21430176       0.50612577      -4.32063199       1.25521295       4.27732813
I       -0.38406724       0.84225248      10.10084258       0.21321677       0.09248520      -0.18689687       1.87802733       2.94987264      -2.86273155
I        7.58265038       0.35293904      10.18439625      -0.03217401       0.15649581       0.09457583      -2.35462821       2.41912386       1.38831608
H        2.10985553       3.15332343       3.04479651       1.16064831       1.39464556      -0.18850576      -0.06022341      -0.03110628       0.21381837
H        4.84916555       9.33314471       3.40217780       0.52300917      -1.47036103      -0.27610754       0.11338839      -0.31057956      -0.11811731
H        3.47122006       9.73656593      10.90871565      -0.58515248      -1.13822000       0.72462770      -0.68838192       0.21630410       0.22115846
H        3.91726184       3.09938794       9.05874108      -0.01422266       0.15673882      -0.11585787       0.22628741      -0.09568051       0.42509798
H        4.04637064       3.72439539       1.36961133      -1.16578681      -2.03432130      -0.72069170       0.04511144       0.29153969       0.05914229
H        4.41245010      11.14108775       1.77170688      -0.57664031       0.15372866       0.95555676      -0.04116577       0.02555025      -0.10003984
H       10.22253292       3.54053423       7.76825271       0.64267774       0.79829077       0.55619707      -0.18898648       0.00772111       0.04821097
H        1.77732584       2.61436267      10.14809314       0.56610341       1.16227943       0.18101563       0.16879247      -0.34369352      -0.54600777
H       12.35388733      11.29394914       2.81470000      -0.85827483      -0.46901483       1.25045192       0.04958873       0.36379744       0.29660859
H       11.53138319       4.56650253       4.47127713       0.24824689      -1.41399114      -1.48107782       0.40629819      -0.02285639       0.07714709
H       11.62528347       4.43621189       8.98176155      -0.44950797      -0.14950083      -0.67109784      -0.01143697      -0.05301124      -0.11030102
H        1.48122394       4.76920298      10.49252719       0.34748269      -1.07612139      -0.40812858      -0.21983623       0.18733601       0.22674467
H        9.39865568      12.48305983       2.89107655       0.69231378      -0.11969593      -0.23230379       0.23110255      -0.16429756       0.10885588
H        9.21370572       5.55430183       4.37826340      -0.99441699       1.55016452       2.50463226      -0.20982602      -0.11883954       0.11905493
H       10.56468775       5.26279123      11.06802940      -0.62731989      -1.13080075      -0.21371109       0.00346017       0.13817343      -0.15204244
H        9.12079458      12.45799083       9.40681909      -0.37300309      -0.23955332      -0.32986354      -0.03367551      -0.19199647       0.07067081
H        2.13886120       4.22130936       5.26140598       0.47824212      -0.05045764      -0.95364559       0.30753921       0.09467022      -0.16404661
H        7.54533420       4.33844600       3.96759805       0.15206521      -0.76975193      -0.15147313      -0.21482783       0.09600500       0.21812652
H        5.24161042       9.33351384       9.73126458       0.69112106      -0.39836943      -0.67253051      -0.20248352       0.22063103       0.36157935
H        9.86290879      11.27024929       8.00692519      -0.07934976       0.25264256       0.53633543      -0.01768059       0.09488153      -0.20651129
C        3.01762597       3.91647433       3.28309246      -3.28005921      -0.72540957       3.24925296       0.17541883      -0.05370522      -0.71966058
C        9.95952147       3.51331723       3.47110721      -0.95231265      -0.63135388      -1.18060508      -0.37138977      -0.88331334       0.94991474
C        9.70253417       3.85281899       9.68721984      -1.91322921      -0.65642577       3.47939366       0.66198561      -0.07458676      -1.00993689
C        9.71391258      10.36219144       9.87660508       1.90003640       0.52393131      -3.25930711       0.80761892       1.30095940      -1.19312778
N       11.56551098      10.45673898       3.30361519       0.80391708      -0.51655731      -0.82012093       1.68651350      -0.31846954      -0.96908673
N       11.35249539       3.75094264       3.76087540       1.13766672       3.39627008       2.43680280      -0.03875342       0.52383999       2.13545522
N       10.47851671       4.05885612       8.68735367       1.30445660      -0.41911550      -2.45593096      -0.46466633      -1.05464779       0.74936317
N        2.18039229       3.72621398      10.19023000      -0.60992584      -0.52852469      -0.60720052       0.05451346       0.33419191       0.66675663
N        9.20682275      11.38653460       3.18781429      -0.80488823       0.11457534      -0.44999706       1.23937748       1.69823174       1.33978121
N        8.88117204       4.38779797       4.08663670      -0.95434474      -1.15801934      -1.50962075      -0.70779542       1.74850748       0.84703415
N        4.45110703       9.77443827       8.94054653      -1.23370161       0.88126902       0.74680708      -1.05963377       1.12640508      -0.98505928
N        9.49937281      11.43930612       8.99743419       1.20098237      -2.17329645       1.88553033      -0.24074107      -0.83492831      -1.41203482
Pb       0.22487782       7.12059299      12.83933338       0.45903306      -0.00807480       0.54213011       2.58043080      -6.03509195       1.48243638
Pb       6.96606193       7.09239573      13.01186236      -0.18742066      -0.14952025      -0.25054440       1.44164814       4.21083757      -0.06598321
Pb       0.31696824       0.45886818       6.83680445       0.25762577       0.77368676      -0.32229800      -5.09365420       1.09311157       1.23257474
Pb       0.57014415       7.34787810       6.44424948       0.20288068      -0.31487163       0.20544991      -2.04971458       3.16553678      -7.14920807
I        3.55914578       7.59407120      12.58481789       0.38067576      -0.45581812      -0.00230265      -3.65521472       1.94249274      -2.00384584
I        9.96414358       7.75186105      13.93541145       0.27111028      -0.16676136      -0.24496115       2.12637643      -5.80735173       0.98713589
I       10.33649138       7.26683269       5.70763231      -0.49991934      -0.25929913      -0.14500048       4.07703129      -2.11879344      -2.25882649
I        3.73598592       7.22883033       6.58581870       0.35833382      -0.11326536       0.13248319       2.70509549       4.98681986       5.18685703
I        0.19928063       3.79850863      13.39165093       0.16837560      -0.16581547      -0.07298856       3.38569439       3.04960740       2.86274529
I        0.71129189      10.17644785      -0.50971017      -0.21695705       0.71267512       0.40852674       2.63182737       1.81731540      -0.43881613
I        0.20113697      10.29734280       6.43542708      -0.44495283      -0.05134855       0.16439985       1.27364678      -4.54939484       4.02532918
I        0.27436606       3.88216338       6.22235638      -0.04269034      -0.47743496       0.46764825      -2.88095466       1.37398007       3.59316210
I       14.06668222       7.62300042       3.53546423      -0.06160033      -0.04328749       0.03326350       1.44054386       0.56477884      -0.39336218
I        6.57602455       6.16711069       3.40700382      -0.24680127       0.34711279      -0.04996905       0.85025694       1.64327407       1.78451474
I        7.53652843       7.04104502       9.85450106      -0.24259276       0.31749500      -0.45295783       0.12751481      -0.65605481      -1.84853493
I       -0.00970844       6.35072429       9.81936393      -0.15275615       0.14251805      -0.34525896      -1.25399097      -2.36939745       1.75793023
H       10.36697519       9.88204413      17.59097215       0.71207381      -0.29339501       0.09557928      -0.04227617      -0.39961923       0.10207741
H        9.83601509       2.13251289      15.54004114      -0.22893436      -0.95641626      -1.51165357       0.17943047       0.07410646       0.29759122
H        9.12823994       2.77728122      23.12678423       0.15203264      -0.02482043      -0.28577302       0.28235505      -0.16957791       0.19506896
H       10.68167848       9.41739326      21.88079661       0.96900253      -1.40878083       0.53484225      -0.00186319      -0.04717516       0.21552611
H       12.29556583      10.07837361      15.79085672      -1.94887539       0.98440478       0.34417563      -0.14273635       0.16694630       0.06453543
H       11.35124649       3.77427685      15.76543624      -0.13160787       0.18282243       0.51104230       0.57530992       0.51351553       0.17696905
H        1.59886917      11.50399899      23.20513965      -0.28901770      -0.66259330       1.09958771      -0.11978721      -0.00402534       0.00678010
H       10.07995025       9.38715451      24.28649498       0.08434232      -0.68279145       1.30447945      -0.21809636      -0.25281228       0.04137858
H        3.92309385       5.07304489      14.32148624       0.13546147       0.15524677       0.27553408       0.00522725      -0.00489747       0.07932707
H        2.90148963      10.49642791      13.93872485      -0.95288133       1.11411942       0.40501566       0.15308396      -0.05284469      -0.32758740
H        2.50120700      11.92440319      21.87307840       0.46691003       1.38840284      -2.17112535      -0.18342463      -0.33064621      -0.12235655
H        9.05564023      10.83219523      24.16131047      -0.29629268       0.06579608       0.14295431       0.14369790      -0.06670743       0.05037545
H        4.04233593       5.26248789      16.92992734       0.31760637       0.32891934       1.24084425      -0.06608862       0.27612101       0.01141677
H        2.17345941      10.80849837      16.65404180       2.15642549      -1.96417442      -0.32985840       0.09345613       0.15980548       0.06601236
H        4.63962687      10.31864495      21.07975059       0.35880050       1.77661283      -1.93709458      -0.00627603      -0.26824257      -0.12527946
H        2.86011190       5.95491965      22.40386111       0.13016289       1.31379061       1.30799649      -0.18107468      -0.46010947      -0.40871881
H        8.20016809      10.77230168      16.77370989       1.72297905       0.19535232      -1.10958001       0.50475020      -0.21451298      -0.22075792
H        3.42706276       9.85263753      18.12537620      -0.37342163       1.60389298      -1.49638513      -0.36911280      -0.14724313      -0.21474624
H        9.97629225       4.38483518      24.60084791       1.21298476       0.18031953      -1.29084846       0.14993726       0.01975032       0.14491410
H        3.92178127       5.28340341      21.16302353      -1.30338835      -0.59505119       1.05800371      -0.13255464       0.02349497      -0.39891584
C       10.25568566      10.37526181      16.51804377       0.55736958       0.36846452      -2.36416557       1.29847066       0.19130289       0.10211747
C        4.10064081       9.78233210      16.04201029      -1.95142453       2.68678911      -0.81619995       0.34843416       0.24313595       0.52776436
C        3.38277891      10.53499725      23.01116920       1.10487318      -1.56418598       1.22749577      -0.33305059      -0.52108672      -0.58687736
C        2.41483899       3.81860524      22.09373998       0.68856423       0.37891738      -3.86593624      -1.33745341      -0.62136290      -0.66841467
N        3.66643522       3.99385438      14.91717824       0.06472372      -0.07767614       0.22601328       0.78916630      -0.82641737       0.48835995
N        3.73421348       9.91797345      14.47625703       3.09356743      -3.03990463       0.31431262      -0.69831753       1.93957201      -0.09919050
N        2.45608395      11.31780937      22.63732292      -1.75946933       1.03589479       0.15376061       0.18958661       1.34773166      -0.12943160
N        9.69308826      10.12826957      23.69939010      -0.45016997       0.58364018       1.29335862      -1.07420222      -0.91509771       1.00149688
N        3.85991189       4.08394476      17.39196615      -0.96510193       2.99838369       6.10249866       0.23991237       0.24187027       1.70934302
N        3.29934628      10.28871767      17.05154140      -2.58468413       0.62757921       2.06194741       0.30687371      -1.81480856       0.17293651
N       10.31508861       4.49009763      23.53155253      -2.45253785      -0.18793037       3.42966251      -0.56085169       0.11281977      -0.87206009
N        3.12500259       5.07963818      21.91796493       1.57042051      -0.62897853      -0.67631129       2.34586157      -0.93128307      -0.09777801
Pb       6.72635018       0.79216533       0.66101663       0.11685111      -0.09334899       0.17151916       0.73410643      -2.78409001      -3.17803887
Pb       0.47098516       0.70994961       0.22050531       0.37800756       0.27807440       0.71349880       3.97919549      -0.13427624       3.20149734
Pb       6.47547177       7.78107768      19.40994374       0.48321582      -0.98405165      -0.15632758      -2.89194763      -4.67987902       3.45737921
Pb       6.39559330       1.14857946      19.63352791       0.02389135       0.00436415       0.51408005      -0.29833710       2.49633336       3.37152602
I       10.21135372       0.85281468       0.66287121       0.00960213      -0.10198320      -0.08012198      -0.48505303       1.66400542       1.32051984
I        3.41324785      13.74698925      25.23962400       0.37880774      -0.35239206      -0.32729090       4.23480963       3.31782770       0.72822918
I        3.23086149       0.79942894      20.15772024      -0.30939975      -0.21369749       0.05940270       0.59405205       0.08065135       1.80557541
I        9.49333021       1.06996659      18.73883801      -0.16050331       0.01749103       0.08341857      -1.14140251      -1.16419046      -5.25125488
I        6.80248023      10.52371312       0.50193934      -0.09674478      -0.01749279       0.00893375      -2.33121089      -6.29966282      -5.32186055
I        7.20837414       4.03111855      12.68261443      -0.58962681      -0.92828945       0.32650100      -0.28635762      -0.23443013      -0.59858404
I        6.15873353       4.44522364      19.43929352      -0.05922760      -0.05549062       0.34004545      -2.17703456      -1.44326724       2.44111807
I        6.75790052      10.53422072      18.79580136       0.01547196       0.54089921       0.15341071       4.10967333       2.42194876      -3.35382616
I        5.79594296      13.73714356      16.12251701       0.09798519      -0.04477393      -0.15390808      -0.40236926       0.89883212      -3.52574943
I        0.92555368      -0.59763687      16.26265013      -0.03740328       0.71817846       0.47302361       1.83147624       3.11783694       0.96230020
I       -0.73320601       0.14021097      22.95532847       0.13822184       0.21420462      -1.52933382       1.82851137      -0.67625399      -6.15157379
I        7.03515743       0.70505718      23.06472211      -0.02863609      -0.12697179      -0.82926821       2.93905704      -1.09398515      -0.72685457
H        3.22885849       2.24858053      16.57501891       1.62325565       1.03680347       0.49249885       0.04277517       0.01508741      -0.25192997
H        5.09210137       9.22985805      16.58805599       1.47362414      -1.24358209      -0.91989256      -0.13695765      -0.17827087      -0.21126944
H        3.37119372      10.16138915      24.20275345      -0.45211282      -0.36214165      -0.27914126       0.11085954      -0.00477485       0.07584508
H        2.75516628       3.04510038      21.36985326      -0.04569779      -0.54035480       0.02915976       0.20168522       0.08993678       0.06297177
H        3.24909778       3.34445237      14.23382949       0.46571653      -0.51695005      -0.96180944       0.42283360       0.19373953       0.06106715
H        4.68741962       9.59855476      13.89123888      -1.13816809       0.33718120       0.77832073       0.25064310      -0.02663089       0.09180059
H        9.33440183       3.44718825      20.34138511      -0.10803983      -0.47354349      -0.15116545       0.06882030       0.22196088       0.16890488
H        0.73638092       2.66029992      22.34495843       0.05479098       0.06621701       0.77555103       0.15896760      -0.01254037      -0.14252839
H       11.14992981      10.86789890      14.44980599      -1.01573534       0.06090949       0.54098049       0.10842796       0.11537992       0.10614943
H       10.20105259       4.73064977      16.90162067       0.63539466      -0.18561203      -0.90674204      -0.12929404      -0.14124642       0.11873280
H        9.92373767       5.18942569      20.50989088      -0.12600870      -0.70784144       0.07053286      -0.26521778       0.31766021       0.43161777
H        0.92589855       4.05041489      23.63373942      -0.21864527      -1.77161584      -2.39239174      -0.10445633      -0.05247282       0.32429744
H        8.90614322      11.41605297      15.19705658      -0.15680655       0.20036622      -0.47117306      -0.07404934       0.25149201       0.67664824
H        7.69072085       4.20928306      16.69893137      -0.10843193      -0.14714695      -0.06181679      -0.14279203       0.19931862      -0.16800048
H       10.84447262       5.32951267      23.19497013       0.94620204       1.17780315      -0.12428585      -0.16630032       0.11177626       0.35358223
H        8.83811043      11.88120831      21.79431000       0.45515723      -1.00104788       0.08465100       0.27920883       0.08435823      -0.27515226
H        3.53789055       3.73901478      18.50492532       2.16894052       0.44590323      -2.99526888      -0.24604062       0.06308729      -0.14884394
H        7.44129110       2.57970695      15.98053173       0.57158295       0.34354047       0.28809763      -0.17221357       0.08841545       0.13418180
H        5.00407656       9.31178387      22.61595362       0.18658638       0.63351558      -0.31163120      -0.09961588      -0.13939084      -0.03656087
H        9.55615710      10.84515831      20.32225409       0.65308506      -0.02690310       0.27231024       0.17788218       0.12481422      -0.45261959
C        3.67995844       3.39763618      16.41594468      -3.93621670      -4.39692541      -4.37684958       0.17009480       2.49739689      -0.57625402
C        9.44252761       3.12739810      15.96552928       1.93830788      -0.70372531      -0.76512112       0.90368244       0.03678894       0.28493645
C        9.67426964       3.71573947      22.60819692       0.67668737      -0.63417318      -2.45970587      -0.27543851       0.25075958       0.72043768
C        9.99221590      10.14348664      22.40909636      -0.52985989       1.79254518      -4.26864675      -0.26233340      -0.20134122      -0.44173280
N       11.23767129      10.48667228      15.54957936       1.83544546      -1.76221502       1.08510512       0.55700403      -0.43628428       1.55332391
N       10.42300096       3.93943643      16.22549757       0.21069635       1.64328144       1.18424389       0.22395122       0.67942814       1.30098099
N        9.70464839       4.04165929      21.10129362      -0.44408397       0.85122705       0.87647117       1.22608695       0.09954279      -0.17105677
N        1.19988901       3.62312256      22.58325907      -0.42139980       1.43958625       3.75416497       0.08211475      -0.47850570      -0.13980566
N        8.98716056      10.78947592      16.02596099      -1.73255574       0.02332920       1.97090829       0.11242244       0.92861069       1.34687198
N        8.16152414       3.29485563      16.24575455      -2.86897014       0.53256484       1.59763188       0.28566686      -0.81643334       1.79800746
N        4.42691502      10.10835099      22.16089015       0.88976498      -2.23420544       1.82340922       1.92438802       1.24225527      -1.18372339
N        9.43655619      11.01448464      21.47560806      -0.72240750       0.61144090       0.69347419      -0.30756556      -0.34205394       0.50255197
Pb       0.70665092       7.17020867      -0.01058369      -0.54045553       0.04836480       0.21819586       1.91747943      -0.41693445       0.75158385
Pb       7.01226038       7.29542654       0.21997758       0.18969445      -0.74106259       0.07866595       1.69157285      -9.23238228       1.53772655
Pb       0.11360525       0.55799537      19.07754519      -0.20897247      -0.11351097       0.65803884       3.51403602      -2.13338571      -2.00800602
Pb       0.12820243       7.08430172      19.14665020      -0.12824868       0.00998098      -0.28000179      -3.00718504      -7.39096443       3.89678241
I        3.52059607       7.13539823      24.95451285      -0.02975207       0.05094244       0.03206674       2.09531661       6.24636759      -0.63358013
I       10.08363284       7.44623100       1.36153688      -0.13616628      -0.12548304      -0.20307241      -0.57213181       0.23563705      -0.80930639
I       10.05211246       6.80926023      19.04744209      -0.77389175      -0.01303832      -0.36603574       0.92088346       2.72807626       1.34140493
I        3.35366031       7.87167419      19.71115118       0.30084131      -0.08763920       0.03047467       4.07962334      -0.78930028      -0.99456610
I        0.41645151       4.07745351       0.69660980      -0.13955210      -0.61882916       0.00961693      -0.94025467      -0.63993011       3.06530464
I        0.63689276      10.27534636      12.65983520      -0.14109437       0.08985796       0.23608365       2.30400316      -0.02453015       3.54329419
I       -0.08126990      10.20632286      19.32569738       0.15405928       0.27060790      -0.09864472      -0.59315370       1.12446428      -3.75233843
I        0.31189017       3.89685838      19.26327043       0.30067114      -0.68356338      -0.18418656       3.07725638      -2.47976055      -3.88016014
I       13.95602908       7.75565012      16.08399615      -0.08804778      -0.03644824      -0.39046265      -0.46075794      -1.78352859      -1.94149236
I        6.54007272       6.81763295      16.07341248      -0.33871215      -0.09716627       0.36128147      -0.33708126      -2.10029325      -0.19074155