768
Lattice="31.52003920688824 -1.0395494997101957 0.3212732111417801 -0.9162685860741572 30.3547437254124 0.028757121508259497 0.35595936046071336 -0.14720492652102254 17.2635365134837" Properties=species:S:1:pos:R:3:forces:R:3:momenta:R:3 pbc="T T T"
H        0.75000505       3.19982061       6.72617417      -0.81459861       0.16794441       1.28897195      -0.03277367       0.01031982      -0.00036189
H        2.75516527       1.95780958       6.46722971      -0.46973407       0.27705890      -0.69221427       0.08448300      -0.06914653       0.25840325
H        2.48054122       1.67624829       4.70897237       0.50607733       0.09627478      -0.35891573       0.03012864      -0.10397065      -0.19730339
H        0.50016389       2.81525973       3.66679697       0.07610580       0.05044393       0.76711475       0.13348765       0.09243870      -0.13804568
H       30.83104322       2.44658481       5.14129224       0.11577147       0.17403764      -0.03537212       0.22850269      -0.02558949      -0.07650431
H        4.80937536       6.04320822       2.25948962      -0.57093504      -0.05762242      -0.47559263      -0.10558680      -0.11886549       0.09665974
H        5.10608910       6.63797040      17.19212399       0.03872787      -0.55310090       0.07457452       0.03635624      -0.15329138      -0.07965654
H        5.29973731       5.02843270      16.58747351      -0.35882118      -0.75380956      -0.90264733       0.10339728       0.13387518       0.11963903
H        5.00668367       3.29638693       1.06640762      -0.29978729       0.05610157       0.13310964       0.09395511       0.07351965      -0.09818007
H        4.74739859       3.88148567       2.79860798       0.25355203      -0.35365617      -0.07055230       0.22072535       0.06997455       0.05264527
C        1.02004290       2.86322301       5.73700774       1.17443955      -0.18100304      -1.79547923      -0.51617434       0.20716969      -0.87395208
C        4.73757120       5.32739019       1.41277987       0.39696743       0.08510381      -0.01493135       0.42413026       0.98110943       0.57189384
N        2.19850562       2.22076651       5.62353850      -0.02061679      -0.44447888       0.98741582       0.01627867       0.22247528      -0.22245679
N        0.27773513       3.16017452       4.67664454      -0.52813037      -0.35228567      -0.25137373       0.79757020       0.27885992      -0.12955830
N        4.70652253       5.75587630       0.14468125       0.31550299       1.78077887       0.77996698      -0.04648618       0.14309430       0.23246838
N        4.80665131       4.06159395       1.76610766       0.28636359      -0.29225829       0.51330475      -0.74400742      -0.12126632      -0.00024590
Pb       2.24908946      30.17346436       1.22523738      -0.28222819       0.28812488       0.15810979       1.45866775       1.35965019      -2.04674538
Pb      30.52564256      -0.92632946       1.52990636       0.22387812       0.29456150       0.21754486      -4.30485489      -0.49309536       0.01668075
I        5.17465875       0.92734337       3.65404551       0.09701238      -0.22330837      -0.19814490       0.33946913       0.31844200      -1.26934691
I        1.07548202       6.40739935       2.74935098       0.24884674       0.06606582       0.06136596       0.97889942       0.57798140       1.38539987
I        5.34506590       1.18897643       7.79774857      -0.05061498       0.09322267      -0.09082054      -2.32676169      -0.06546058      -0.59490204
I        1.09356894       5.85725698       7.06089147       0.11259353       0.10395267       0.36336962      -0.06763880      -0.39646611      -0.75258409
I        5.19502157       4.89809407       5.27811738      -0.07187358       0.11883193       0.05500769       0.50556738       2.04240170       0.02224534
I        1.14364393       2.53678088       1.00573195       0.19103637      -0.00829165       0.13290418      -1.10878254      -1.44976289       2.39878164
H        0.41725329      11.19482670       0.14871803       0.38545030       0.02335095       0.41635511      -0.00675116      -0.02803362      -0.12260547
H        0.55195974      11.90180461       2.34623559      -0.21053065       0.36080339       0.17380904       0.07810927      -0.23568003       0.15554976
H        0.97170841      10.35887469       3.03036069       0.09378986      -0.19175924       0.11162562       0.18330475      -0.03458944      -0.02937092
H        1.55681405       8.48648216       1.11873722      -0.14206206       0.07661180       0.30100221       0.10944670      -0.11047825      -0.01093339
H        1.55259057       9.03618697      16.78514693      -0.01135630       0.05485485      -0.16255064      -0.08959434       0.06248565      -0.01176522
H        4.13741498      11.62776249       6.72517320       0.21414578       0.68704716      -0.62613595       0.00668846      -0.11567392      -0.11220941
H        2.36419583      12.95535348       5.69595472       0.35125129       0.45114178      -0.55009853      -0.00313156       0.02474544      -0.21986553
H        3.39953191      13.75911664       4.47352668       0.02515596       0.28425088      -0.29708809      -0.14766169      -0.27827549      -0.10260998
H        5.82326358      12.85998289       4.46491059      -0.15496445       0.22076538       0.07711748       0.16162124      -0.12349222       0.08871344
H       12.29914244      14.33477739       5.42740085       0.17292967      -0.58789186      -0.00868927       0.17228306      -0.06330831      -0.02203623
C        0.82883506      10.48876744       0.97938594      -0.68537696       0.75422691      -2.14104361       0.09409208       0.01365849       0.38598096
C        4.30620438      12.30526632       5.79428244       1.78701148      -0.59857827      -0.50043296       0.06211123      -0.23268494      -0.25002443
N        0.71575871      10.90796794       2.18478558       0.17125466       0.09886056       1.34392784       0.16941423      -0.07249308      -0.15946941
N        1.24693992       9.32124354       0.54028319       0.29873738      -1.35065334      -0.07982430       0.57446705      -0.61462294      -0.20666078
N        3.25034629      13.01224862       5.15659920      -0.60088484      -0.77648137       1.21404868       0.30322176       0.33580707       0.38858274
N        5.59878256      12.32350438       5.36894349      -0.41687520      -0.85225465       0.63936697       0.32251522       0.26039715       0.39728256
Pb       3.09113278       7.48284742       5.15728037       0.06225817      -0.13539167      -0.04629585      -1.38918042      -1.09894829      -0.41808676
Pb      30.69850426       6.35577804       5.54524262      -0.32811378       0.19961961       0.02008681       1.66865020      -0.00583327      -0.05685958
I        4.88842606       8.96652008       7.47619154       0.01224953      -0.03404224       0.04945193       2.08072326      -1.02473637      -2.12716191
I        0.79441275      13.98565796       7.69783216      -0.08896019      -0.15489013      -0.01295385       0.24020304      -0.83860961      -0.32166665
I        5.18397537       8.96399293       3.20387287      -0.05929051      -0.03207717      -0.18249429      -1.16967442       1.62505492       0.78606852
I        0.58082164      14.08812018       3.60161408      -0.12095968       0.23124547      -0.19594444       0.58906890      -0.63089731      -0.84878546
I        4.46246077      12.37610449       1.29514248       0.19870891       0.01492028      -0.04324206       0.97156440       0.65642230       1.53280748
I        1.13666465       9.95546144       5.69184177       0.06833326       0.23459903      -0.14533275       0.14009491       0.46223696       0.22219649
H        9.32093205       3.24449953       4.63565636       0.12305931      -0.10835443       0.07894709       0.02700079      -0.10813232       0.06135517
H        8.72159252       4.12323673       6.78535527       0.13369122      -0.67934878      -0.25422864      -0.06653994       0.00195986      -0.07116194
H        8.68469250       2.49012633       7.49423720      -0.17120138       0.53146610      -0.22306135      -0.00265921       0.01430917       0.05981715
H        9.15262897       0.53478647       5.95668647      -0.05432109      -0.17730746       0.01797168      -0.02224162      -0.09696981      -0.03568572
H        9.45514084       0.91770480       4.28430291       0.14850133       0.08414630      -0.97405911      -0.04995832      -0.07692504       0.17288222
H       12.68746968       5.69551047       2.00027913      -0.13354917      -0.20827413       0.08661154       0.02526886       0.24974339      -0.02705267
H       14.81234516       4.69947193       1.89550163      -1.19441519      -0.44383398      -0.85161047      -0.04050313      -0.19823510      -0.00205809
H       14.23534905       3.51778172       0.62115863       0.03952117       0.76111672       0.48143922       0.02519700       0.18520408       0.17069926
H       12.25291707       3.57084300      17.14647613      -0.04284217      -0.58049953      -0.36078388       0.16186787      -0.19841981      -0.02262093
H       10.91804369       4.95129016       0.71471463      -0.01960785      -0.01635991      -0.08262504       0.15894065      -0.02002054       0.02230885
C        9.17740081       2.54689561       5.49346271      -0.85295582       0.20520953      -2.11417803      -0.42263298      -0.11364419      -0.08499516
C       12.83467532       4.82446198       1.32936077      -0.96717992       1.92508027       0.05648005      -0.35964565      -0.21469430       0.49598638
N        8.74504925       3.08259005       6.63879054       0.40035367      -0.08743788       1.78626726      -0.26466293      -0.55211990       0.37691026
N        9.24666408       1.25442607       5.21448494       0.19678553       0.30548989       1.59268833       0.11607808       0.47045247      -0.25710659
N       14.04021693       4.35705426       1.22878978       2.33432920      -1.58046220       0.27733043       0.89447320      -0.02120093       0.63789028
N       11.81052436       4.46160095       0.58131655      -0.06312990       0.36881828       0.43420628       0.19118013       0.26951596      -0.21744768
Pb      10.91518135      -0.05610131       1.08833598       0.35357281      -0.10860641       0.01404719       0.36973741      -0.59808370       1.60607120
Pb       6.16718720      30.00887172       1.27401010      -0.04808103       0.03192347      -0.21640917       0.75120794      -3.67881558      -0.61277578
I       12.67455546       1.01008426       3.60772946       0.19362924      -0.13488413      -0.18347148       1.66925976       0.98727175       0.08106059
I        8.92214482       5.97739283       3.31750092      -0.07554560       0.15541416       0.02569289       1.24683273      -0.69253159       1.18325381
I       13.40734780       1.35437596       7.78411164      -0.08551569      -0.10683360       0.06830858      -0.26855561      -0.44433705      -0.67105129
I        8.93343791       6.42433436       7.77720688      -0.02076546       0.02716927       0.00898640       1.64067957      -1.26227468       0.21001944
I       12.77141378       4.69759108       5.46256845      -0.31872313      -0.09701097      -0.14648250       0.33077194      -0.51860428       0.10102881
I        8.97756891       2.32467457       1.54809660      -0.23456844      -0.04829719      -0.04100336       1.81699842       0.94822287      -0.67322134
H        8.87146408      10.52390543       2.61689930       0.50617565      -0.58209488      -0.14711420       0.12035224       0.04496188      -0.10333732
H        7.16722841      11.17121260       1.20500242       0.53305178      -0.13164075      -0.06948913      -0.07474659      -0.06867567      -0.05750086
H        8.24753702      10.18742322      16.95402386       0.52949926      -0.10602455      -0.59784795      -0.23239841       0.03138331       0.12054020
H       10.50909445       8.73408044      17.26272813       0.09278711      -0.04679121      -1.02329372       0.09203673       0.03663677      -0.16430843
H       10.77712476       8.98384734       1.66920874      -0.44607278       0.18781935      -0.57159244       0.28621512      -0.01867450      -0.04066241
H       12.95941106      12.34014479       4.18606242      -0.02711315      -0.08559680      -0.32895905       0.09770348      -0.17311734      -0.04742905
H       13.23562801      10.33915620       5.28042016       0.03989439      -0.41751932      -0.45624516       0.04077594      -0.24270187      -0.17248366
H       12.98711553      10.93687900       6.88993684      -0.05974534       0.42570299      -0.05912465      -0.14099436       0.22404969       0.10839315
H       12.21011781      13.33167449       6.96514484       0.16789217       0.35151378      -0.34109694       0.00555132      -0.06306159       0.07653015
H        6.40813010      11.71112750       5.80626852      -0.93637913       0.70568667      -0.00340874      -0.21837841      -0.15405499      -0.09573396
C        8.94315381      10.05778989       1.49698925       0.24485435       0.64188464       0.90012918      -0.32812116      -0.46649462       0.53927220
C       12.83100228      12.31920721       5.28442966       0.41797107      -1.46605545      -0.57702059      -0.23949167       0.02291018      -1.21486009
N        7.97854348      10.56416527       0.74709366      -2.59652489       0.43948504      -0.84750486      -0.27634771       0.40895728       0.69406560
N        9.98244907       9.22985942       0.98788488       1.10150347      -0.50259299       2.29788723      -0.40840198       0.42671028       0.26725240
N       13.06833712      11.14997732       5.87049584      -0.18913436       0.66001059       0.00629957      -0.65985663      -0.02894954      -0.55055456
N       12.50785978      13.41767809       5.89322946      -0.46886290       1.16162948       1.62845052      -0.90853341      -0.06471333      -0.28876741
Pb      10.82842750       7.41396141       5.27509344       0.45774019      -0.12477950       0.28932785      -0.64624412       0.44756643      -0.91313107
Pb       6.96024223       7.70566535       5.43306395       0.12400770      -0.34755946      -0.14580530      -1.50939594      -0.87013259       1.13253162
I       13.14628186       8.19185712       7.66034675      -0.12640439      -0.05867282       0.03018245       0.39735518      -1.07152023      -1.18635844
I        8.93606661      13.64965402       7.45944771      -0.34874876       0.16686283       0.21957233       1.96840274      -0.65447123      -0.87597285
I       12.99941247       8.63641425       3.20369794      -0.08603498      -0.05478874      -0.01538406      -0.10289526      -1.09664229      -0.01709654
I        8.69097166      13.33907103       3.07288598      -0.06505478       0.01255715       0.28473885      -0.35713253       0.06332547      -0.37042410
I       12.44811456      12.42559315       0.85217616      -0.22704106      -0.21127686      -0.01192752       2.44094764      -2.33705654      -2.57565842
I        8.89375868      10.17461000       5.55795619       0.12926099      -0.04704915       0.05678097      -2.00210878       0.17916439       1.54410174
H        0.92798473       3.12621815      15.35794243      -0.81459861       0.16794441       1.28897195      -0.03277367       0.01031982      -0.00036189
H        2.93314495       1.88420712      15.09899797      -0.46973407       0.27705890      -0.69221427       0.08448300      -0.06914653       0.25840325
H        2.65852090       1.60264583      13.34074063       0.50607733       0.09627478      -0.35891573       0.03012864      -0.10397065      -0.19730339
H        0.67814357       2.74165727      12.29856523       0.07610580       0.05044393       0.76711475       0.13348765       0.09243870      -0.13804568
H       31.00902290       2.37298235      13.77306050       0.11577147       0.17403764      -0.03537212       0.22850269      -0.02558949      -0.07650431
H        4.98735504       5.96960576      10.89125788      -0.57093504      -0.05762242      -0.47559263      -0.10558680      -0.11886549       0.09665974
H        4.92810942       6.71157287       8.56035574       0.03872787      -0.55310090       0.07457452       0.03635624      -0.15329138      -0.07965654
H        5.12175763       5.10203517       7.95570526      -0.35882118      -0.75380956      -0.90264733       0.10339728       0.13387518       0.11963903
H        5.18466335       3.22278447       9.69817588      -0.29978729       0.05610157       0.13310964       0.09395511       0.07351965      -0.09818007
H        4.92537827       3.80788321      11.43037624       0.25355203      -0.35365617      -0.07055230       0.22072535       0.06997455       0.05264527
C        1.19802258       2.78962055      14.36877600       1.17443955      -0.18100304      -1.79547923      -0.51617434       0.20716969      -0.87395208
C        4.91555088       5.25378773      10.04454813       0.39696743       0.08510381      -0.01493135       0.42413026       0.98110943       0.57189384
N        2.37648530       2.14716405      14.25530676      -0.02061679      -0.44447888       0.98741582       0.01627867       0.22247528      -0.22245679
N        0.45571481       3.08657206      13.30841280      -0.52813037      -0.35228567      -0.25137373       0.79757020       0.27885992      -0.12955830
N        4.88450221       5.68227384       8.77644951       0.31550299       1.78077887       0.77996698      -0.04648618       0.14309430       0.23246838
N        4.98463099       3.98799149      10.39787592       0.28636359      -0.29225829       0.51330475      -0.74400742      -0.12126632      -0.00024590
Pb       2.42706914      30.09986189       9.85700564      -0.28222819       0.28812488       0.15810979       1.45866775       1.35965019      -2.04674538
Pb      30.70362224      -0.99993192      10.16167462       0.22387812       0.29456150       0.21754486      -4.30485489      -0.49309536       0.01668075
I        5.35263843       0.85374091      12.28581377       0.09701238      -0.22330837      -0.19814490       0.33946913       0.31844200      -1.26934691
I        1.25346170       6.33379689      11.38111924       0.24884674       0.06606582       0.06136596       0.97889942       0.57798140       1.38539987
I        5.52304558       1.11537397      16.42951683      -0.05061498       0.09322267      -0.09082054      -2.32676169      -0.06546058      -0.59490204
I        1.27154862       5.78365452      15.69265973       0.11259353       0.10395267       0.36336962      -0.06763880      -0.39646611      -0.75258409
I        5.37300125       4.82449161      13.90988564      -0.07187358       0.11883193       0.05500769       0.50556738       2.04240170       0.02224534
I        1.32162361       2.46317842       9.63750021       0.19103637      -0.00829165       0.13290418      -1.10878254      -1.44976289       2.39878164
H        0.59523297      11.12122424       8.78048629       0.38545030       0.02335095       0.41635511      -0.00675116      -0.02803362      -0.12260547
H        0.72993942      11.82820215      10.97800385      -0.21053065       0.36080339       0.17380904       0.07810927      -0.23568003       0.15554976
H        1.14968809      10.28527223      11.66212895       0.09378986      -0.19175924       0.11162562       0.18330475      -0.03458944      -0.02937092
H        1.73479373       8.41287970       9.75050548      -0.14206206       0.07661180       0.30100221       0.10944670      -0.11047825      -0.01093339
H        1.37461089       9.10978944       8.15337868      -0.01135630       0.05485485      -0.16255064      -0.08959434       0.06248565      -0.01176522
H        4.31539466      11.55416003      15.35694146       0.21414578       0.68704716      -0.62613595       0.00668846      -0.11567392      -0.11220941
H        2.54217551      12.88175102      14.32772298       0.35125129       0.45114178      -0.55009853      -0.00313156       0.02474544      -0.21986553
H        3.57751159      13.68551418      13.10529494       0.02515596       0.28425088      -0.29708809      -0.14766169      -0.27827549      -0.10260998
H        6.00124326      12.78638043      13.09667885      -0.15496445       0.22076538       0.07711748       0.16162124      -0.12349222       0.08871344
H       12.47712212      14.26117493      14.05916911       0.17292967      -0.58789186      -0.00868927       0.17228306      -0.06330831      -0.02203623
C        1.00681474      10.41516498       9.61115420      -0.68537696       0.75422691      -2.14104361       0.09409208       0.01365849       0.38598096
C        4.48418406      12.23166386      14.42605070       1.78701148      -0.59857827      -0.50043296       0.06211123      -0.23268494      -0.25002443
N        0.89373839      10.83436548      10.81655384       0.17125466       0.09886056       1.34392784       0.16941423      -0.07249308      -0.15946941
N        1.42491960       9.24764108       9.17205145       0.29873738      -1.35065334      -0.07982430       0.57446705      -0.61462294      -0.20666078
N        3.42832597      12.93864616      13.78836746      -0.60088484      -0.77648137       1.21404868       0.30322176       0.33580707       0.38858274
N        5.77676224      12.24990192      14.00071175      -0.41687520      -0.85225465       0.63936697       0.32251522       0.26039715       0.39728256
Pb       3.26911246       7.40924496      13.78904863       0.06225817      -0.13539167      -0.04629585      -1.38918042      -1.09894829      -0.41808676
Pb      30.87648394       6.28217558      14.17701088      -0.32811378       0.19961961       0.02008681       1.66865020      -0.00583327      -0.05685958
I        5.06640574       8.89291762      16.10795980       0.01224953      -0.03404224       0.04945193       2.08072326      -1.02473637      -2.12716191
I        0.97239243      13.91205550      16.32960042      -0.08896019      -0.15489013      -0.01295385       0.24020304      -0.83860961      -0.32166665
I        5.36195505       8.89039047      11.83564113      -0.05929051      -0.03207717      -0.18249429      -1.16967442       1.62505492       0.78606852
I        0.75880132      14.01451772      12.23338234      -0.12095968       0.23124547      -0.19594444       0.58906890      -0.63089731      -0.84878546
I        4.64044045      12.30250203       9.92691074       0.19870891       0.01492028      -0.04324206       0.97156440       0.65642230       1.53280748
I        1.31464433       9.88185898      14.32361003       0.06833326       0.23459903      -0.14533275       0.14009491       0.46223696       0.22219649
H        9.49891173       3.17089707      13.26742462       0.12305931      -0.10835443       0.07894709       0.02700079      -0.10813232       0.06135517
H        8.89957220       4.04963427      15.41712353       0.13369122      -0.67934878      -0.25422864      -0.06653994       0.00195986      -0.07116194
H        8.86267218       2.41652387      16.12600546      -0.17120138       0.53146610      -0.22306135      -0.00265921       0.01430917       0.05981715
H        9.33060865       0.46118401      14.58845473      -0.05432109      -0.17730746       0.01797168      -0.02224162      -0.09696981      -0.03568572
H        9.63312052       0.84410234      12.91607117       0.14850133       0.08414630      -0.97405911      -0.04995832      -0.07692504       0.17288222
H       12.86544936       5.62190801      10.63204739      -0.13354917      -0.20827413       0.08661154       0.02526886       0.24974339      -0.02705267
H       14.99032484       4.62586947      10.52726989      -1.19441519      -0.44383398      -0.85161047      -0.04050313      -0.19823510      -0.00205809
H       14.41332873       3.44417926       9.25292689       0.03952117       0.76111672       0.48143922       0.02519700       0.18520408       0.17069926
H       12.07493739       3.64444547       8.51470788      -0.04284217      -0.58049953      -0.36078388       0.16186787      -0.19841981      -0.02262093
H       11.09602337       4.87768770       9.34648289      -0.01960785      -0.01635991      -0.08262504       0.15894065      -0.02002054       0.02230885
C        9.35538049       2.47329315      14.12523097      -0.85295582       0.20520953      -2.11417803      -0.42263298      -0.11364419      -0.08499516
C       13.01265500       4.75085952       9.96112903      -0.96717992       1.92508027       0.05648005      -0.35964565      -0.21469430       0.49598638
N        8.92302893       3.00898759      15.27055880       0.40035367      -0.08743788       1.78626726      -0.26466293      -0.55211990       0.37691026
N        9.42464376       1.18082361      13.84625320       0.19678553       0.30548989       1.59268833       0.11607808       0.47045247      -0.25710659
N       14.21819661       4.28345180       9.86055804       2.33432920      -1.58046220       0.27733043       0.89447320      -0.02120093       0.63789028
N       11.98850404       4.38799849       9.21308481      -0.06312990       0.36881828       0.43420628       0.19118013       0.26951596      -0.21744768
Pb      11.09316103      -0.12970377       9.72010424       0.35357281      -0.10860641       0.01404719       0.36973741      -0.59808370       1.60607120
Pb       6.34516688      29.93526925       9.90577836      -0.04808103       0.03192347      -0.21640917       0.75120794      -3.67881558      -0.61277578
I       12.85253514       0.93648180      12.23949772       0.19362924      -0.13488413      -0.18347148       1.66925976       0.98727175       0.08106059
I        9.10012450       5.90379037      11.94926918      -0.07554560       0.15541416       0.02569289       1.24683273      -0.69253159       1.18325381
I       13.58532748       1.28077350      16.41587990      -0.08551569      -0.10683360       0.06830858      -0.26855561      -0.44433705      -0.67105129
I        9.11141759       6.35073190      16.40897514      -0.02076546       0.02716927       0.00898640       1.64067957      -1.26227468       0.21001944
I       12.94939346       4.62398862      14.09433671      -0.31872313      -0.09701097      -0.14648250       0.33077194      -0.51860428       0.10102881
I        9.15554859       2.25107211      10.17986486      -0.23456844      -0.04829719      -0.04100336       1.81699842       0.94822287      -0.67322134
H        9.04944376      10.45030297      11.24866756       0.50617565      -0.58209488      -0.14711420       0.12035224       0.04496188      -0.10333732
H        7.34520809      11.09761014       9.83677068       0.53305178      -0.13164075      -0.06948913      -0.07474659      -0.06867567      -0.05750086
H        8.06955734      10.26102569       8.32225561       0.52949926      -0.10602455      -0.59784795      -0.23239841       0.03138331       0.12054020
H       10.33111477       8.80768291       8.63095988       0.09278711      -0.04679121      -1.02329372       0.09203673       0.03663677      -0.16430843
H       10.95510444       8.91024488      10.30097700      -0.44607278       0.18781935      -0.57159244       0.28621512      -0.01867450      -0.04066241
H       13.13739074      12.26654233      12.81783068      -0.02711315      -0.08559680      -0.32895905       0.09770348      -0.17311734      -0.04742905
H       13.41360769      10.26555374      13.91218842       0.03989439      -0.41751932      -0.45624516       0.04077594      -0.24270187      -0.17248366
H       13.16509521      10.86327654      15.52170510      -0.05974534       0.42570299      -0.05912465      -0.14099436       0.22404969       0.10839315
H       12.38809749      13.25807203      15.59691310       0.16789217       0.35151378      -0.34109694       0.00555132      -0.06306159       0.07653015
H        6.58610978      11.63752504      14.43803678      -0.93637913       0.70568667      -0.00340874      -0.21837841      -0.15405499      -0.09573396
C        9.12113349       9.98418743      10.12875751       0.24485435       0.64188464       0.90012918      -0.32812116      -0.46649462       0.53927220
C       13.00898196      12.24560475      13.91619792       0.41797107      -1.46605545      -0.57702059      -0.23949167       0.02291018      -1.21486009
N        8.15652316      10.49056281       9.37886192      -2.59652489       0.43948504      -0.84750486      -0.27634771       0.40895728       0.69406560
N       10.16042875       9.15625696       9.61965314       1.10150347      -0.50259299       2.29788723      -0.40840198       0.42671028       0.26725240
N       13.24631680      11.07637486      14.50226410      -0.18913436       0.66001059       0.00629957      -0.65985663      -0.02894954      -0.55055456
N       12.68583946      13.34407563      14.52499772      -0.46886290       1.16162948       1.62845052      -0.90853341      -0.06471333      -0.28876741
Pb      11.00640718       7.34035895      13.90686170       0.45774019      -0.12477950       0.28932785      -0.64624412       0.44756643      -0.91313107
Pb       7.13822191       7.63206289      14.06483221       0.12400770      -0.34755946      -0.14580530      -1.50939594      -0.87013259       1.13253162
I       13.32426154       8.11825466      16.29211501      -0.12640439      -0.05867282       0.03018245       0.39735518      -1.07152023      -1.18635844
I        9.11404629      13.57605156      16.09121597      -0.34874876       0.16686283       0.21957233       1.96840274      -0.65447123      -0.87597285
I       13.17739215       8.56281179      11.83546620      -0.08603498      -0.05478874      -0.01538406      -0.10289526      -1.09664229      -0.01709654
I        8.86895134      13.26546857      11.70465424      -0.06505478       0.01255715       0.28473885      -0.35713253       0.06332547      -0.37042410