768
Lattice="31.52003920688824 -1.0395494997101957 0.3212732111417801 -0.9162685860741572 30.3547437254124 0.028757121508259497 0.35595936046071336 -0.14720492652102254 17.2635365134837" Properties=species:S:1:pos:R:3:forces:R:3:momenta:R:3 energy=-3646.356589712593 stress="0.0 0.0 0.0 0.0 0.0 0.0 0.0 0.0 0.0" pbc="T T T"
H        1.23955773       2.80477517       6.57510202      -0.09583567       0.42983317      -0.18067589      -0.09958106      -0.05787787      -0.01695996
H        3.28646040       1.93880981       5.96289545       0.24633177      -0.07162601       0.57868657      -0.11167964      -0.03737040       0.13156454
H        3.02909612       2.24939588       4.27838419       0.00167809       0.29103392       0.27045026      -0.02840358       0.07224911       0.19869716
H        0.99604039       3.75426424       3.66410948       0.19448870      -0.02236537      -1.20788816       0.00873667      -0.11619608       0.01854853
H       -0.12425153       4.01836892       4.97614383      -0.42435263       0.15818600      -0.11235438      -0.08144506      -0.06593460       0.07665252
H        5.62206306       5.94501952       2.60984566      -0.07491098      -0.56419906      -0.64002687      -0.08196780      -0.06425714       0.03780666
H        5.29661640       7.72774428       0.67937578       0.04164642      -0.68917106       0.06797230      -0.12768902       0.15947515      -0.00414768
H        5.35389716       6.39138868      -0.74709899      -0.11900611      -0.09375364      -0.51101317      -0.15129713       0.09569139       0.02037925
H        5.64857254       3.67488692       0.15490732       0.13028633      -0.33927337       0.06472721      -0.04359893       0.00938346       0.08694831
H        5.81820006       3.43275583       2.07844752       0.13325049      -0.03706547       0.35168800      -0.01337743       0.13767581      -0.05309185
C        1.56345363       2.97802245       5.51141525      -1.18314264      -0.02076240       0.48104023       0.22116855      -0.10272204      -0.17194611
C        5.55901856       5.55665472       1.41409293       0.10632144       1.41729815       1.30490877       0.42822705       0.13929629      -0.15826657
N        2.71004356       2.41385444       5.24518787       0.70696165      -0.43381578      -1.41502784       0.17287300       0.07336637       0.49229987
N        0.75082906       3.63787849       4.62987722       0.60334302      -0.33070033       1.74466508      -1.00273722       0.26071252       0.17248202
N        5.31866948       6.60167346       0.39497203       0.10020535       0.48596419       0.15786730       0.28277906      -0.38921230      -0.19984023
N        5.74062204       4.14207699       1.19324531      -0.24723494      -0.30256712      -0.87050187       0.03479598      -0.06025727      -0.20651195
Pb       4.00340111       0.24621199       1.11957752      -0.20292284      -0.31776851      -0.03616858       1.22616773       1.98587535      -0.46101701
Pb      31.53934769      -0.31714867       1.54409064       0.01849796      -0.25196458       0.10174481      -1.16665840      -1.43951893      -2.83871566
I        5.96681863       1.14952136       3.50318944       0.09258331       0.04007783       0.00222153       1.18129582      -0.27904704       1.77055499
I        1.22740491       7.02191307       2.56935230       0.32970506       0.08840782       0.19721763      -0.53051396      -0.91349071       0.10057637
I        5.93006501       1.92733635       7.70683777      -0.31471209       0.06482513      -0.11964374      -1.51038070       0.02007913      -1.85086915
I        1.57805487       6.40086527       7.23617006       0.07301145      -0.07161263      -0.31355668      -0.99496316      -0.38456075      -0.35389294
I        5.50300525       5.12940716       4.79649038      -0.00366158      -0.11329295      -0.07230063      -3.08151390       1.53288632       1.58755274
I        2.40028228       2.92305094       1.36044574      -0.11899750       0.45896751      -0.12215551       0.28557850       2.11467733       0.46492706
H        1.98967493      12.03484625      -0.04597448      -0.24862151      -0.02575513      -0.13087786       0.10474729      -0.08510553       0.03966366
H        1.51962689      12.38822230       2.21917188       0.11741607       0.34874922      -0.22447469      -0.06247773       0.14669716      -0.05880342
H        1.16521756      10.71919722       2.64719301       0.07977537      -0.81050078       0.32349624       0.08202622      -0.15064112       0.09348661
H        1.05313094       8.97427894       0.58670237       0.06860695      -0.24365079       0.34129998      -0.12746676      -0.02595490      -0.24001276
H        1.50423151       9.75260990      -0.96528694       0.01209355       0.34492741      -0.01160512      -0.16593540      -0.01651964       0.06291350
H        4.98522774      11.57574242       6.12560903      -0.43314653      -0.54319548       0.78069646       0.08764909      -0.00449796      -0.29006627
H        3.34459332      13.21074439       5.42681581       0.55482024      -0.04499884      -0.35855775      -0.04017185       0.11137139      -0.33626952
H        4.57636145      14.05723781       4.47154573       0.05774243       0.11523965      -0.17460513       0.11359331      -0.23852961      -0.28072611
H        6.92384646      13.05182019       4.40157137      -0.14590043      -0.22719770       0.38711192       0.14074313       0.02856260       0.00346297
H       13.36317850      14.83455531       5.44148240      -0.12843282       0.72826775       0.07490057       0.02693685       0.20251788      -0.13398058
C        1.60256597      11.11668149       0.61381496       0.20760181       0.06560120      -0.71883428      -0.00596747      -0.29763562      -0.51415411
C        5.26013393      12.37255119       5.47868606       0.42750029       1.43489712      -1.37215381       0.22551181       0.07710961       0.07809213
N        1.44292115      11.40584618       1.88023060      -0.23155604       0.29615236       0.35602981      -0.17042304       0.13822497       0.20752462
N        1.36754113       9.86632824       0.04921135       0.01567679      -0.08630569       0.29253117       0.61323269      -0.14004279       0.72435799
N        4.30099844      13.22983135       5.01036934      -0.06399808      -1.04131733       1.03667002       0.95155847      -0.64368019       0.51832874
N        6.56303172      12.39475778       5.11578863      -0.34966666       0.16703193       0.11773103       0.76666182      -1.05192679      -0.30259529
Pb       3.70008178       7.72311903       4.96919760      -0.52457982       0.06341604      -0.03981109      -1.39545384      -0.13453255       0.09784731
Pb      31.22083064       6.86065988       5.51345363       0.08200330      -0.12230395      -0.02716424      -1.10781335       1.06732126       0.45101152
I        5.08048621       8.86589423       7.51471804       0.21088056      -0.19505176       0.01368498       2.05220544       1.77295165      -0.40860455
I        1.34384170      14.18054664       7.41470020      -0.18472312       0.14267308       0.25459592       0.46470776      -0.67563340      -1.39018377
I        5.71213997       9.03594914       2.85256101      -0.00524274       0.03164445       0.12660974      -0.55806174      -0.46812464       1.59659488
I        1.27057984      14.55434579       3.77490682      -0.02669802      -0.08091985      -0.25458848      -0.16402667       0.50199872      -0.51549736
I        4.86690345      12.77783324       0.87134676       0.30131971      -0.14091850       0.09873514       0.54713081      -1.12000208      -0.18706557
I        1.78354444      10.44367862       5.40652153      -0.15865744      -0.27652692      -0.08637214       0.43140746       1.83055441       0.11259333
H        9.23055826       3.91826558       4.44674678       0.06323199      -0.16905171       0.59861351       0.05520260       0.09514863      -0.08424901
H        9.45547514       4.32783152       6.78943578      -0.09104189       0.78281532       0.48956000       0.01715796       0.05868799      -0.03177977
H        9.76846973       2.60701888       7.21940991       0.00841383       0.62103251      -0.19549983       0.09584030       0.21628418      -0.15563733
H        9.89413214       1.06223063       5.27951310      -0.01400034       0.29368073      -0.07296263       0.22101792       0.01014755      -0.06186154
H        9.45628155       1.70541756       3.67272072       0.21379867       0.39011989      -0.85141173       0.09555378       0.07529570      -0.06312143
H       13.45131137       6.37433815       1.67352474      -0.30197638       0.28919696       0.40421495      -0.12719636      -0.08889572       0.04450114
H       15.24572515       4.92286716       2.21623986       0.66473600       0.10952142       0.05733360      -0.00995037       0.06703601       0.00925265
H       14.67379958       3.74950700       0.98930281       0.34610972      -0.72561418      -0.08760848      -0.03702139      -0.08042036      -0.29878910
H       12.56068278       4.18443948      -0.11091189      -0.19809960      -0.84950283      -0.58448729       0.01618880      -0.08455193      -0.14252802
H       11.67614779       5.70593642       0.08767234      -0.15442143       0.26178726       0.05235190       0.01689681       0.03076434       0.17271948
C        9.49819872       3.10088425       5.20312209      -0.09477021      -0.06783317      -1.54792658       0.20560309       0.49393395       0.58057968
C       13.46881706       5.37212420       1.24543081      -0.45008497      -0.74177329      -1.01087130       0.54614943       0.26011142       0.29148686
N        9.58359257       3.36892231       6.50224657       0.11888776      -1.23403436      -0.00853775       0.40980602      -0.47836513       0.41301642
N        9.69515250       1.90173628       4.67437881      -0.20911186      -0.60012961       1.57458328      -1.02792908      -0.14716725       0.78777086
N       14.54938641       4.58809355       1.53628942      -1.89095024       0.83607324      -0.17377635      -0.53782359      -0.21779108       0.03871985
N       12.45126760       5.03612821       0.40499988       1.90766200       0.82079041       1.22247830       0.63077390      -0.11580116       0.15911960
Pb      11.65572345       0.15461400       0.96947051       0.17675785       0.14636489      -0.16586249      -0.32121506       0.50958366      -0.22005490
Pb       7.77911397      -0.24601940       1.04353081      -0.22464896       0.08714410      -0.19707260       0.18480825      -1.20309626      -0.39887226
I       13.48784158       1.32534873       3.32408921       0.03586360       0.08980343      -0.05373652      -1.10220106      -0.02262091      -2.94040522
I        9.35080612       6.58519067       3.23602601       0.28549399      -0.11678018      -0.04906757       0.33275027       2.04598759       0.49805118
I       14.01840830       1.82763483       7.53223635      -0.04810551      -0.12682329       0.24700447      -0.07503868      -1.53857726      -0.79905596
I        9.23958271       6.69631634       7.74878749       0.12855493       0.00983227       0.05307434      -0.58551128       0.13212313      -0.25408110
I       13.14261102       4.91770008       5.56046415      -0.04873030       0.16879014      -0.10585673      -0.84390657       0.69713168      -0.17017597
I        9.38430081       2.51961158       1.30869776       0.23552656       0.16095625      -0.26259525      -1.12181944      -1.50634339      -0.74804156
H        8.57799500      10.23141910       2.18110142       0.83569393      -0.21007455      -0.82853554      -0.15599521      -0.16541119      -0.10276293
H        7.51375132      10.89454581       0.28951554       0.42064385      -0.13458685      -0.06988841      -0.11284671       0.08093851      -0.14439421
H        8.88306160      10.71205014      -0.79388004       0.23078151      -0.07406065      -0.73108631       0.06634196       0.12667958       0.21745991
H       11.03481521       9.76484662       0.33574284      -0.25660510       0.13040665       0.57031970       0.07736330      -0.03562115      -0.06881595
H       10.90777732       9.54281476       2.05850047       0.47111775      -0.21426683       0.83581620      -0.11278598      -0.02318451       0.15969480
H       13.44827715      13.14072250       3.75661750       0.01462825       0.59865363       1.33562910      -0.13388053       0.19670349       0.23789552
H       13.59487653      10.81673724       4.39297003       0.01678289       0.19596453      -0.11100272       0.20278919       0.06038651       0.02729008
H       13.59918306      11.20994360       6.16455100       0.18910657      -0.13767584      -0.73053806       0.03365036       0.05636456       0.03722159
H       13.53130285      13.71045784       6.89756491       0.00319461      -0.14190553      -0.41312534       0.17319083      -0.00648272       0.27667358
H        7.28496056      11.74451653       5.58142074      -0.08940384       0.10420320      -0.24684043      -0.02999940      -0.13715834      -0.05895168
C        9.18821590      10.24289837       1.20455247       0.20389235      -0.26396351       1.37378293      -0.38730362      -0.22485931      -0.02032376
C       13.52411309      12.89724961       4.89948145      -0.11383040       0.56897398      -2.52187819       0.39608646       0.03597420      -0.80909541
N        8.50891700      10.64931629       0.15616884      -0.81038454       0.28305988       0.31600253      -0.00513849      -0.64958138      -0.17697151
N       10.46377291       9.83806972       1.20853864      -1.06514535       0.44477877      -1.37058650      -0.24657894       0.21343813      -0.39256949
N       13.67231396      11.58034651       5.13755027       0.07324311      -1.58944881       2.53592714       0.11735528       0.21732643       0.15020168
N       13.50747255      13.89773503       5.83794322      -0.12637852      -0.14078344      -0.13627442      -0.23618765      -1.31062438      -0.00912393
Pb      11.37491773       7.57514598       5.52648589       0.39306958       0.11405846       0.05604641      -1.46820612      -0.20565509      -0.20275281
Pb       7.44968157       7.73462746       5.33021574      -0.15912249       0.14942487      -0.02240459      -1.60519601      -0.34617920       1.90117526
I       13.74799791       8.96223978       7.64475882      -0.28011499      -0.25210057      -0.11795618      -0.38895063       0.97363332       1.94423157
I        9.30856707      14.10642699       7.08363394      -0.02646633       0.02919519      -0.07792752       1.88599374      -0.61550997      -2.14556862
I       13.50990605       8.78841063       3.20424528      -0.14682997      -0.19865396      -0.04442774       0.90885302      -1.03058566       1.75341583
I        9.36366658      13.41201830       2.55027859      -0.07054317       0.05846604       0.28684080       1.11771407       1.55439675       0.87758741
I       13.32463947      12.68506548       0.58374501      -0.06849174       0.13946390       0.28112761       0.93096728       0.21118391      -0.21186913
I        9.37984149      10.28391792       5.42714495       0.11758192       0.08314823      -0.00079418       1.26537413       1.03702823       1.86189868
H        1.74903078       2.73916121      15.51058985      -0.22235386       0.19323916      -0.10384923       0.10536220       0.09174004      -0.20671911
H        3.97139071       2.16135455      15.16140492       0.39810970      -0.04518513       0.19556941       0.17224158      -0.09427490       0.15115329
H        3.84973585       2.34848570      13.43224305       0.19148039       0.03011001       0.13794726      -0.00470556       0.20053001      -0.15007260
H        1.72664954       3.08182863      12.45332101       0.10211280      -0.04200911       0.41726433       0.17179632       0.18202824      -0.19300326
H        0.36750968       3.17894875      13.57869839      -0.24846661       0.26178060       0.26112994      -0.09454277      -0.09960989       0.07814643
H        6.04074973       6.59659879       9.94650319      -0.07489133       0.49004606       0.38586207       0.14325518      -0.18688646      -0.04171110
H        5.30724359       5.87067572       7.44142942      -0.13444156       0.02123460       0.46478950       0.11633940       0.05252003      -0.04138793
H        5.33467590       3.92138778       7.85288979       0.24587636      -0.89746891      -0.51932011      -0.01832805       0.06355443       0.10296090
H        6.48532043       3.24034308      10.51636054      -0.03667230      -0.30306564      -0.38644528       0.26629041       0.09685321       0.12718241
H        6.86914795       4.80803627      11.79728751      -0.37492866       0.08986222      -0.44890907       0.02788253       0.12081150      -0.01261260
C        2.17654517       2.77706624      14.49219913      -1.77178346       0.28898955      -0.81238982      -0.05522794      -0.51090438       0.17038367
C        5.95673467       5.37057750       9.65328683       1.01649937      -0.43301145       0.22494074       0.14313266      -0.15216832       0.00519722
N        3.41569873       2.44501213      14.35529760       1.17204696      -0.46640754      -0.55367298       0.01344472       0.33403572       0.21705006
N        1.40688439       3.09971554      13.44338180       0.31908722      -0.26407457       0.28224099      -0.51991924      -0.81127939       0.74608140
N        5.53148270       5.00508455       8.24643087      -0.68461068       1.06254345      -0.32475197      -0.28517732       0.46258619      -0.85099418
N        6.45997729       4.38746052      10.71153306      -0.04836814       0.25395129       0.79012104      -0.06419527       0.45788209       0.03976279
Pb       3.88318536       0.09720385       9.58488175       0.03887791       0.17097343       0.18061589       0.16803272      -2.78853144       1.62901716
Pb      31.39504679      -0.48806827      10.13156594       0.11485380      -0.01729911      -0.09325573      -0.76457999       0.74950092      -0.78669065
I        6.24526534       1.13721300      11.92142527      -0.26641044      -0.16706439      -0.17793038       1.01268481       0.82684153      -0.69206931
I        1.71821428       6.56349129      11.50898812      -0.04924646      -0.08926738      -0.15415372       2.62163324      -1.47580470       2.13745529
I        6.32479673       1.11965880      15.96738989       0.00850125       0.10604129       0.19216013      -0.05709793      -0.95829523       0.14926487
I        2.25607212       6.38481269      15.79500454      -0.09742793      -0.15334687       0.13924075       0.96416149      -1.61113138       0.24264039
I        6.11693827       5.14437382      14.24131044      -0.01762155       0.13558432      -0.25332652       1.79231960       1.46907152       0.93717666
I        2.15635318       2.92567864       9.65959933      -0.03623613      -0.18526974       0.04616698      -2.16220659      -1.14627798       0.08120903
H        1.42142808      11.30855916       8.30978346       0.35342302      -0.19453836      -0.21666371      -0.02917149       0.18635618       0.09345657
H        1.53246987      12.40229607      10.40450386      -0.18045378      -0.04842019      -0.08153393      -0.19582188      -0.00662767      -0.04623061
H        1.29339991      10.87037597      11.26630758       0.19013817      -0.78825932       1.04697015       0.07634801      -0.09963652       0.25790808
H        1.22768967       8.61617277       9.81434796       0.16513990      -0.21238719      -0.28765263       0.00073261      -0.01455945      -0.16322466
H        1.34807956       8.93725433       8.05483634       0.08583398      -0.41927079      -0.84145611       0.01287903       0.05415597      -0.04049703
H        5.20964046      12.12877058      15.11524676      -0.14224964      -0.11068348       0.24527326       0.16636875      -0.14869166      -0.12090698
H        3.72063566      13.94214593      14.69743710       0.23833270      -0.31149654       0.03558775       0.04990270      -0.14059382      -0.06017083
H        4.59308402      14.42233543      13.18907643       0.34601074       0.11573266      -0.11475805       0.05579225       0.03839710      -0.21059694
H        6.84397960      13.17331441      12.68371767      -0.80411836      -1.29012844       1.06563436       0.03635252      -0.31343918      -0.07358974
H       13.11669241      14.61049117      13.65723227      -0.08117631       0.54005325      -0.29722721      -0.04165653      -0.06968091      -0.09383294
C        1.41475899      10.65482816       9.20377849      -0.23552662      -0.93237135      -1.00785657       0.02032207       0.92429575       0.24520177
C        5.38317244      12.80976346      14.24809742      -0.24644814      -0.11374418      -0.34260593      -0.07872672      -0.39547814      -0.39906550
N        1.38947258      11.34012392      10.36049382       0.06624110       0.28577081      -0.56044362      -0.04453047       0.14579542       0.08272513
N        1.31634314       9.27992777       9.00010099      -0.41824166       2.42253775       2.09981209       0.78294284      -0.34782728       0.75653738
N        4.50352554      13.74040981      13.99371825      -0.53401274       0.37429032       0.14920959      -0.37276717      -0.37516426       0.52885325
N        6.45085706      12.54599354      13.46817276       1.24039096       1.05618466      -1.00009020       0.16545921      -0.09931752       0.10064911
Pb       3.96246445       7.74185863      13.55822718      -0.11108791       0.08394339      -0.02045080       1.47801479       1.62484958       0.80811133
Pb      31.44062933       6.65871721      14.30694779       0.21052146      -0.00389335      -0.17000954       0.70238443      -0.82077977       0.93846924
I        5.67455486       9.44476325      15.74292757       0.04299141       0.02047556       0.08602080       2.58775786       3.17836156       0.31438774
I        1.99745739      14.57096910      16.33903878      -0.34345692      -0.16091557      -0.06165776       0.30730744       0.40762788       1.55228016
I        6.17385079       9.03992500      11.50294694       0.01097118      -0.01734341      -0.06176475      -2.89718143       1.38971405      -0.03836097
I        1.16652145      14.50464162      12.14606511       0.05502128       0.07614433      -0.42487358       0.59244483       1.15330795      -1.55849305
I        5.06234261      12.71838843       9.33636991       0.07250766       0.08363148       0.00097969       0.52496011       1.30664791      -2.43644851
I        1.87331000      10.28551314      13.82635104       0.23982580       0.06110114      -0.03580566       0.96547196      -0.15966927      -0.84118082
H       10.03619033       3.58661136      12.94477602      -0.17222458      -0.93827432       0.65236104       0.02106722       0.03749823       0.02265211
H        9.32087074       4.29560573      15.06846080      -0.02448780       0.55515087       0.28892643      -0.04390889      -0.10724097       0.06649316
H        9.44635045       2.73887860      15.85582465      -0.14625576       0.24537032      -0.53968379       0.05521464      -0.12914400      -0.22208792
H       10.16398883       0.80752185      14.18693095      -0.01417571      -0.69224044       0.89381542      -0.04309037      -0.05195099       0.13840028
H       10.40633502       1.29904955      12.56514128       0.19674623      -0.28327933      -0.66199972       0.13687555      -0.06343559      -0.00668866
H       13.83660441       6.34523951      10.61977927      -0.01548379       0.71246166       0.37323273       0.02481433       0.14045974      -0.08245531
H       15.84330979       5.07561438       9.79936407      -0.23868154       0.07944058       0.14931961      -0.00391062       0.08327496      -0.13183984
H       14.80454548       3.98557528       8.84000373      -0.25038389      -0.01163347      -0.08494183      -0.21700761      -0.08437590      -0.19616876
H       12.34548968       4.46809350       8.76015715       0.36228133      -0.43106586      -0.07210992       0.11932986      -0.02042808       0.05187664
H       11.69966657       5.79328146       9.70332716      -0.00445277       0.05545496       0.26690574      -0.19778690       0.07841762      -0.06986992
C        9.90677801       2.82304387      13.77846406       0.12858952       0.63581111      -0.14202406      -0.88373876      -0.47673930      -1.32639071
C       13.73569356       5.50613472       9.91877228       1.34781502      -0.77355211      -0.04305418      -0.14184417       0.54910277       0.55431119
N        9.43220389       3.29039947      14.96738150       0.25931195      -0.46037726       0.30181281      -0.08861498       1.00641499       0.28735880
N       10.26867621       1.55831435      13.52661859      -0.26621299       1.17785925      -0.77750527      -0.44613856       0.25536794      -0.35758997
N       14.84535457       4.79378764       9.51903408       0.81013990       0.09134350       0.25077006      -0.67443331       0.36005663      -0.31600095
N       12.52529267       5.19654749       9.49857729      -2.09415614       0.19878912      -0.90653224       0.00306195       0.15637508       0.51159430
Pb      11.92135267       0.09743986       9.47126125       0.27861017      -0.16705524       0.04566810       4.45025098      -2.08841355       1.69897399
Pb       7.86614815       0.03312725       9.33929289      -0.08172166      -0.31925149       0.18403568      -0.82958321      -0.39411174      -1.41059326
I       13.82400950       1.48056556      11.83467912      -0.08741281      -0.26698622      -0.04445875      -0.52039094       0.51313085       0.15023083
I        9.89848100       6.63788021      11.65831654      -0.19643509      -0.09787327       0.21308017      -0.30479249      -1.92850578       1.77785523
I       14.42146831       1.77995714      16.27022183      -0.26383804      -0.16248746       0.26636229      -0.49487338      -0.20154274      -2.34092273
I        9.78287674       6.62621558      16.35549833      -0.15383731      -0.05021398       0.03889152      -2.62528690       1.26287448       1.83423831
I       13.17462206       4.99297675      13.74487387       0.24752067      -0.04381028      -0.01453817       0.34353265      -0.30030600      -0.26066632
I        9.89516712       2.48145550       9.81020740      -0.04950353       0.18478007       0.19647694      -2.93815509      -0.81185738      -3.94078491
H        9.51536208      10.23670127      11.04165268      -0.26182873       0.10183887       0.92201322       0.07814010      -0.00535765      -0.18037036
H        7.77182055      10.58713526       9.45807432       0.54352220      -0.16379895      -0.07853367      -0.04933174       0.00983145       0.03057485
H        8.93745735      10.70936047       8.10173957       0.43966235      -0.29709430      -0.39371036       0.14600211       0.24090324      -0.02247973
H       11.44871727      10.30985986       8.61339165      -0.23500219       0.11848397      -0.40306065       0.08538007       0.08773691       0.07220250
H       11.84462333      10.07742045      10.26888805      -0.00915482      -0.00611282       0.08718859       0.04774445      -0.08816530       0.04263081
H       13.18035676      12.41252547      12.79205878       0.17285274       0.11812098      -1.14413658      -0.03041438       0.05142089       0.12688487
H       14.35883245      10.74281466      14.16315356       0.02726724      -0.58453077      -0.39327334      -0.05425469      -0.15656774      -0.04566770
H       14.73953261      11.83883189      15.52978753      -0.01758444      -0.10931004       1.09975303       0.13287944       0.19300250       0.12160509
H       13.87290179      14.11834626      15.27669699       0.02429273      -0.01168869      -0.64298327       0.06053755       0.02493214      -0.03559479
H        7.02702280      11.73855237      13.74028780       0.01065469       0.24089435      -0.07438051      -0.04215613       0.07788289      -0.00898561
C        9.77724219      10.36780365       9.99527261       0.57162226      -0.55096460      -2.06251692       0.01317478      -0.20319485      -0.73822504
C       13.68445019      12.65198493      13.80485460      -0.40250550       0.59459937       1.39758275       0.60657059      -0.21303993      -0.17276859
N        8.78198659      10.52425993       9.11690143      -1.94718970       0.84824231       0.65875469       0.44481492      -0.53028886      -0.60461362
N       11.08176631      10.27492266       9.57500307       0.64975089      -0.28148322       1.26126173       0.67074788      -0.14515706      -0.05668862
N       14.32643818      11.68061968      14.54782856       0.09429126       0.04764829      -0.68287476       0.30466478      -0.14935539       0.33257162
N       13.51007153      13.87460541      14.28613620       0.15921488      -0.71069883       0.48022489      -0.74145832       0.17469578       0.57967571
Pb      11.70311869       7.68967430      14.06922285       0.10762622       0.17889461       0.06621206       1.86669192       3.07874961       2.57719213
Pb       7.87119554       7.97399705      13.89406778       0.06605652      -0.18579441      -0.07765865       0.27478383      -1.01665102       0.25229331
I       13.94825941       8.53606591      16.36761808      -0.02531069      -0.14926841      -0.24521213       1.43986441       0.00029564       1.01506306
I        9.70914605      14.44770459      15.48974430      -0.26547218       0.02265472       0.26617023       2.25944597      -0.24566801       1.77776875
I       13.70982023       9.03112081      11.89973174       0.05704741       0.16469046      -0.04320207      -2.71189170      -0.71494943       1.22542798
I        9.54007743      13.68447144      11.31533061      -0.30254247       0.11632402       0.03057471       1.54801321      -0.96095988       0.16278254