768
Lattice="25.244031463055336 -0.051139010145229986 -0.15563925591508607 -0.008975214029691772 25.575374942549175 -0.11406019386377196 -0.3474594723078396 -0.009706484009668169 25.26731789926129" Properties=species:S:1:pos:R:3:forces:R:3:momenta:R:3 energy=-3643.8285921968563 stress="0.0 0.0 0.0 0.0 0.0 0.0 0.0 0.0 0.0" pbc="T T T"
H       10.38516706       9.30969706       4.64378987      -0.30576018       0.16415196       0.35870289       0.04735523      -0.14584518       0.07856233
H       10.03283900       3.05611847       3.00379620       0.42298841      -0.26116044      -0.38081909       0.03657237       0.04366339      -0.14283080
H        8.82779409       3.22387681       9.39312952      -0.21863114      -0.49797069       0.12868137      -0.14102886      -0.04623788      -0.12845542
H       11.08920316       9.85157686       9.96227963       0.15161164       0.14453571       0.03097227      -0.06059333       0.06439292       0.09879152
H       12.31722158       9.93127906       3.61464989       0.95619450      -1.20887168       0.50557360      -0.10493984       0.13943796      -0.03674324
H       11.77079140       4.73638409       3.12659706      -0.09416846       0.18731055       0.31820464      -0.09424673      -0.01205720       0.14891037
H        2.11189353      11.48636177      11.13444347      -0.13957407       0.06823431       0.08773628       0.00752373      -0.13650243       0.16102547
H        9.67301600       9.82750867      11.86831711      -0.24465468       0.66665402      -0.69631075      -0.19394854      -0.09505896      -0.09859255
H        4.61514141       4.87672218       2.01459707      -0.06223026      -0.15811396      -0.12608916      -0.04240075      -0.08924066       0.06164744
H        3.34611597      12.17851522       2.98556945      -0.40195327       0.27250933       0.10976429       0.16343285       0.09502221      -0.16199887
H        3.00303489      11.99784229       9.58196154      -0.36182372      -0.48851081       0.66067556       0.05928319       0.05755655       0.10547685
H        8.54673705      11.07415457      11.14509533       0.46601666      -0.66820542       0.00708203      -0.04950652       0.26534808      -0.07526297
H        4.41808220       5.42618026       4.40923568      -0.24882151      -0.28430191       0.15613195       0.02750312      -0.16539421       0.08227671
H        2.97793501      11.05164713       5.28460573      -0.71545284       0.44833142       0.09728387       0.07426750       0.05016405      -0.01155249
H        5.07223748      10.50825678       8.85413085      -0.14304177       0.06749365       0.22358500      -0.06887625      -0.06163527      -0.06978875
H        4.52983524       5.62759138      10.74333902       0.15259727       0.03093448       0.15344451      -0.05387400      -0.13317592       0.16735482
H        8.36126550      10.38731693       4.23749903      -0.51740433       0.78740221      -0.31346162      -0.26546195       0.07395204      -0.11705146
H        3.80504861       9.50976255       5.49138548       0.07193325      -0.47604266       0.80415219      -0.04834488      -0.00003219       0.04519204
H        8.77136462       4.80174277      11.23527678       0.45007919      -0.12712830      -1.16792791      -0.06101486       0.09069842       0.11713659
H        5.60905748       4.86688276       9.53795293      -0.06781827       0.19879492      -0.02834024       0.09355487       0.08099580      -0.01150380
C       10.34115233      10.15981606       3.94118376      -0.93127424       0.23844454      -0.23949812      -0.64064531       0.76268612       0.50428075
C        4.23579706      10.46136194       3.74562513      -0.44675851       0.35623874       0.40538543       0.29496955      -0.22128268       0.26920837
C        3.81815050      10.47688938      10.68742766       0.02671426      -1.22414825       0.60619577       0.04849713      -0.54790978       0.54461775
C        3.68275957       4.17088893       9.53647311      -0.08918207      -0.38883824      -0.19283234      -0.33117141       0.08777994      -0.75375705
N        3.98934535       4.06727487       2.16478203      -0.14197880       0.94558496       2.22546237       0.00985504       0.36836498       0.45284151
N        4.02172153      11.42949760       2.84983746       0.23841376      -0.74565443       0.60439569       0.78715365      -0.30282310      -1.10358412
N        2.91343950      11.40509371      10.48546275       0.43593049       1.28525657      -1.64016208       0.10799745       0.95727966      -0.40692268
N        9.39081528      10.45417501      11.06419762       0.19069206      -0.00363831       0.29499340      -0.25507621      -0.03307129      -0.24821479
N        3.83440787       4.56368144       4.51955093       0.48858774       0.30010733      -1.49003337       0.17222881      -0.09695014       1.10912435
N        3.61573009      10.34119749       4.92431206       0.79770964       0.09878087      -1.34591050       0.21138171       0.19602327      -0.09662916
N        9.49973900       4.87028224      10.46773683      -0.11799887       0.02791061       0.29270423       0.24226944       0.22486876      -0.38240757
N        4.68662093       4.92478983      10.00500971       0.15516011       0.00081131      -0.36115769       0.56132956       0.18453221       0.60347107
Pb       6.53109654       1.07044245      13.07748193       0.16561861      -0.01329324      -0.09688795       0.71197087      -0.27913685       1.66464341
Pb       0.50465332       0.86576041      12.97070507      -0.31024417      -0.07403305       0.08218803       2.77763511      -2.62036972       1.99070723
Pb       6.84291446       7.58356606       6.84061866       0.00116196      -0.22087004      -0.07030002       0.33790042      -0.86216792      -1.16099707
Pb       6.83335703       1.22201052       6.74256888      -0.09659983      -0.11368659      -0.05182885      -1.44600291      -2.09430527       0.56409464
I        9.73359326       0.77894365      13.66451482      -0.02445915      -0.03863446      -0.03279449      -0.10096789       2.73306980       0.55022601
I        3.52074193      14.11419887      12.49972289      -0.10325207      -0.05469656       0.13536085      -2.08115867      -0.72822070      -0.58303268
I        3.69201231       0.77626372       7.25577064      -0.04937768      -0.02907154      -0.09414797      -1.53005885      -1.88183457      -1.20896412
I       10.06202950       1.21227457       6.05829465      -0.24911024       0.05406236      -0.01182674      -0.75988724      -0.20863773      -2.56874597
I        6.62397309      10.61598074      13.53253089      -0.22229694      -0.02846847       0.02423384      -1.08962974      -0.19000199      -0.17623572
I        7.24780357       4.10340860       0.08666909      -0.00347078      -0.07123754       0.10228132       0.06406619      -0.99705188      -0.48877448
I        6.81552898       4.24381568       7.05003640      -0.11592749       0.19555682       0.15474559      -1.37116527       0.22014370      -0.50412100
I        6.86917195      10.67703350       6.73545029       0.18602746      -0.27430781      -0.18820823      -0.67167890      -2.16348565      -0.73962107
I        6.35394072      13.87476605       3.59160383      -0.04160485      -0.00291710      -0.22951903       0.49376835       0.90537305       0.49454870
I        1.07002928       0.93936210       3.44123051       0.10350762      -0.16761312       0.20730923      -0.49947090      -0.53368991      -0.16952429
I       -0.00695117       1.17903380       9.76859701      -0.00038686       0.05537526       0.12405275       0.12573708      -1.79212426      -0.64199004
I        7.32713107       0.76144619       9.88740729      -0.04272534       0.14988102       0.14352008      -0.39560409      -0.38495600      -0.35552954
H        2.86233329       3.02535132       3.60744080      -0.69258195      -0.73791840      -0.01359892      -0.01436310       0.06038789       0.02840740
H        5.00202981       9.69973183       3.54995037      -0.09484226      -0.05910706      -0.34708113      -0.03449481       0.06135378       0.08035783
H        3.57301370       9.90575258      11.63464098       0.54506793      -0.27100878       0.18525165       0.17421430       0.08808339       0.05801212
H        3.82313133       3.49981049       8.67517272       0.45332153      -0.19848810      -0.01724014      -0.04685237       0.05443576      -0.15136459
H        3.91698459       3.39948383       1.38928879      -0.46939113      -0.33383489       0.09299136      -0.07543503       0.04187304       0.07971960
H        4.55140425      11.39187580       1.98599119       0.37940060      -0.00441906      -0.41835783      -0.01180211       0.04209353       0.07853259
H       10.59720503       3.22213283       7.72794766      -0.18936760       0.47609951       0.74686536      -0.16309701      -0.02431856       0.06234332
H        1.72682299       3.46011054       9.80210613       0.60019739      -0.00420156      -0.62327257      -0.14274250      -0.05678604       0.15691088
H       11.66145480      11.08885203       2.62051294      -0.43769184       0.66345230      -0.17644754       0.17863252       0.00464907       0.02731360
H       10.64622145       5.81259801       4.15486557       0.55915605       0.57476545       0.12115456      -0.11273913       0.15875872       0.09829786
H       11.27829363       4.66568525       8.40847584       0.55446945       0.54427965       0.15888679      -0.06657031       0.02056039       0.00061342
H        2.07660939       4.80281904      10.76803473       0.75800742      -0.49962429      -0.57872960       0.01450424       0.03308444      -0.02859087
H        9.12598475      11.46070132       2.90391322      -0.55999416      -0.00187219       0.44623873       0.10395936      -0.00405194      -0.04074218
H        8.33269025       5.19216756       4.49614350       0.14932431      -0.38906754      -0.50569200      -0.12182411       0.01366208       0.13779558
H       10.17426947       5.65603956      10.54526936      -0.16663195      -0.33573313       0.00835909       0.28120033       0.07731756      -0.05437338
H        8.94239019      11.74858484       8.87329305      -0.01994480       0.34207503      -0.13066022      -0.11253445       0.01741445       0.04816605
H        3.21015907       4.48887870       5.29299888      -0.41487338      -0.07961787       1.01739056      -0.06433671       0.17997864      -0.00436277
H        7.93485035       3.60796324       3.78251327      -0.42537214      -0.42145028       0.10461330       0.11232700      -0.01517136       0.06332397
H        5.57159329       9.40553348      10.07817968       0.08443109      -0.93538355       0.56873886       0.10578044      -0.05064731      -0.10451528
H       10.58868130      11.20986057       8.14631640      -0.81168719       0.21422931       0.75251084      -0.06112658      -0.13254597      -0.14306861
C        3.52325032       3.84918428       3.44172539       1.40452090       0.54113809      -1.68018998       0.29417055       0.66039640       0.74705582
C        9.88467337       4.04317475       3.51861565       0.52027197       1.27185399      -0.06854050       0.32445211      -0.09445775      -0.03222915
C        9.61111442       3.97942078       9.44372786      -0.19400815       0.62282039       1.34754558       0.33426771      -0.16524655       0.29329043
C       10.17991597      10.49847562       9.98291152      -0.72160745      -0.64439879       0.80836214      -0.58249613       0.47947972       0.75719234
N       11.50628437      10.47187389       3.40914669       0.68271774       0.47426944      -0.89707430      -0.19898159      -0.01756685       0.21421254
N       10.86577431       4.95859688       3.60185634      -1.29546287      -1.67286314      -0.38244179      -0.12109386       0.01236316       0.16629348
N       10.57960206       3.95010459       8.50184772      -0.08054532      -0.84452294      -1.40816983       0.24696044       0.07359253      -0.92264021
N        2.46547195       4.14610440      10.02438938      -2.03920418       0.79244251       1.65861507       0.39296503       0.13087237      -0.09090749
N        9.14349159      10.72835553       3.63236444       1.15046203      -1.19517698       0.44656056       0.11722617       0.38881781       0.10904716
N        8.63743209       4.31522442       3.95290402       0.28747818       0.63358229       0.65124675       0.81617570      -0.45417326      -0.31531673
N        4.88198447      10.10251105       9.85679761      -0.51360087       1.53541036      -0.87403942      -0.17459952      -0.04731383       0.01524719
N        9.82801407      11.17229409       8.90340676       1.11139493      -0.19977797      -1.09901051      -0.47433482       0.49006918       0.83406783
Pb       0.28350181       7.24401421      13.32855068      -0.17589377       0.07320596      -0.43404455      -0.90040010       1.18034139      -0.84636484
Pb       6.57495745       7.45796995      13.15559497       0.13428543      -0.10167927       0.22982960      -4.40228400       1.40605982      -3.31268789
Pb       0.38620981       0.99004465       6.70984381       0.19719582       0.09710823       0.03455447      -0.99765095       0.73633148       1.43208846
Pb       0.50141505       7.36532520       6.91730607       0.06038477      -0.07055525      -0.23627825       1.17750024       0.77402279       1.47348984
I        3.48099886       7.03138642      12.94787844       0.06906965       0.02431534      -0.22670301      -2.23184922       0.81474065       1.52582722
I        9.84133681       7.52818317      13.40235445       0.15537617       0.06759564      -0.00986620      -2.33287973      -2.40110827      -0.53302741
I       10.11772606       7.11444946       6.46277562      -0.03204476       0.07288442      -0.05697020       0.64297134      -0.30116167      -0.02126925
I        3.69774725       7.62884407       7.29844227       0.16208355      -0.11946892       0.01881103       0.20780920      -1.23883360      -0.77566430
I        0.16735328       4.01476827      13.07000259       0.08510402       0.00945104      -0.09065255       0.55226157      -1.51989824      -0.00721854
I        0.48892886      10.58351262       0.49738670       0.25581145       0.26451298      -0.25569816       0.29598496      -1.29559789       0.26224194
I        0.65713250      10.43052555       7.16097342      -0.11929202       0.28203686      -0.02110150       1.99561626      -0.21562934       0.89250320
I        0.84919850       4.14202439       6.81825397       0.11139854      -0.13171327      -0.19821679       2.05972249       0.91150603      -1.22501009
I       13.87887536       7.38836427       3.63833311      -0.07443978       0.23653092       0.04733466      -0.86290394       1.73657142       0.19594073
I        6.32336137       7.10367636       3.61234435      -0.02924255      -0.00675370       0.16095630      -1.53834277      -2.39580542      -2.05618240
I        7.17774066       7.36193085      10.03505175       0.03375593       0.09302432       0.00968431       0.23442964       1.54246866       0.59956971
I       -0.16275081       7.17569904       9.95405410       0.01003687      -0.12188835      -0.04533284      -0.82510567      -1.75310489       0.24096952
H        9.74514550       9.56655442      17.41773866       0.12019691       0.74508252      -0.72399661       0.10338363       0.07138323       0.14736455
H        9.73368157       3.13509053      15.16211915       0.00067644       0.44361442       0.29833005      -0.08395509      -0.15228402      -0.02199953
H        8.66241744       3.16524961      22.64311364      -0.90408238      -0.45646531       0.35720121      -0.11421358       0.08337052      -0.01282106
H       10.65805326       9.29046782      22.44114363       0.06312618      -0.21823348       0.05972998       0.17352667      -0.08225484       0.06574768
H       11.63578151       9.43030948      16.19319556       0.02761684       0.42710503      -0.11752901      -0.07955221      -0.03058911      -0.03304352
H       11.10805809       4.99725850      15.36184631       1.27214246      -0.14480684      -0.61032902       0.13185403       0.29308667       0.04528725
H        1.62854439      10.85799697      23.47788017      -0.02869256       0.25424195      -0.06355677      -0.11361538      -0.03031565       0.11457110
H        9.75958744       9.34781200      24.64893477       0.01896543       0.17448222      -0.35198976      -0.02954808       0.16447745       0.02427321
H        4.50003606       4.46700806      14.96309993      -0.17928556      -0.05007968      -0.03156842      -0.14616227      -0.05535588       0.04290893
H        2.56913489      11.65135388      15.75831285      -0.04088973       0.42514383      -0.24460924       0.00261633      -0.02505806      -0.10807602
H        2.28213939      11.67636752      22.07551491       0.20603527       0.77095160      -0.79355654       0.03110805       0.12250095       0.02499819
H        8.81146477      10.81039704      24.42817414       0.62170970      -0.30399145      -0.51913372      -0.06977777      -0.20855694      -0.19200130
H        4.18116865       5.45752057      17.25001645      -0.09877175      -0.04099827       0.07493782      -0.01402507      -0.09488477       0.06956191
H        2.48046570      10.42011959      17.94336676      -0.00548837       0.12066364      -0.04646433      -0.07577764       0.03004009      -0.06449877
H        4.60633102      10.83907265      21.39893331       0.02302757       0.54356116      -0.59737862       0.01895083      -0.15787578      -0.03209944
H        3.85299988       5.61683202      23.10552597       0.58093422       0.64154892       0.37206083      -0.27032472      -0.01823281       0.20332084
H        7.98703913      10.96949067      16.82552989       0.63898104       0.16175097      -0.48295058       0.07493867      -0.03697450      -0.02423857
H        3.73281287       9.22714931      18.27909741       0.21594048      -0.34718961      -0.04919038       0.24676001      -0.29731979       0.09469000
H        9.26025507       4.72752129      24.34022023       0.20681663      -0.08260343      -0.20496522       0.05319662       0.08471381       0.03337614
H        5.19552280       4.73192559      22.14985000       0.40536978      -0.07819122      -0.33298469       0.10990429       0.02605309      -0.15659285
C        9.86413948      10.28088257      16.54147280      -0.07720356      -1.54124029       1.14777828       0.14373363       0.14546444       0.01627432
C        3.93778144      10.18803537      16.39628095       0.60055836      -0.57310838       1.59863179      -0.71690070      -0.18575056      -0.15514483
C        3.43392026      10.26520741      22.99126998       0.73692352      -1.02543539       0.05079344      -0.47976206      -0.36221851       0.42579669
C        3.35683221       3.80495358      22.28013910       0.67834177       0.31823254      -0.34728220      -0.07061788       0.29831690       0.60915450
N        3.65235900       3.91511164      15.21584078       0.03083825      -0.91380214       0.01621495       0.31393357       0.67143575       0.05983069
N        3.48729102      11.10771166      15.53753932      -0.52194714       0.00341611      -0.14419267      -0.38462991      -0.16268151      -0.44606254
N        2.38797755      10.97569692      22.78732462      -1.86450724       0.18808882       1.01430818       0.15860686       0.08548978      -0.62250944
N        9.51987994      10.13582872      24.00083773      -0.21807946      -0.19010854       0.18594003       0.69272155       0.85945838       0.42373609
N        3.43539360       4.74462318      17.37715275      -0.06587937       1.49312113       1.90236256      -0.72115523       0.51931836       0.22909849
N        3.40823638       9.97391288      17.63471258      -0.41945580       0.33419763      -0.59834472      -1.55182149       0.67198822      -0.40034101
N        9.91775957       4.61079900      23.52860829      -0.10090807       0.03957076      -0.09212155      -0.19184854      -0.07286897       0.16880481
N        4.24403888       4.76869367      22.55469807      -1.66965118      -0.45385049       0.37997295      -0.23326832       0.29461477      -0.85307567
Pb       6.93912059       0.97786129       0.37480627      -0.11623552      -0.09664143       0.04670058       1.46681115      -1.18801899      -1.46207527
Pb       0.68533187       1.10358133       0.36122883      -0.10680895      -0.11471398      -0.20741466       1.79338089       1.24344160      -1.26897202
Pb       6.65364314       7.30905916      19.48049102       0.09849727      -0.29366818      -0.04126523      -2.87810473       0.81226078       0.18192835
Pb       6.67180486       0.91651693      19.38002514       0.01143768      -0.12429366       0.17052815      -1.01026462      -0.07468249       0.44533652
I        9.99627886       0.69607748       1.18288445       0.25850545      -0.04196010       0.05019250      -0.23905544       0.24873454       1.43993578
I        3.42137136      14.06029198      25.05823331       0.44308342      -0.02018779       0.15102639      -2.64129071      -0.19590449       2.34450449
I        3.52561080       0.68677697      19.98233838      -0.13696760      -0.06847900      -0.06469448       0.55361942       0.96584564       0.77547148
I        9.75704910       0.73739565      18.73558101       0.09713309       0.23282529       0.12251234      -2.16242269      -0.31922730      -0.28422990
I        6.57474031      10.38592220       0.48735440      -0.01676324       0.24484287      -0.03516155       1.16194820      -0.94576474      -0.83124773
I        6.84340509       4.12395227      12.94306503       0.02464495       0.24807108       0.06903618      -0.93024047       1.40794884       0.51051248
I        6.34225486       4.04174461      19.83008664       0.18037567      -0.07664404      -0.11359799      -0.48518902      -0.86608902      -0.99257811
I        6.90721914      10.36231953      19.21976421      -0.02483232       0.20007707      -0.00122782      -1.99082346      -0.22662605       0.56257115
I        6.03792871      13.79564347      16.14768753      -0.09257436       0.01964689       0.36320444       0.72461318       2.72033963      -2.15304199
I        0.91804607       0.75717386      16.17696901       0.23754615      -0.24731787      -0.10025993       1.98003890      -0.35868085      -1.03316857
I       -0.30084761       1.04413144      22.45971383       0.02187288      -0.15514088       0.03517935      -2.79174211       1.87984638      -0.05606718
I        7.35035015       0.53065490      22.61758807      -0.01669296      -0.03552852      -0.25422112       0.75033251      -2.26905441       0.73934233
H        2.32656481       3.16487348      16.57692065       0.11826921       0.44366344       0.29278986      -0.01641868       0.04610637       0.05065378
H        4.89605980       9.60203831      16.15396393      -0.27820777       0.14629779      -0.14459813       0.11877402       0.06804106       0.06327604
H        3.39424928       9.58166427      23.85297066       0.14664951      -0.21369325       0.07474862       0.05027169      -0.02202266       0.25272160
H        3.75129819       2.93008311      21.69037248      -0.06601415      -0.62441597      -0.40937540      -0.06437469      -0.04448703      -0.08918621
H        3.49237406       3.02285793      14.64531737       0.10768120       0.80466490       0.25663456       0.00378777       0.08184125      -0.02603099
H        3.99865362      11.24396343      14.64643360       0.30773814       0.04206445      -0.52832411      -0.07437473       0.00684402      -0.06759187
H        9.86469957       2.95245724      20.70500689       0.08156412       0.35892351       0.42863696       0.08299949      -0.10112517      -0.08906682
H        1.54377543       2.95463222      22.54539244      -1.36032831      -1.02155487      -0.44644794       0.11125795      -0.06495343      -0.02574246
H       11.30889058      10.74868343      15.06183847      -0.25921458       0.19735338      -0.04296265       0.00527228       0.13200752      -0.18530704
H       10.32754145       5.59550287      16.79866972      -0.19181958       0.68425524       0.53890214      -0.05765936      -0.11589591       0.11053234
H       11.12038503       4.12559995      21.16018951       0.07339893       0.29613818       0.08503489       0.10914970       0.09574482       0.06454656
H        1.65621120       4.62524627      23.21985040      -0.22355479       0.03452282       0.08631071       0.01305115       0.13998313      -0.09576029
H        8.91323240      11.67361734      15.45471864      -0.30387636       0.60660521      -0.36746852       0.00181034      -0.14208406       0.12387789
H        8.16268802       4.25590447      17.50649069      -0.12831891       0.14455555       0.03702274       0.04754518       0.08272005       0.11787899
H       10.76134860       5.25111720      23.41130506      -0.33957212      -0.26175531       0.01735041       0.07122511      -0.12608130      -0.11906674
H        9.05807409      11.86066159      22.03528527       0.94573309      -1.02318131      -0.20210117      -0.04541891       0.15839261       0.04645124
H        2.80453383       4.80203198      18.20679614       0.33276064      -0.03750303      -0.16530820      -0.01742133      -0.02591584      -0.05810837
H        7.80599310       2.85126830      16.53274284       0.00662073      -0.13833153      -0.08925517       0.12786628      -0.03522128       0.10104763
H        5.18479324       9.56068944      22.35783305       1.04749663      -0.82340890       0.35652785      -0.12766768      -0.00715512       0.19908490
H       10.15259266      10.90131894      20.92093569       0.34471034       0.20166635      -0.65817550       0.27793164       0.01447924       0.22338015
C        3.10688825       3.94177346      16.44016084      -0.12983297      -1.74923444      -2.53798183      -0.05560008       0.25349455      -0.53407024
C        9.53696979       3.88595896      15.96623421      -1.39124293      -0.79557314      -0.43745000      -0.48174179      -0.12004614      -0.40303350
C        9.51809600       3.81182573      22.53658366       1.02707656       0.68181419      -0.07055645       0.76817122      -0.62408057      -0.19491288
C        9.97022797      10.11001122      22.73059520      -0.34895854       0.05239185       1.34370169      -0.07703641       0.49504087       0.21950036
N       11.02202767      10.23740024      15.92851008       0.80939583      -0.72450785       0.02450498       0.18709875       0.03548010      -0.11323374
N       10.39366712       4.89311789      16.07866741      -0.51506667      -0.31478823       0.21385464       0.36337152       0.10507970      -0.50244689
N       10.18006740       3.67856421      21.38977999      -0.24561633      -0.63909084      -0.74011177      -0.36532719      -0.41230604       0.22635708
N        2.03326478       3.86297118      22.60824468       1.58063029       1.27621876       0.66583198      -0.20083088      -0.61968026       1.06046092
N        8.83509001      11.01038829      16.22266196      -0.84221804       0.16694466       0.49454076       0.52591197       0.43675773      -0.38655658
N        8.40458703       3.68253347      16.68530513       0.93787445       0.10920173       0.03177311      -0.05906468      -0.24765863       0.71417838
N        4.49342917      10.24688928      22.20878144      -0.22617048       0.23747924       0.11568441       0.87402417       0.11766785      -0.18300693
N        9.70545898      11.02357825      21.82996282      -1.41789008       1.33355063       0.01756708       0.36068363      -0.11947344      -0.29172236
Pb       0.51571451       7.39532967       0.61137257       0.03287861       0.13822354      -0.00029275       0.30622684       1.70424936       0.34594824
Pb       6.85574636       7.11840735       0.40775815       0.05847913       0.30833377       0.05418561       1.68984861      -0.52646110       3.99307185
Pb       0.33895860       0.82987277      19.35335655      -0.09485490      -0.09678323      -0.03847519       2.33661986      -1.99563557       2.68664902
Pb       0.37624356       7.15084153      19.55366053      -0.20912405       0.14283504       0.05021629      -1.28960660      -0.30539609      -2.79030622
I        3.28787106       6.94382542      25.03452781       0.17018041       0.12216569       0.16392531      -0.05179816      -1.17405729      -1.28744341
I       10.04366423       7.72176212       1.20779217       0.06226625      -0.15073524      -0.04634178       1.56589912       1.92529080      -1.10256505
I        9.64944144       7.09413220      18.89412970       0.35382236      -0.08691041       0.04419270       0.06445824       1.67846788      -0.44164223
I        3.39919383       7.48389227      19.95539642       0.00579665      -0.11475377       0.12293171       0.77363597       0.74501813      -1.54663054
I        0.32074331       4.27791892       0.46370292      -0.03585759      -0.35941631       0.08055441      -0.73326583      -2.48621939       1.13147971
I        0.56844128      10.45965385      13.10806565       0.04474463       0.02439082      -0.17410575      -1.93278494      -1.32006615       1.12498070
I       -0.03489428      10.36616999      19.56946259       0.09926381       0.08427027      -0.07622355      -0.75679397      -0.09642164       1.22901092
I        0.60081054       4.00381187      19.26123075       0.00495165       0.07164913      -0.04040131       2.23277220      -0.00864070      -0.01886083
I       13.37724287       7.37337145      16.20050006       0.09071253       0.07054680       0.06240552      -1.92664510       1.20239031      -1.43022151
I        6.15030982       6.84252692      16.43038075       0.01585201       0.10513184      -0.35175637      -2.71377234       1.03368558      -0.52288371