768
Lattice="38.994998665037166 0.07106821782705662 0.35547318029268 0.20366633889610405 23.235525993811105 -0.050934670340891476 0.6633844787472418 -0.16287480069770385 18.246656201326342" Properties=species:S:1:pos:R:3:forces:R:3:momenta:R:3 pbc="T T T"
H        8.49571066      22.41033192       3.18250242       0.19471500       0.10729101      -0.11808737      -0.02556034      -0.02038303      -0.03223559
H       12.93279377      10.83519204       2.50830251       0.28540811      -0.06094825      -0.26006129      -0.11635441       0.05321980       0.05097533
H        3.21352268       5.32798047       4.06681851      -0.07253338      -0.49599217       0.09472359       0.05235523       0.12724765       0.05974624
H       18.17044078       5.41846814       1.41236213      -0.67023255      -0.84351932       0.53305229      -0.10035674       0.10996154      -0.02410190
H        7.31719501      21.69922553       9.43638670       0.13044254       0.02861559       0.01960038       0.09672700       0.00075930       0.11835550
H       13.23693394       8.52415823       3.11593171      -0.16589058       0.07134806       0.06548841      -0.02882713      -0.12519768      -0.17844717
H        5.12575118       4.45432396       7.33089057       0.34126093       0.31684530       0.00398525       0.15057594      -0.11120541       0.15024034
H       16.62362746       6.14542864       3.06405286      -0.25821482      -1.30512119      -0.67748999      -0.02068696       0.02447226       0.12848606
H        6.14716864       0.14862318       5.14154346      -0.22890889       0.33221002       0.01268923       0.02370979       0.01652029      -0.00477927
H       14.83717087       8.48565440       2.28488955      -0.70711547       0.30335970       0.25682005       0.04117851       0.20469486      -0.09704548
H        6.04052439       5.97104852       7.32126596       0.19336120       0.39285190      -0.11222737      -0.21172887      -0.05909986      -0.10313910
H       15.77591288       4.54820625       3.05267484      -0.24357141      -0.12134183       0.24037716      -0.17163170       0.10764991       0.01959534
H        7.14455653       2.05786622       4.00736893       0.62688780      -0.51176169      -0.10564947      -0.00146410       0.16433036       0.07236521
H       15.58585787      10.25841342       1.28980060       1.22718002      -0.21544745      -0.90944059      -0.01947959       0.03250852      -0.00467303
H        4.79198153       7.79058282       3.89564440      -0.01569342       0.44794290       0.25579988       0.09962187      -0.13808528      -0.04547481
H       16.69268293       2.78146615       1.70083111       0.07872153      -0.31623170       0.04277131      -0.04566256      -0.02223197       0.05674527
H        8.50232727       1.59855714       2.92471126       0.78144412       0.39516851      -0.77595114       0.03114352      -0.11804413       0.05099424
H       14.71354293      11.81156146       1.06755640       0.18301279      -0.41004334       0.26116693      -0.28250641       0.01412300      -0.11743301
H        3.27469038       7.57908478       4.83600665       0.21111198      -0.51253899      -0.34862930       0.00584765      -0.34799292       0.06106860
H       18.19802108       2.86081125       5.15402297       0.07769944       0.57824179       0.35177256       0.02701159      -0.03567540      -0.02695995
C        7.83988065      23.18926644       3.69302122       0.37446638       0.51017423       0.01116337      -0.16596263       0.11144625       0.30801019
C       13.85050954      10.28900807       2.21123494       0.32310489       0.22277690      -0.43297613       0.22996831      -0.05869535      -0.42216735
C        4.06410479       5.93430139       3.76652344      -1.23286165       0.85394528       1.49752174       0.20455206      -0.23344355      -0.19912473
C       17.41677360       4.66327574       1.84214293       0.35748403       1.85203758       0.30873139       0.12010764      -0.49649742      -0.53219911
N        6.98729117      22.73640275       4.55811477      -0.40937270      -1.24391923       0.82475601       0.33109682      -0.43222740       0.58363035
N       13.97036480       9.01395055       2.57426144       0.59815889      -0.31570652      -0.03993637       0.16025479      -0.21479037       0.14421578
N        5.25026514       5.43089783       7.66072571      -0.70147344      -1.53460122      -0.01065077      -0.37506258      -0.22962037       1.18421728
N       16.49681592       5.16637069       2.66589249       1.31414159       0.92898482      -0.37300664       0.49520106      -0.01882386      -0.75454818
N        7.77014882       1.30561336       3.52691510      -1.25624590       0.00642374       0.50023196      -0.16158905       0.33311867      -0.03150965
N       14.82792311      10.87487337       1.49807442      -1.96839680       0.56515847       1.06817835      -0.37711978      -0.34243181       0.13413850
N        4.03879359       7.17819171       4.25123630       0.87660072      -0.40788403      -1.02226048       0.45566683       0.10493671       0.04514712
N       17.46691931       3.40026510       1.45365301       1.11746411      -0.97242823      -1.51888774      -0.72536877       0.14270696       0.60729097
Pb       1.94071091       1.36508537       1.55913123       0.20829575       0.00050826       0.06475919       0.78345377       1.25672285       0.76786408
Pb      19.57631846       9.20795196       4.44825313       0.17817721       0.15885588      -0.09636407       1.65320754      -1.67177243      -1.41485509
Pb       9.44676729       6.84124228       2.16845819       0.28187501       0.26744690      -0.14816071      -0.68512289      -0.09013698      -0.40357109
Pb      11.89484315       3.51000048       3.94025236       0.03364213       0.13858579      -0.05055317      -0.93803853      -2.94644165      -0.36858719
I        1.09555459       3.61664037       3.82020015       0.04080589      -0.36645087      -0.01570690      -0.33453840       1.11117421       0.60240095
I        0.93879840       7.20108403       1.89403349       0.14881825      -0.11564095      -0.21320525      -0.60202097       0.32192070      -1.42006342
I       10.66134074       8.89803150       4.36778267       0.26846564       0.29696055      -0.15787410      -2.25550052       2.27777685       0.99928106
I       10.85973487       1.33095348       1.78534718       0.03391326      -0.10025599      -0.12231954       2.30196600       1.64572846       0.10772604
I       18.67261780      23.06658567       2.05415306      -0.08886384       0.05006568       0.11525778      -0.63803710       0.81223182       0.35957754
I        2.99081379      10.67101650       3.73659043      -0.00783739       0.16108628       0.04420326      -0.71876137      -0.78884665      -0.38413366
I       12.78860390       5.56095817       1.73755205      -0.30285854       0.17110158      -0.05345752       1.72576559       0.67215636      -0.20928736
I        8.66445062       4.84061225       4.44662927       0.00076271      -0.19979138       0.06440241       0.93025312       0.05538330       0.03458737
I        4.89267876       2.41253818       1.29723949      -0.03089905      -0.11245295      -0.16811726      -0.76273325       0.34983443      -0.73276239
I       16.79346253       7.87206962       4.81268045      -0.25896434       0.17094889       0.08793470       0.12536154       2.82305379      -0.50627372
I        6.69311464       8.55621367       2.21205973       0.14971385      -0.49422020      -0.04818942      -0.33256391       0.33239313      -0.45522321
I       14.81047968       2.49106268       3.88462772      -0.14497439      -0.48945533       0.07715006      -1.72257837       0.04890069       0.35612653
H        8.91159813      22.48671970       7.92086800       0.54207030      -0.08898767       0.07829159      -0.22091826       0.09628131       0.07446737
H       13.22103553      11.15092477       7.00788848      -0.76600009       0.38382932       0.01152783      -0.28588219      -0.11778492      -0.01616667
H        3.53955234       5.28690879       8.74726357      -1.34672951      -1.12891209       0.36522807       0.22320763      -0.10616767      -0.10241425
H       18.41828759       5.29489357       5.84617488       0.87684657      -0.07347080      -0.71170860      -0.00294305       0.06208266      -0.02082681
H        6.97699613      21.71160468       4.80311108      -0.00260939       0.42778888      -0.31666604      -0.06105305       0.21204835      -0.02579472
H       14.76954228      11.83548320       5.40406922       0.18731832       0.33719418      -0.17307363      -0.30059140      -0.04530917      -0.17332398
H        4.92845139       4.34863441       2.78669666      -0.22211102       0.14883182      -0.07406534       0.12065994       0.06123276      -0.07386421
H       17.15735674       6.14610037       7.47496606      -0.12481286      -0.26021404       0.18930229       0.07031562       0.14029440      -0.02667551
H        6.34452450       0.04351545       9.61892301       0.01706104       0.11905756      -0.05647416       0.12023271       0.19474374      -0.16416846
H       15.50599880      10.18864340       5.36039703      -0.10038828       0.40445088      -0.09420619      -0.02151275       0.18396501      -0.03260685
H        5.67040925       5.93148977       2.50286072       0.64314769       0.56952912       0.21578983       0.00473848       0.03620933       0.36064132
H       16.29518611       4.51853292       7.90042107       1.10337674       0.93880655      -0.47224167      -0.04478998      -0.26081090      -0.10799123
H        7.20587106       1.86352872       8.06859880       0.11458938      -0.17356365       0.25256544       0.01743898      -0.00727184       0.12300770
H       14.64112314       8.49092801       6.77788567      -0.13792937       0.50916966      -0.26090594       0.02625110      -0.05602122      -0.13939568
H        5.03863854       7.84942404       8.65519143      -0.10145961      -0.18979222      -0.18153192       0.10483520      -0.02578722      -0.02304311
H       16.97942677       2.62226927       6.54889542      -0.23492478      -0.10507624      -0.12169974       0.01082450      -0.21232829       0.04246897
H        8.68485995       1.42770444       7.21453181      -0.03196433       0.09618980       0.17856684      -0.00218729      -0.19178941       0.16633734
H       13.15622406       8.78792254       7.61966468       0.55194606       0.87728571      -0.45306168      -0.10214298      -0.00096155      -0.09632240
H        3.56429218       7.43857339       9.49155037      -0.35047743       0.23229760       0.27721572       0.04193846       0.11149807      -0.08497100
H       18.21283437       3.05739726       0.75385937      -1.46220709       0.83652020       1.29511170       0.10601356       0.08640984      -0.07732060
C        7.97614153      -0.04304377       8.38015923      -0.89091794      -0.05756995      -0.01227737      -0.06832254      -0.07104368      -0.32012205
C       13.94363785      10.45159738       6.60181001       0.10387030      -1.26787025       0.89736707       0.10534202       0.72527015      -0.36471714
C        4.31492286       5.91149393       8.44683197       1.75203583       1.42352638      -0.88049784      -0.07890623       0.34240694       0.10856558
C       17.74571051       4.55158612       6.31746537      -1.07624051       0.97528705       1.04388984      -0.05170531      -0.86529815       0.17634255
N        7.29494541      22.69687802       9.16310720      -0.03678837       0.16254067       0.00377295       0.19362829      -0.23102608      -0.66059630
N       14.81338314      10.87579171       5.74047383       0.83472318      -0.11609013      -0.69070549      -1.06691443      -0.14248221       0.72988562
N        4.96373069       5.38111355       3.00159512       0.03431183      -0.42366120      -0.52443473       0.32148008      -0.38698509      -0.04996383
N       17.03103223       5.09928755       7.33249380      -0.76855549      -1.51546595      -0.12759028      -0.59526971       0.06591085      -0.71484456
N        7.98141214       1.20225182       7.94392137       0.12155288       0.15037614      -0.50795274      -0.04849963       0.30632805      -0.03987293
N       13.95479078       9.21499634       7.06680019      -0.46422294      -1.16483781       0.63644740       0.51735195      -0.80515211       0.10156419
N        4.28147593       7.18187225       8.82612831       0.16497473       0.34373211       0.64497671      -0.34905784       0.79248244       0.40480062
N       17.61502643       3.29660560       5.93618633       0.07544943      -0.73631483      -0.07941051       0.06130410      -0.09193369      -0.07896753
Pb       2.16317545       1.37346394       6.06028420       0.32147517       0.00966909      -0.24210831       1.05605123      -2.33383609       0.49921857
Pb      19.70795197       9.18674134       9.07295332       0.36297849       0.26400048      -0.28441947      -0.35506862       0.37560778       0.67050859
Pb       9.83133046       6.96854453       6.59491574       0.25886286      -0.01339480       0.27124354      -1.26690088       0.40919821       2.28395961
Pb      12.09730520       3.22239626       8.54101222       0.01159608       0.48882095       0.18932816       0.95161038      -2.82150167       3.91982180
I        1.42175230       3.38419764       8.38424722      -0.23999578       0.02363539       0.09974496      -1.14256931       0.12793570      -0.09302035
I        1.29293511       7.20343617       6.46338062      -0.19392121      -0.01363940       0.01543061      -0.33844066      -0.10764164      -1.45149404
I       11.10274445       8.80466377       9.10956376      -0.28671539       0.05736846      -0.22154891      -0.97043312       0.60395895       1.85834369
I       11.08759907       1.47414624       6.28462714      -0.15422043      -0.43260280      -0.08702197      -0.45428548      -1.14716955      -0.66203313
I       19.06136822      23.10946868       6.47154420      -0.21921586       0.01079887       0.32296777      -0.66153499       0.53876291      -1.19747186
I        3.26814650      10.86856181       8.25668920      -0.06155768      -0.06685343       0.10741900      -0.70308400      -1.37216954       1.36577617
I       12.93912546       5.46756113       6.24179468      -0.04589056       0.11496769       0.15100691       3.44883569       1.09255694      -1.26338329
I        9.08973575       4.85105791       8.95715589      -0.24749040      -0.34553559      -0.06697608      -0.06066989      -0.65917375       1.83849078
I        5.22159893       2.49809660       5.54550187      -0.28389943       0.07319949       0.26483964      -1.48971775       1.19786053       1.55052359
I       17.00405119       7.96722703       9.29014874      -0.32003573       0.04211154       0.02977103       0.19633995      -0.07567098      -0.28013175
I        7.01289318       8.21937346       6.60433468      -0.02540134       0.11429328       0.08796202      -0.68896819      -0.03067630      -1.57044416
I       14.97866652       2.15493782       8.45199932       0.24626871      -0.14460882      -0.01252301      -0.29188965      -0.17453326       0.38648858
H        8.82740290      22.32889452      12.30583052       0.19471500       0.10729101      -0.11808737      -0.02556034      -0.02038303      -0.03223559
H       13.26448601      10.75375464      11.63163061       0.28540811      -0.06094825      -0.26006129      -0.11635441       0.05321980       0.05097533
H        3.54521492       5.24654307      13.19014661      -0.07253338      -0.49599217       0.09472359       0.05235523       0.12724765       0.05974624
H       18.50213302       5.33703074      10.53569023      -0.67023255      -0.84351932       0.53305229      -0.10035674       0.10996154      -0.02410190
H        6.98550277      21.78066293       0.31305860       0.13044254       0.02861559       0.01960038       0.09672700       0.00075930       0.11835550
H       13.56862618       8.44272083      12.23925981      -0.16589058       0.07134806       0.06548841      -0.02882713      -0.12519768      -0.17844717
H        5.45744342       4.37288656      16.45421867       0.34126093       0.31684530       0.00398525       0.15057594      -0.11120541       0.15024034
H       16.95531970       6.06399124      12.18738096      -0.25821482      -1.30512119      -0.67748999      -0.02068696       0.02447226       0.12848606
H        6.47886088       0.06718578      14.26487156      -0.22890889       0.33221002       0.01268923       0.02370979       0.01652029      -0.00477927
H       15.16886311       8.40421700      11.40821765      -0.70711547       0.30335970       0.25682005       0.04117851       0.20469486      -0.09704548
H        6.37221663       5.88961112      16.44459406       0.19336120       0.39285190      -0.11222737      -0.21172887      -0.05909986      -0.10313910
H       16.10760512       4.46676885      12.17600294      -0.24357141      -0.12134183       0.24037716      -0.17163170       0.10764991       0.01959534
H        7.47624877       1.97642882      13.13069703       0.62688780      -0.51176169      -0.10564947      -0.00146410       0.16433036       0.07236521
H       15.91755011      10.17697602      10.41312870       1.22718002      -0.21544745      -0.90944059      -0.01947959       0.03250852      -0.00467303
H        5.12367377       7.70914542      13.01897250      -0.01569342       0.44794290       0.25579988       0.09962187      -0.13808528      -0.04547481
H       17.02437517       2.70002875      10.82415921       0.07872153      -0.31623170       0.04277131      -0.04566256      -0.02223197       0.05674527
H        8.83401951       1.51711974      12.04803936       0.78144412       0.39516851      -0.77595114       0.03114352      -0.11804413       0.05099424
H       15.04523517      11.73012406      10.19088450       0.18301279      -0.41004334       0.26116693      -0.28250641       0.01412300      -0.11743301
H        3.60638262       7.49764738      13.95933475       0.21111198      -0.51253899      -0.34862930       0.00584765      -0.34799292       0.06106860
H       18.52971332       2.77937385      14.27735107       0.07769944       0.57824179       0.35177256       0.02701159      -0.03567540      -0.02695995
C        8.17157289      23.10782904      12.81634932       0.37446638       0.51017423       0.01116337      -0.16596263       0.11144625       0.30801019
C       14.18220178      10.20757067      11.33456304       0.32310489       0.22277690      -0.43297613       0.22996831      -0.05869535      -0.42216735
C        4.39579703       5.85286399      12.88985154      -1.23286165       0.85394528       1.49752174       0.20455206      -0.23344355      -0.19912473
C       17.74846584       4.58183834      10.96547103       0.35748403       1.85203758       0.30873139       0.12010764      -0.49649742      -0.53219911
N        7.31898341      22.65496535      13.68144287      -0.40937270      -1.24391923       0.82475601       0.33109682      -0.43222740       0.58363035
N       14.30205704       8.93251315      11.69758954       0.59815889      -0.31570652      -0.03993637       0.16025479      -0.21479037       0.14421578
N        5.58195738       5.34946043      16.78405381      -0.70147344      -1.53460122      -0.01065077      -0.37506258      -0.22962037       1.18421728
N       16.82850816       5.08493329      11.78922059       1.31414159       0.92898482      -0.37300664       0.49520106      -0.01882386      -0.75454818
N        8.10184106       1.22417596      12.65024320      -1.25624590       0.00642374       0.50023196      -0.16158905       0.33311867      -0.03150965
N       15.15961535      10.79343597      10.62140252      -1.96839680       0.56515847       1.06817835      -0.37711978      -0.34243181       0.13413850
N        4.37048583       7.09675431      13.37456440       0.87660072      -0.40788403      -1.02226048       0.45566683       0.10493671       0.04514712
N       17.79861155       3.31882770      10.57698111       1.11746411      -0.97242823      -1.51888774      -0.72536877       0.14270696       0.60729097
Pb       2.27240315       1.28364797      10.68245933       0.20829575       0.00050826       0.06475919       0.78345377       1.25672285       0.76786408
Pb      19.90801070       9.12651456      13.57158123       0.17817721       0.15885588      -0.09636407       1.65320754      -1.67177243      -1.41485509
Pb       9.77845953       6.75980488      11.29178629       0.28187501       0.26744690      -0.14816071      -0.68512289      -0.09013698      -0.40357109
Pb      12.22653539       3.42856308      13.06358046       0.03364213       0.13858579      -0.05055317      -0.93803853      -2.94644165      -0.36858719
I        1.42724683       3.53520297      12.94352825       0.04080589      -0.36645087      -0.01570690      -0.33453840       1.11117421       0.60240095
I        1.27049064       7.11964663      11.01736159       0.14881825      -0.11564095      -0.21320525      -0.60202097       0.32192070      -1.42006342
I       10.99303298       8.81659410      13.49111077       0.26846564       0.29696055      -0.15787410      -2.25550052       2.27777685       0.99928106
I       11.19142711       1.24951608      10.90867528       0.03391326      -0.10025599      -0.12231954       2.30196600       1.64572846       0.10772604
I       19.00431004      22.98514827      11.17748116      -0.08886384       0.05006568       0.11525778      -0.63803710       0.81223182       0.35957754
I        3.32250603      10.58957910      12.85991853      -0.00783739       0.16108628       0.04420326      -0.71876137      -0.78884665      -0.38413366
I       13.12029614       5.47952077      10.86088015      -0.30285854       0.17110158      -0.05345752       1.72576559       0.67215636      -0.20928736
I        8.99614286       4.75917485      13.56995737       0.00076271      -0.19979138       0.06440241       0.93025312       0.05538330       0.03458737
I        5.22437100       2.33110078      10.42056759      -0.03089905      -0.11245295      -0.16811726      -0.76273325       0.34983443      -0.73276239
I       17.12515477       7.79063222      13.93600855      -0.25896434       0.17094889       0.08793470       0.12536154       2.82305379      -0.50627372
I        7.02480688       8.47477627      11.33538783       0.14971385      -0.49422020      -0.04818942      -0.33256391       0.33239313      -0.45522321
I       15.14217192       2.40962528      13.00795582      -0.14497439      -0.48945533       0.07715006      -1.72257837       0.04890069       0.35612653
H        9.24329037      22.40528230      17.04419610       0.54207030      -0.08898767       0.07829159      -0.22091826       0.09628131       0.07446737
H       13.55272777      11.06948737      16.13121658      -0.76600009       0.38382932       0.01152783      -0.28588219      -0.11778492      -0.01616667
H        3.87124458       5.20547139      17.87059167      -1.34672951      -1.12891209       0.36522807       0.22320763      -0.10616767      -0.10241425
H       18.74997983       5.21345617      14.96950298       0.87684657      -0.07347080      -0.71170860      -0.00294305       0.06208266      -0.02082681
H        7.30868837      21.63016728      13.92643918      -0.00260939       0.42778888      -0.31666604      -0.06105305       0.21204835      -0.02579472
H       15.10123452      11.75404580      14.52739732       0.18731832       0.33719418      -0.17307363      -0.30059140      -0.04530917      -0.17332398
H        5.26014363       4.26719701      11.91002476      -0.22211102       0.14883182      -0.07406534       0.12065994       0.06123276      -0.07386421
H       17.48904898       6.06466297      16.59829416      -0.12481286      -0.26021404       0.18930229       0.07031562       0.14029440      -0.02667551
H        6.01283226       0.12495285       0.49559491       0.01706104       0.11905756      -0.05647416       0.12023271       0.19474374      -0.16416846
H       15.83769104      10.10720600      14.48372513      -0.10038828       0.40445088      -0.09420619      -0.02151275       0.18396501      -0.03260685
H        6.00210149       5.85005237      11.62618882       0.64314769       0.56952912       0.21578983       0.00473848       0.03620933       0.36064132
H       16.62687835       4.43709552      17.02374917       1.10337674       0.93880655      -0.47224167      -0.04478998      -0.26081090      -0.10799123
H        7.53756330       1.78209132      17.19192690       0.11458938      -0.17356365       0.25256544       0.01743898      -0.00727184       0.12300770
H       14.97281538       8.40949061      15.90121377      -0.13792937       0.50916966      -0.26090594       0.02625110      -0.05602122      -0.13939568
H        5.37033078       7.76798664      17.77851953      -0.10145961      -0.18979222      -0.18153192       0.10483520      -0.02578722      -0.02304311
H       17.31111901       2.54083187      15.67222352      -0.23492478      -0.10507624      -0.12169974       0.01082450      -0.21232829       0.04246897
H        9.01655219       1.34626704      16.33785991      -0.03196433       0.09618980       0.17856684      -0.00218729      -0.19178941       0.16633734
H       13.48791630       8.70648514      16.74299278       0.55194606       0.87728571      -0.45306168      -0.10214298      -0.00096155      -0.09632240
H        3.23259994       7.52001079       0.36822227      -0.35047743       0.23229760       0.27721572       0.04193846       0.11149807      -0.08497100
H       18.54452661       2.97595986       9.87718747      -1.46220709       0.83652020       1.29511170       0.10601356       0.08640984      -0.07732060
C        8.30783377      -0.12448117      17.50348733      -0.89091794      -0.05756995      -0.01227737      -0.06832254      -0.07104368      -0.32012205
C       14.27533009      10.37015998      15.72513811       0.10387030      -1.26787025       0.89736707       0.10534202       0.72527015      -0.36471714
C        4.64661510       5.83005653      17.57016007       1.75203583       1.42352638      -0.88049784      -0.07890623       0.34240694       0.10856558
C       18.07740275       4.47014872      15.44079347      -1.07624051       0.97528705       1.04388984      -0.05170531      -0.86529815       0.17634255
N        6.96325317      22.77831542       0.03977910      -0.03678837       0.16254067       0.00377295       0.19362829      -0.23102608      -0.66059630
N       15.14507538      10.79435431      14.86380193       0.83472318      -0.11609013      -0.69070549      -1.06691443      -0.14248221       0.72988562
N        5.29542293       5.29967615      12.12492322       0.03431183      -0.42366120      -0.52443473       0.32148008      -0.38698509      -0.04996383
N       17.36272447       5.01785015      16.45582190      -0.76855549      -1.51546595      -0.12759028      -0.59526971       0.06591085      -0.71484456
N        8.31310438       1.12081442      17.06724947       0.12155288       0.15037614      -0.50795274      -0.04849963       0.30632805      -0.03987293
N       14.28648302       9.13355894      16.19012829      -0.46422294      -1.16483781       0.63644740       0.51735195      -0.80515211       0.10156419
N        4.61316817       7.10043485      17.94945641       0.16497473       0.34373211       0.64497671      -0.34905784       0.79248244       0.40480062
N       17.94671867       3.21516820      15.05951443       0.07544943      -0.73631483      -0.07941051       0.06130410      -0.09193369      -0.07896753
Pb       2.49486769       1.29202654      15.18361230       0.32147517       0.00966909      -0.24210831       1.05605123      -2.33383609       0.49921857
Pb      20.03964421       9.10530394      18.19628142       0.36297849       0.26400048      -0.28441947      -0.35506862       0.37560778       0.67050859
Pb      10.16302270       6.88710713      15.71824384       0.25886286      -0.01339480       0.27124354      -1.26690088       0.40919821       2.28395961
Pb      12.42899744       3.14095886      17.66434032       0.01159608       0.48882095       0.18932816       0.95161038      -2.82150167       3.91982180
I        1.75344454       3.30276024      17.50757532      -0.23999578       0.02363539       0.09974496      -1.14256931       0.12793570      -0.09302035
I        1.62462735       7.12199877      15.58670872      -0.19392121      -0.01363940       0.01543061      -0.33844066      -0.10764164      -1.45149404
I       11.43443669       8.72322637      18.23289186      -0.28671539       0.05736846      -0.22154891      -0.97043312       0.60395895       1.85834369
I       11.41929131       1.39270884      15.40795524      -0.15422043      -0.43260280      -0.08702197      -0.45428548      -1.14716955      -0.66203313
I       19.39306046      23.02803128      15.59487230      -0.21921586       0.01079887       0.32296777      -0.66153499       0.53876291      -1.19747186
I        3.59983874      10.78712441      17.38001730      -0.06155768      -0.06685343       0.10741900      -0.70308400      -1.37216954       1.36577617
I       13.27081770       5.38612373      15.36512278      -0.04589056       0.11496769       0.15100691       3.44883569       1.09255694      -1.26338329
I        9.42142799       4.76962051      18.08048399      -0.24749040      -0.34553559      -0.06697608      -0.06066989      -0.65917375       1.83849078
I        5.55329117       2.41665920      14.66882997      -0.28389943       0.07319949       0.26483964      -1.48971775       1.19786053       1.55052359
I       16.67235895       8.04866443       0.16682064      -0.32003573       0.04211154       0.02977103       0.19633995      -0.07567098      -0.28013175