768
Lattice="31.52003920688824 -1.0395494997101957 0.3212732111417801 -0.9162685860741572 30.3547437254124 0.028757121508259497 0.35595936046071336 -0.14720492652102254 17.2635365134837" Properties=species:S:1:pos:R:3:forces:R:3:momenta:R:3 energy=-3634.899682937415 stress="0.0 0.0 0.0 0.0 0.0 0.0 0.0 0.0 0.0" pbc="T T T"
H        1.81182259       2.15099367       6.50241848      -0.40823334       0.19889497       1.18637401      -0.14168882       0.23680950      -0.12547121
H        3.95331707       1.59552168       6.08085790      -0.23322713       0.00697126      -1.26103369      -0.02413162      -0.24716596      -0.23036679
H        3.77725166       1.97553235       4.28773273       0.49561966      -0.48484729      -0.11342232       0.14590850       0.28886411      -0.19694033
H        1.50781295       2.66681802       3.51662354      -0.03697768      -0.19470093       1.45065661       0.51509412      -0.25683880       0.00245726
H        0.37105575       3.13141610       4.75570510       0.69079462      -0.58483916       0.40201479       0.14469560       0.04735901      -0.17361968
H        6.06473772       6.00563539       2.28784743       0.07721459      -1.16171638      -0.78339858       0.13293066      -0.11254683      -0.23216011
H        5.93764307       7.31045889       0.27872238      -0.10672357      -1.39752147      -0.45539026      -0.28753964      -0.08118131      -0.03700393
H        5.70402254       5.75532669      -0.85064060       0.09943225       0.63517851       0.27050196       0.06776381      -0.17625286       0.20463454
H        5.86095255       3.51742126       0.24977395       0.15004755      -0.78920566       0.42235081      -0.08095949       0.05670096       0.07708297
H        6.19657764       3.44737822       2.10325715       0.23424000      -0.84999786       2.46758749      -0.24929110      -0.17748550       0.06504731
C        2.12913203       2.17720507       5.49125638      -1.30302852       0.02924381      -2.30371664      -0.22154626      -0.07184752       0.17771305
C        5.95748567       5.40311992       1.28855053       0.21324411       0.37611921       0.29037613       0.08999839       0.41052223      -0.23068799
N        3.33721062       1.73673443       5.23439390      -0.06698100       0.65651146       1.34397605      -0.52220288       0.41461506      -0.87488830
N        1.22482513       2.49808657       4.55030579       0.68697012       0.65580082      -0.63135361      -0.58038504      -0.13015874      -0.66366614
N        5.86520873       6.18216100       0.13382384      -0.19462386       1.02861060       0.58395431      -0.14124776       0.54728889       0.05522216
N        5.93123109       3.98973917       1.27641280      -0.49451199       1.92403583      -2.78011343       0.67654959       0.89843066       0.51360659
Pb       3.99160690       0.00733439       1.03669381       0.01366255      -0.37229983      -0.52274300      -0.54508079      -0.27764482      -0.49979266
Pb      31.54293208      -0.46434198       0.98562462       0.59456541      -0.67341821      -0.29845377       1.50174786      -0.99323516       1.53866883
I        6.11112364       0.93712312       3.29975979       0.17909879      -0.26097199      -0.20486158       0.22416692      -0.46141962      -0.59230494
I        1.74028321       6.71731992       2.65041355      -0.12396354      -0.15325821      -0.27845089      -1.55874716       3.56020254      -0.84708382
I        6.11352580       1.46931100       7.41654694       0.12961923      -0.15927876       0.27101438       1.62060039      -0.13408504      -1.06697076
I        1.75592413       5.75176696       6.84887719       0.03729412       0.17971380       0.04451281       0.06767794       2.65465632      -1.82197930
I        5.96904024       4.95613560       5.11249987      -0.19142026      -0.23239765      -0.31118020      -0.04521798       0.76681896       0.49480231
I        2.35996867       2.71470708       1.06925078       0.09625788       0.41742137      -0.08430152       0.87114146      -0.71918635       2.32674523
H        1.30368079      11.66240022       0.47229754       0.01473099       1.06297827      -1.26859397      -0.03269830      -0.02258696      -0.01017000
H        1.20041759      11.92749917       2.79611262       0.45990142      -2.05494266      -0.52585615      -0.10919290      -0.16683861      -0.10864658
H        1.40206197      10.11996766       3.06397481       0.03363060      -0.01811658       0.19955236      -0.06001776       0.26799289      -0.04350215
H        1.19472001       8.64466606       0.82107548       0.36135922      -0.16167612      -0.09381786      -0.05229992       0.03729221       0.04739764
H        1.18013302       9.55678368      -0.74855730       0.16000053       0.28135713       0.93669306      -0.16853315      -0.16789718      -0.02063802
H        5.39802799      11.87067887       6.41446018      -0.35773068      -0.83482974       0.91267636      -0.29536019       0.04772855      -0.02155659
H        3.57047459      13.24891637       5.74948131       0.10987858      -0.07686868      -0.21438750       0.13565757      -0.01474585      -0.11134935
H        4.37669798      13.90284170       4.24221147       0.00528814      -0.05983112       0.15604923       0.07133733       0.07974030       0.09370808
H        6.77214860      13.16324026       4.09444104       0.34780670      -0.07751106      -0.18606898       0.07166437      -0.00338345       0.02574387
H       12.86839675      14.60097259       4.99265536      -0.00626444       0.70916984      -0.45759479       0.04817873       0.19005042       0.08230569
C        1.36364898      10.72705534       1.01811740      -0.74278778       1.81929664       3.54091361       0.16199309      -0.06469221       0.49284165
C        5.45721136      12.53436773       5.52774319       1.08940911      -1.12121600      -0.45301774       0.03416927      -0.90769905       0.10683923
N        1.37533454      10.92012259       2.39742587      -0.02860863       0.73670962      -2.35321976      -0.67782521       0.84513635      -0.59064861
N        1.37659324       9.58435282       0.33290660      -0.14764249      -1.65587282      -0.80305001       0.00730307       0.41415852      -0.45436592
N        4.34638299      13.18602015       5.03556541      -0.90129155       1.40301806       0.04565444       0.48278660       0.74132773      -0.56883945
N        6.63145198      12.52713809       4.93072997       0.00616710      -0.17057532       0.14202039      -0.30140186       0.53774545       0.32451461
Pb       3.74255734       7.42031464       4.94592995       0.23541777       0.16596369       0.07033011       0.90059434       0.11890514       0.09544631
Pb      31.32633702       6.57541823       5.38419608      -0.15390534       0.08357851       0.15358882      -2.20740774       0.37160492       1.09104448
I        5.29449569       8.79741945       7.32493637       0.23611590       0.18458578      -0.01948354       1.22497083      -2.99258738      -2.97301784
I        1.54229323      14.05435187       7.10056686       0.11988928       0.21469392       0.88890533      -0.77489656      -2.06285441      -1.18274905
I        6.01264162       9.01094583       2.87377103      -0.28547190      -0.28466469       0.13904957       2.64130054       4.20529661      -1.87048642
I        0.89905513      14.43805059       3.27626795       0.14834478      -0.18152128       0.12375221      -0.25024317       0.28094236      -0.34059149
I        5.49649799      12.29271096       0.91760631      -0.16945090       0.38919014      -0.00638949      -1.66860367       0.52796062       3.03961106
I        2.00373352      10.04466758       5.51939086      -0.12960675      -0.06779333       0.17581828       1.43548592      -1.20470013       3.30351868
H        9.41278518       3.97491783       4.55250623       0.51970789      -0.84874631      -0.30748987      -0.11398221       0.10328947       0.10416783
H        9.10497634       3.84467193       6.86180916      -0.17297708       1.31191280      -0.14700999       0.22194368       0.06908362      -0.29504840
H        9.16175179       2.10198760       7.04599487       0.16124190       0.52986703      -1.02029467      -0.09931992      -0.20814161      -0.09366798
H        9.68398830       0.83510817       4.76382868       0.49788213      -0.65853935       0.21605264      -0.06469635      -0.02072191       0.09677210
H       10.12368370       1.79022918       3.24064664      -0.23961508       0.21928712      -0.05480647      -0.11363966      -0.02934574      -0.33960193
H       13.02064220       6.30493934       1.38254351      -0.34222288      -0.17156195      -0.20581290       0.03849580      -0.17664300       0.06222085
H       14.96548592       4.82237316       2.27235999      -1.69433264      -0.43486503      -0.83846691       0.17660179      -0.18937277       0.24214552
H       14.48890865       3.78688541       0.79769915       0.21871487      -0.82226360       0.11033527      -0.03895405       0.02350922       0.03811181
H       12.48709124       4.37705481      -1.06148431       0.52829633      -0.49699724       0.14553444       0.17595035       0.19599338       0.09609051
H       11.69542317       5.91471722      -0.86903779      -0.62935230       0.22885308      -0.02187620      -0.04013460      -0.02039007      -0.04046287
C        9.51352937       2.87088150       5.02312074      -0.17591226       1.03849982      -0.01457728       1.09376645      -0.14942013      -0.02875206
C       13.18067513       5.36997825       0.82131705       2.64212780      -0.70434681       1.40433026      -0.10371584       0.39854126      -0.26503128
N        9.18800355       2.93757558       6.37069305       0.06934602      -2.59136283       1.01862798       0.78420171       0.78580780      -0.15486910
N        9.87869002       1.74721854       4.27818741      -0.53103271       1.50310909       0.46291616      -0.35717902      -0.06414675      -0.53970202
N       14.21969586       4.49037956       1.53454579      -0.19443798       1.65872895      -0.13188431      -0.54150085       0.13630296       0.54936850
N       12.38085812       5.11063977      -0.33235820      -0.58145953       0.67544674      -0.42175329       0.44199172      -0.18395621      -0.32872217
Pb      11.75369490       0.05092324       0.78706129      -0.06405237       0.29684093       0.42467103       1.68209964      -3.06028608       0.98066803
Pb       7.88041055      -0.39622135       0.51652659       0.10854257       0.26961529       0.45514400       4.53515945       3.34062796      -4.06261495
I       13.72669686       1.14371656       3.27531548      -0.03553841       0.20970441       0.03392440       2.19305349       1.65894881       0.87540106
I        9.68504059       6.29285315       3.15063781      -0.01588782       0.09490461       0.02050811      -0.62317532      -1.32938353      -0.73764781
I       14.28847865       1.83366068       7.69275645       0.10473632      -0.45518779      -0.21590060      -0.65310155      -1.28519026      -3.71475114
I        9.84027510       6.50825475       7.64236797      -0.33290190      -0.15265883       0.00469879      -1.92744240      -1.11340568      -1.50139580
I       13.20678340       4.88983233       5.24094634       0.02925436      -0.40032726      -0.12580577       1.47880122       0.04295246      -0.92908912
I        9.79662325       2.69172683       0.81718973      -0.24819771      -0.58484738       0.00272057       2.51044328       1.46789500      -0.66674782
H        8.55913379      10.64030181       2.34505432      -0.52323738      -0.43714803       1.67720523      -0.07993420      -0.13059884      -0.04990501
H        7.85802371      11.80170153       0.27350618      -1.46294291       0.28142082       0.37561877      -0.11408144      -0.20408227      -0.09236513
H        9.06144074      10.73557262      -0.64460098       0.37221206      -0.10587580      -0.38384021      -0.05277667       0.21426037      -0.11270751
H       10.73232201       9.28804401       0.60038037      -0.20635825      -0.11472268       0.70456086       0.23861729       0.09086740       0.28760207
H       10.53104959       8.87033116       2.35088272       0.06488259       0.22945557      -0.05620457      -0.02349131       0.25490214      -0.08144154
H       13.08667054      12.54378108       3.84190762      -0.09173580       0.38899272       0.25411738       0.31103573      -0.07199290       0.06390155
H       13.42228231      10.58625822       5.05094344       0.04642467       0.33518166      -0.03173693       0.04748567      -0.18347821      -0.08049446
H       13.35144694      11.43269114       6.60291750       0.20872890       0.02981501      -0.49501113       0.17844589      -0.03196728       0.05796000
H       13.30195489      13.97069999       6.56910409      -0.20260465      -0.51210638      -0.63630608      -0.14882324       0.10318255      -0.17626682
H        7.41270816      11.87927888       5.27207544      -0.33572887       0.66651570      -0.13878690      -0.05120471      -0.13352084      -0.21097881
C        9.07809897      10.27526218       1.45353669       1.11905199       1.01827301      -2.24785044      -0.10102145       0.72026241       0.67320537
C       13.18402242      12.62175258       4.94030447       0.08633050       0.06620351       0.61609056      -0.88013337       0.12327179      -0.04676178
N        8.63717179      10.91189599       0.28181719      -0.09939078      -0.09083710      -0.19687976       0.32695591      -0.41902862      -0.38714979
N       10.20097209       9.47605853       1.47994365       0.73637208      -0.72389331      -0.13872078      -1.01772792       0.36663818       0.47618380
N       13.42156256      11.48579198       5.56237577      -0.21195318      -0.02057856       0.62578199       0.99292871      -0.83563762       0.31551445
N       13.08832239      13.79615097       5.55691901       0.27841980      -1.09426582       0.15140735      -0.48914443       0.28027000      -0.10561259
Pb      11.67319405       7.51238109       5.30909323      -0.37838809       0.01363965       0.12807974      -0.15768591       1.21055728      -1.03123300
Pb       7.56568664       7.69729011       5.11716156       0.40229874      -0.05061235       0.21125900       0.42790547       0.02823751       1.52584051
I       13.86903302       8.52177522       7.69311606      -0.23434227       0.06869692       0.06345314       0.26729675       0.78313354       0.55762207
I        9.42371304      14.43598166       7.18662792       0.27607508      -0.11221663      -0.27152007      -0.10879521       2.64441052       1.56125490
I       13.52404731       8.85414986       3.20413029       0.14895548      -0.01303237      -0.28814465      -0.01573041       1.63860190       1.74302529
I        9.13665175      13.77389111       2.89469663       0.25155607      -0.08642164      -0.03163429       1.87552714       0.16546227       3.45081788
I       13.32023526      12.48230167       1.18460303      -0.06750607       0.13010578      -0.22249891       3.50487507       0.50788547      -0.11229228
I        9.52989678      10.23507034       5.18030531       0.04130006       0.11493561       0.31917545       1.37335881       0.13772143      -1.57032977
H        1.21855441       2.57448836      15.22003225      -0.18346690       0.04350163       0.48303514       0.05740375      -0.11412972       0.04672938
H        3.69511037       2.45605187      15.19083875      -0.20337628       0.15668759      -0.52285583      -0.08159476      -0.24898748      -0.02850921
H        3.90572872       2.88360907      13.42747328       0.14262362      -0.27838781      -0.45345550       0.01180739      -0.09649058      -0.03594965
H        1.49099121       3.01573158      12.19880329      -0.02158095      -0.14887374       0.19979696      -0.03448491       0.17052201       0.02524579
H       -0.03747177       2.77623408      13.26490625      -0.71694473       0.36335064       0.14023187       0.07019613      -0.05132590      -0.20391923
H        6.27077962       6.11923989      10.53329846       0.42868955      -0.53272925      -0.76166091      -0.22783667      -0.00417257      -0.12470424
H        5.58623786       6.46614307       8.17556739       0.14307335       0.46681897       0.47192429      -0.10207075       0.05023974       0.06173083
H        5.59711237       4.78961141       7.82529808       0.28287950      -0.22450348       0.18336003      -0.04042624       0.00979807      -0.26102621
H        6.09599993       3.14169695       9.72386546       0.46095517       0.29610921      -0.11346225       0.23517077      -0.09361994      -0.12457848
H        6.71338282       3.88284530      11.21522225       0.02906832      -0.07722672       1.09956730       0.25092727       0.02272112       0.16398482
C        1.80529806       2.73645700      14.25788019       1.77468243      -1.18120010      -0.64040127      -0.17690788      -0.24172316       0.32976186
C        6.23296380       5.26361388       9.80448486      -0.61670721      -0.75041334      -0.84340293      -0.20542707       0.70284258      -0.12388782
N        3.22855074       2.68210409      14.26931051      -1.07660021       0.58101510       1.26759595      -0.56418005      -0.06538114       0.65918160
N        1.05508655       2.85468426      13.16139226       0.35268862       0.31326304      -0.62407406      -0.29675817      -0.84410229      -0.54410781
N        5.83449185       5.52144416       8.53961659       0.06553928      -0.97715348       1.49632410      -0.07459690       0.11812469      -0.08612483
N        6.46462058       4.01542287      10.26022114      -0.79438335       1.56716452      -1.59258695      -0.00837596      -0.21765814      -0.45216793
Pb       4.13889362      -0.09066742       9.53070452      -0.27456652       0.04429249       0.40814816       0.45470848      -1.04828053      -1.13383422
Pb      31.66119649      -0.76662696      10.02999761       0.06724624      -0.07937474       0.27807045       2.05979218      -3.28930540      -2.84012348
I        6.10487938       0.80579820      11.89669373       0.19458482       0.04866944      -0.23411820       0.23035726       0.77665179      -2.38912317
I        1.50152341       6.13852363      11.70693532       0.06593210       0.04276102      -0.36236760      -2.41933320       0.30214031       1.56214739
I        6.29582988       1.16872742      15.88552532      -0.02662547       0.06833451       0.16232078       1.40274470      -1.28520567      -0.00425508
I        1.59800593       6.22555030      15.90372272       0.31881449      -0.06895428      -0.10510366       1.44606936       0.35576679      -0.86717644
I        5.69989213       4.92433107      13.70720951       0.17783471       0.10645047       0.22662282       0.09413395       2.02258735      -3.29602023
I        2.17192951       2.63251850       9.33574317       0.14793317       0.15001212       0.28186438      -0.60783832      -3.51782263      -2.57523596
H        1.64741823      10.91280261       8.19102253       0.12503769      -0.81274716       0.27342085      -0.25035740       0.01854972       0.18170994
H        1.69528569      12.22102076      10.30473208       0.16989328      -1.18364304      -0.30733846       0.12569277       0.07366057       0.04580618
H        1.50451691      10.67415214      11.29525206       0.28994781       0.19702068       0.04483631      -0.16583258      -0.12238537       0.03270809
H        1.58464977       8.27768064       9.93052561      -0.10679609      -0.07235427       0.51877760       0.17671138       0.07692224      -0.18385850
H        1.58625605       8.46832831       8.19357721      -0.00262932      -0.09762293      -0.61479651      -0.25339341      -0.35415503       0.07851653
H        5.22937646      11.31388822      14.51642871       0.17951729       0.22054647       0.13998888      -0.03835907       0.04319174      -0.01929363
H        4.08738399      13.45776782      14.86575208      -0.38061860       0.30996131      -0.10796875      -0.28305552      -0.02608185      -0.10500793
H        5.25130573      14.44510784      13.87907043      -0.30938971      -0.36828883       0.48547488      -0.21389825       0.33032114      -0.02641520
H        7.26548144      13.11660723      13.07043702      -0.05841993       0.02337085       0.18751378      -0.13909991      -0.22276560       0.02549431
H       13.90161216      14.31137348      13.12155782       0.11202886      -0.46598369       0.67158111      -0.31101527      -0.13459078      -0.27518814
C        1.62448565      10.31081737       9.16901311       0.02334705       1.65804596       1.14787951      -0.88279296      -0.18859298      -1.08046274
C        5.65428680      12.34759622      14.16156205       0.67354407      -0.03438731      -0.67442928       0.31740363       0.05833220      -0.10173359
N        1.72162253      11.13542033      10.32861837      -0.50387935       0.00014560      -0.87378322       0.12795309       0.45477627      -0.82282290
N        1.55011737       8.92910261       9.12481108      -0.02146657       0.29452874      -0.03212298      -0.70336618      -0.55320213       1.26040799
N        4.95569335      13.54075523      14.33905488       0.68170190      -0.05165259      -0.40165925       0.01859821       0.70246690      -0.69370770
N        6.82505835      12.27998463      13.53036187      -0.18713803      -0.69769313       0.25209885       0.74668129      -0.37321547      -0.62216275
Pb       3.86119407       7.65245302      13.68621578      -0.45834637      -0.12162203       0.16417193       2.75746856       1.28909491       1.27056664
Pb      31.29330002       6.48021615      14.27165987      -0.34783017       0.04506104      -0.16284952      -0.45534822      -2.43716271      -2.67569019
I        5.68203569       8.99633651      15.75496234       0.26420362       0.00044217      -0.12317043       2.69278055       0.11630018       1.87949619
I        1.61897694      13.66803540      16.09323701       0.27166937       0.09567704      -0.02165493      -2.67528068       2.11688113       1.53630214
I        5.73470995       8.51100626      11.26984935       0.12008811       0.23768804       0.12807717       0.36658700      -2.06332728      -1.57963628
I        1.55784836      14.29515192      12.28388756      -0.19963163       0.01928766      -0.85683937       0.08824098      -0.38091890      -0.31012232
I        5.41503325      12.53462460       9.50645959       0.01161312       0.03042894      -0.03298319      -1.66606031       0.66746856      -1.52216326
I        1.85054332      10.23818751      13.93001315      -0.04134740      -0.26187609      -0.02976362       1.51331342       0.58113956       0.52822381
H        8.94899858       3.03568459      12.60040526       0.59465650       1.41000083      -1.75780146       0.39763432       0.02516222      -0.04015774
H        9.35449569       4.60732256      14.66609827       0.05128895      -0.35765286      -0.46620097       0.13899552       0.13302793      -0.20914071
H        9.76748609       3.22481400      15.81621765       0.19374269      -0.10747657       0.05567412       0.17113167      -0.23108573      -0.00090702
H        9.61522941       0.74755076      14.76956999       0.55502560      -0.95542969       0.56667752       0.06097395       0.02616010       0.14069280
H        9.44174032       0.65686935      12.88351644      -0.00706973      -0.47941138      -0.03142940      -0.19207795      -0.24218269       0.21749183
H       13.38929365       5.98400061      10.41909985       0.04932198      -1.46688504      -0.48841758      -0.20146689      -0.32641157      -0.27740242
H       15.57467093       4.95439956      10.69520943       0.46360562       0.53421096       0.30016592       0.02032992       0.00370833      -0.02534187
H       15.34366408       3.99462563       9.09327752       0.16079458      -1.28281587      -0.43289489      -0.04014081      -0.02288828      -0.01672967
H       13.17536031       3.99032911       7.90373018       0.18633081      -0.32572030      -0.24869368      -0.21152216      -0.04774996      -0.01465715
H       11.94916409       5.19449300       8.41021769       0.85111358      -0.19382034       0.14491216       0.04144220      -0.15428030       0.15145843
C        9.37409336       2.63587118      13.63941757      -0.46383476      -0.26509729       3.16413635       0.15194856       0.59612958       0.32775743
C       13.72710004       5.10877931       9.70335052      -0.91626944       2.01502969      -0.10554832      -0.49384759      -0.16134118      -0.11504894
N        9.56367993       3.54174313      14.75533635      -0.37121310       0.20708983       0.01108351      -0.02513633      -1.12951145       0.24296867
N        9.59947552       1.24812945      13.81333795      -0.39452434       0.21950196      -1.69603797      -0.61351343      -0.28076241       0.36330302
N       14.96734671       4.65018004       9.85667885      -0.90124884       0.33335862       0.12800253       0.62015266      -0.22626579       0.23297771
N       12.89721740       4.74419014       8.60073143      -0.15903441       0.49624395       0.85624055      -1.20423518      -0.13368839       0.48515883
Pb      11.97266596      -0.28403243       9.28501511       0.38191416       0.53369681       0.11991706      -0.83586224      -1.53975977      -0.56380426
Pb       8.08100002      -0.35108767       9.25653084      -0.19104879      -0.16229340       0.55103500      -6.14337691      -1.79155811      -3.70951477
I       13.89092300       1.27668377      11.52801939      -0.22544267      -0.06591960       0.27916472       1.10917231      -1.85971079       0.38709635
I        9.76806270       5.82838438      11.82944495      -0.06143267       0.01351670      -0.43931510      -2.61284660       2.74042732       0.59198538
I       13.95501554       1.63224305      16.19153213       0.36262479      -0.13960631      -0.28375584       0.65978761      -0.07747379      -0.98262033
I        9.65325189       6.65634799      16.21070825      -0.18758866       0.08049720       0.10217860       0.58542336      -0.22162619       1.28186023
I       13.39851110       4.85873338      13.49361529       0.25943533      -0.00989773      -0.04076159       0.92160428       0.54303203      -2.69863026
I        9.63579999       2.11155312      10.09376000       0.26295778       0.06332116      -0.23749243      -1.47676536      -0.63004662      -1.27587850
H        9.78752616      10.89841342      10.90574006      -0.13392566      -0.11477774       0.73615069       0.10578117       0.18640010      -0.18851031
H        7.63161715      10.84175271       9.61390175      -0.12530010       0.16990884      -0.40253561       0.12598470       0.00615570       0.02863211
H        8.37498006      10.03670508       8.00987903      -0.18188948       0.02493362      -1.30690944       0.27892260       0.09027007       0.07559763
H       10.82601240       9.16407046       8.18118953       0.05847736      -0.03993580       0.17184124      -0.02075688      -0.02969990      -0.15790146
H       11.69754434       9.75705332       9.93853924      -0.30900512       0.20337918      -0.74683972      -0.06733693      -0.12428142       0.32180171
H       13.97715750      11.93362480      12.61683764       0.08233712      -0.33826495      -0.39693477       0.00223306       0.05027074      -0.20256027
H       13.99851925      10.25358497      14.46452526       0.24551906      -0.39008537      -0.21510779      -0.05964347      -0.16576916      -0.06459100
H       13.98962317      11.61144047      15.77676218       0.18289282      -0.13804926      -1.14686482       0.19227437      -0.10531280       0.06862529
H       14.12779288      13.96698365      14.92689784      -0.09273873       0.32728268      -0.12260915      -0.04954608      -0.16067040      -0.07088717
H        7.35016497      11.31304260      13.41071372      -0.65361533       0.62654077       0.02741009       0.02926593       0.08401590       0.09466984
C        9.68993111      10.33666152       9.76235110      -0.86293690       0.13134504       0.16940632      -0.24456343      -0.28605068      -0.63738573
C       14.05862746      12.23848067      13.68386095      -0.38143233       1.95607407       1.09435549      -0.17305263      -0.25502644       0.38673854
N        8.43740541      10.34926334       9.04257218       0.57687008      -0.08301857       0.99862316       0.29357302       0.55215881       0.27664307
N       10.79306957       9.70330889       9.24276642       0.96208689      -0.29044148       0.38639762      -0.79704146       0.66018664      -0.34528951
N       14.17630415      11.31097439      14.69166077      -0.31749469      -0.23577327       1.33865571      -0.25046016      -0.04795858       0.06587495
N       14.00732975      13.60176670      13.94937338       0.09897435      -0.72399723      -0.90556464       0.01995205      -0.37691664      -0.45541226
Pb      11.67440174       7.41421846      13.86142274       0.00236955       0.21932983      -0.00059804      -1.23165969      -2.97846608       0.33416699
Pb       7.83457825       7.42613035      13.44235563      -0.15872832       0.51135370       0.50179602      -1.25218248       0.04984655      -3.93814716
I       13.47733218       8.25306271      16.34561608       0.13642862       0.07556052      -0.00219486       0.36968840       0.42319272       1.88582446
I        9.56012526      14.29465530      15.88927690       0.09343267      -0.26063213      -0.23992113      -1.36682720       1.44421255      -0.63607108
I       13.59073974       9.06929245      11.73415717      -0.05606266      -0.04818566       0.01715081      -1.68804916       3.53238148       0.01333315
I        9.50233155      13.63895625      11.61966371       0.11886832      -0.00712365      -0.19350609      -2.21757438       1.59147355       0.03162664