768
Lattice="31.52003920688824 -1.0395494997101957 0.3212732111417801 -0.9162685860741572 30.3547437254124 0.028757121508259497 0.35595936046071336 -0.14720492652102254 17.2635365134837" Properties=species:S:1:pos:R:3:forces:R:3:momenta:R:3 pbc="T T T"
H        1.36458929       1.94762867       6.54785004      -0.28369152       0.10802736      -0.01031941      -0.21135605      -0.06119176       0.01672650
H        3.63309166       1.81396800       5.81165181      -0.25083100       0.02839729      -0.23312950       0.16037415      -0.00322756      -0.08251906
H        3.30759771       2.21405768       4.14357061       0.00971773       0.07891288      -0.49012224       0.03580890       0.17579922      -0.07673590
H        0.95555169       2.69513273       3.64603018      -0.11083497       0.14416993      -0.46413579      -0.19348324       0.17159203      -0.10411806
H       31.21012230       1.48081652       5.23634060      -1.48444845       0.60387256       0.59325648       0.02915969       0.17602602       0.14519137
H        5.85528024       5.92519794       1.56355033       0.09253215       0.89226113       1.04077829      -0.16808872      -0.04238630       0.20804238
H        5.36550521       6.01406088      16.72720024      -0.10800763      -0.20484332      -0.24741240       0.21541816      -0.12099786       0.17026404
H        5.65294301       4.30561145      16.28604919       0.02061653       0.27881599       0.15945361       0.06710018      -0.05745397       0.02207539
H        6.56574838       3.06581122       0.90576782       0.02675237       0.18628520       0.16615008       0.03441669      -0.10653130      -0.13625202
H        6.79618754       3.88385263       2.47405106      -0.16169111       0.37316556      -0.78447047      -0.01369348       0.02009248       0.21319617
C        1.62607323       2.18942588       5.46905305       0.73269327       0.10608831       0.29781603      -0.84062096      -0.10334688       0.77920695
C        5.89823789       5.05064446       0.94466013       0.19272388      -0.36221713       0.17634697      -0.32911527       0.34643463       0.55038526
N        2.92966940       2.07846314       5.09940911       0.21741319      -0.17571849       0.76460536       0.52469216       0.82806285       0.55442324
N        0.70965248       2.61230101       4.63516553       1.24464115      -0.85384374      -0.52461761      -0.12254325       0.12074195       0.14058595
N        5.65763518       5.04876968      17.00875062      -0.19045940       0.26562158      -1.11595327       0.93399922      -0.26348837      -0.06518601
N        6.56435127       3.95059177       1.44998346       0.01826332      -1.39615104       0.34862935       0.16725987      -0.87098078       0.26434871
Pb       3.85629148      -0.09988237       0.79156700      -0.01553190      -0.08794377      -0.03285805      -0.25683716      -0.09116921       1.40064219
Pb      31.48153322      -0.73316642       0.90910046      -0.36268288      -0.32991504       0.45061428      -2.52132815       1.53839898       1.52203734
I        6.00319653       0.69103792       3.10842481      -0.02918364       0.15761419      -0.01114664       0.50866859      -0.09700756      -0.34333555
I        1.42229853       6.44316219       2.19426659       0.14240277       0.06014781       0.20910546      -0.77229383      -1.42061746       0.27187144
I        5.89677619       1.19770977       7.11106941       0.17582698       0.21722364       0.31700293       0.22187679      -0.97352603       0.84869246
I        1.39904892       5.88653408       6.74065692       0.12029027       0.11786032      -0.32282601       0.54879535      -0.69027827       0.83677683
I        5.43384073       4.90644940       4.74184968       0.15461783       0.31497341       0.09087102       1.06717269      -0.69123045      -1.51708852
I        2.01181099       2.63695663       1.21034595       0.10048520       0.13527979      -0.19678768      -1.08208125       1.00190785      -1.59640895
H        1.29072414      11.12914486      16.77111701      -0.08070070      -0.24836932       0.01260986       0.12232087       0.05292799       0.01851905
H        0.79642617      11.88980593       1.67794932       0.05410567      -0.68005418       0.01667288       0.05732811       0.00307672      -0.13670136
H        0.73225724      10.26817003       2.32683218       0.04521540      -0.72476590       0.53971916       0.06856112      -0.08206816      -0.08675792
H        0.85671013       8.42107000       0.49887476       0.03639849       0.05057046      -0.58634941       0.25160893      -0.01017565      -0.23379366
H        1.36842243       8.86155388      16.05546911      -0.12235794       0.11221400       0.56099637      -0.12689836       0.09629789      -0.08155668
H        4.53493740      11.05176150       5.68049855      -0.05619684      -0.04499072       0.35264906       0.05950170       0.04463347      -0.06368656
H        3.30519448      13.13273623       5.54597929      -0.06838335       0.06880028      -0.05480509       0.07255149      -0.04391380       0.00880994
H        4.69651129      14.06048344       4.78824454      -0.14060172      -0.21906666       0.21084378       0.10324771      -0.02916726       0.06627707
H        6.89921873      12.94445866       4.67209795      -0.29237863       0.52025881      -0.33390132       0.15217309       0.13800341      -0.19826165
H       13.31105370      14.03308331       5.13671789      -0.04603196       0.26972009      -0.06202909      -0.01410757       0.01755227       0.05100961
C        0.83963047      10.44172701       0.23934363       0.05103529       0.63996436       0.64000324      -0.48460819       0.00393963       0.22861849
C        5.02514643      12.06492062       5.34900830      -0.47315675       0.57874924      -0.74965207       0.13443251      -0.82405774       0.17837866
N        0.71825130      10.84322239       1.50492604       0.07623227       0.94151784      -1.71619454      -0.12262819       0.48889279      -0.30659077
N        1.22728666       9.04725183      17.06587092       0.06879211      -0.17483146       0.51126335      -0.99160118       0.56435082      -0.35641443
N        4.28588434      13.15616220       5.19992662       0.17297843      -0.07517227       0.12595296      -0.11267557      -0.33015100      -0.24854730
N        6.30673666      12.08573414       4.99481944       1.21359719      -0.55389373       0.04334729       0.26089272       0.64489789       0.07274466
Pb       3.43785734       7.47909994       4.67704061      -0.07028970       0.03469514      -0.00632252      -0.25041014       0.18588971      -0.11956944
Pb      30.99583334       6.29898578       4.91794917       0.33330235      -0.04125826       0.14955315       1.58712693      -2.18968622      -0.24544525
I        5.26847318       8.60788693       7.11788982      -0.14497424       0.04108985       0.05606246       3.03231446       0.52629789      -1.24847122
I        1.51943469      13.97892967       7.08643389       0.01175933       0.09062705       0.09933826       1.28978646       1.48067883      -0.38205175
I        5.71764894       8.89159785       2.69757255      -0.08821790      -0.12940855       0.08857998      -0.21286800       1.35470924      -1.32054746
I        1.29294991      13.98555038       2.89645022      -0.07969732       0.07110289       0.18229654       0.45560663       1.47931124       0.52203813
I        5.19436034      12.51976605       0.69099333       0.00672687      -0.27810530      -0.13402902       0.21085851       1.47055260      -0.98172436
I        1.39468212      10.16585742       5.00271437       0.13996127      -0.41363891      -0.08008034      -0.73873140      -0.73234577      -0.05428956
H        8.85570314       3.35010067       4.09303373       0.14597056      -0.53941231       0.18790158       0.09968600       0.07353807       0.14905183
H        8.63558346       4.02456455       6.23514620       0.13998376       0.16061283       0.07986303      -0.25916358       0.18383021       0.07768130
H        8.94982560       2.47957543       6.98231999       0.01271257      -0.23956492      -0.11480461      -0.01680950      -0.11015949       0.04048411
H        9.12287116       0.56180180       5.25322245       0.27220267       0.33336393      -0.27939285       0.19677927      -0.01317121      -0.20382979
H        9.28831256       1.08919656       3.58528312       0.06483065      -0.11105386      -0.55944538       0.04320283      -0.05381111       0.08500438
H       13.42248207       6.13340242       0.99736397       0.29048364      -0.01042707       0.59611270      -0.05897086      -0.31726692      -0.02194319
H       15.17754609       4.43141050       1.23999195       0.26910693       0.18804448       0.07507211      -0.06585024       0.04131143      -0.10349218
H       14.73070795       3.18076255      17.37491964      -0.28890598       0.21859090       0.10192671      -0.00201021      -0.05709117       0.24596573
H       12.53338619       3.95423841      16.49820817      -0.25421808       0.59575442       0.33847069       0.02707039       0.04352294      -0.12066724
H       11.85815875       5.55452444      16.88621657      -0.01132561       0.16080948       0.07659090       0.03027588       0.02554232      -0.09549358
C        8.94703324       2.56576353       4.88091765      -0.17607473       1.62040738       0.10456823       0.03633518       0.11928177       0.53373588
C       13.34794517       5.12545759       0.55424077       0.27414512       0.11753031      -1.02453208      -0.24360996       0.37398557       0.44048691
N        8.81778726       3.01908772       6.10690397      -0.15438394       0.35262890       0.28596566       0.27022214       0.22866523      -0.29938967
N        9.16052443       1.33642844       4.55680642      -0.03825616      -1.44176492       0.26074458      -0.39370590      -0.67081035       0.06561111
N       14.36839414       4.24103954       0.61081290      -0.50333262       0.04242414       0.36146027      -0.58632002       0.16418286       1.02060664
N       12.60683532       4.83274643      17.04829030       0.28166974      -1.55629690      -0.54092914       0.58141399       0.57652244       0.34694870
Pb      10.77069633      29.83868044       0.47932519       0.43055592       0.08041117       0.36190072      -0.08470333      -0.74328049      -0.45580942
Pb       6.89079182      30.00167436       0.59015448      -0.20137775      -0.08167239       0.16338788       1.19972655      -2.30811131       1.06109071
I       13.42282175       0.49369829       3.16317711       0.05630672      -0.09470994      -0.44740852      -0.01060866       2.31050848       2.55322085
I        9.21950823       6.07749571       2.81223393      -0.02625173      -0.20178073      -0.32340492       0.18808677      -2.41064227       1.92545170
I       14.12660544       1.10231828       7.30914828      -0.15267706       0.52923396      -0.15855778       0.46070086      -0.65181091       0.21849551
I        9.41044013       6.44607575       7.35672229       0.07111889      -0.07135116      -0.14923146       1.30464355      -0.80405559      -1.56880627
I       13.14349151       4.48565906       4.51322833      -0.10901779      -0.08051551       0.03818558       0.69273288      -1.14180117       0.73950426
I        9.91795222       2.13412313       0.95506260      -0.11659726       0.15512076      -0.08903904      -0.54690079      -0.30852652      -0.42708481
H        8.83266676       9.99127794       1.64345910      -0.23014427       0.24044788       0.43464731      -0.00799098      -0.07277284      -0.05491446
H        7.75394814      10.33557513      17.19572732      -0.33957234       0.20820387      -0.15408524      -0.07575704       0.07188369      -0.02181242
H        8.94658228      10.02204564      15.92284083       0.02874075       0.19896048       0.08081211      -0.08642072       0.05107989       0.00836616
H       11.27222060       9.34915830      16.87370610       0.64843962      -0.09059564      -1.40622286      -0.03146191       0.15867958      -0.12408624
H       10.97759030       9.34210905       1.28986662       0.63759990      -0.10776474       0.69672688       0.10980541      -0.04373279      -0.10337497
H       13.48027216      12.24080413       3.63425475      -0.01231956      -0.11627132      -0.42243903       0.15258899      -0.27036395      -0.08947225
H       13.76848705      10.06334061       4.27971980       0.18110402       0.46078780       0.93049869       0.11534494      -0.14911687       0.14042417
H       13.93872838      10.47000166       6.12013277      -0.11965721       0.10179146      -1.09481094       0.02010404       0.04871633       0.12740431
H       13.56336698      12.87578199       6.58383659      -0.12468002       0.38596328      -0.06151673       0.03882539       0.17241241      -0.03302774
H        6.86268146      11.22238624       5.05530137      -0.15914166      -0.24790174       0.16543080      -0.02787048       0.14522642      -0.16625012
C        9.20467506      10.00056540       0.62999793       0.74546857      -0.53758778      -0.72282771      -0.44633226       0.39623002       0.14088967
C       13.59564552      12.03942889       4.71569150      -0.39637678       1.28452315      -0.17982528      -0.26332333       0.18293683       0.27254209
N        8.71907352      10.14999981      16.92333102       0.50713648      -0.37347623       0.50548192      -0.66081691      -0.52503488       0.73344980
N       10.47956909       9.64710970       0.47826528      -2.03607155       0.49688176       0.76559766      -0.07062267       0.02319016      -0.39127196
N       13.84209404      10.79983932       5.09487235       0.19891496      -1.75599726       0.26967245      -0.29894851      -0.08694927       0.07964636
N       13.44438122      13.08488213       5.53531403       0.32471333      -0.51655925       0.50534161       0.54684288      -0.48527950      -0.01030172
Pb      11.42069917       7.11925124       4.70171905      -0.02638090       0.10420693       0.32990074      -1.19326444       0.17169023      -2.78571636
Pb       7.53599799       7.66186485       4.97678134      -0.36101789      -0.19041675      -0.08662152      -1.62660208      -3.48204173       1.56849990
I       13.42155524       7.99085856       7.11184063      -0.00391216       0.10496333       0.10167485       2.80113189       0.46802492      -1.78428489
I        9.34747070      13.82811466       6.85232820      -0.03514362      -0.22326673      -0.31831446       0.79439596       0.56966321       0.55510854
I       13.47517460       8.44042820       2.50419595      -0.18906592      -0.03686493       0.00556840      -0.26080076       0.70637911       1.26488195
I        9.40444609      13.23261588       2.53153902      -0.27664943       0.01565513       0.07749010      -0.00453372       0.52418906      -0.15939444
I       13.68914723      12.04379829      17.26895644       0.06647399       0.19282335       0.18731088      -1.05614777       0.31910498      -1.11610310
I        9.69883003      10.08243108       4.83522765      -0.10385852      -0.21872822      -0.00227124      -1.03816375       0.60005769      -0.41077449
H        1.54256897       1.87402621      15.17961830      -0.28369152       0.10802736      -0.01031941      -0.21135605      -0.06119176       0.01672650
H        3.81107134       1.74036554      14.44342007      -0.25083100       0.02839729      -0.23312950       0.16037415      -0.00322756      -0.08251906
H        3.48557739       2.14045522      12.77533887       0.00971773       0.07891288      -0.49012224       0.03580890       0.17579922      -0.07673590
H        1.13353137       2.62153027      12.27779844      -0.11083497       0.14416993      -0.46413579      -0.19348324       0.17159203      -0.10411806
H       31.38810198       1.40721406      13.86810886      -1.48444845       0.60387256       0.59325648       0.02915969       0.17602602       0.14519137
H        6.03325992       5.85159548      10.19531859       0.09253215       0.89226113       1.04077829      -0.16808872      -0.04238630       0.20804238
H        5.18752553       6.08766335       8.09543199      -0.10800763      -0.20484332      -0.24741240       0.21541816      -0.12099786       0.17026404
H        5.47496333       4.37921392       7.65428094       0.02061653       0.27881599       0.15945361       0.06710018      -0.05745397       0.02207539
H        6.74372806       2.99220876       9.53753608       0.02675237       0.18628520       0.16615008       0.03441669      -0.10653130      -0.13625202
H        6.97416722       3.81025017      11.10581932      -0.16169111       0.37316556      -0.78447047      -0.01369348       0.02009248       0.21319617
C        1.80405291       2.11582342      14.10082131       0.73269327       0.10608831       0.29781603      -0.84062096      -0.10334688       0.77920695
C        6.07621757       4.97704200       9.57642839       0.19272388      -0.36221713       0.17634697      -0.32911527       0.34643463       0.55038526
N        3.10764908       2.00486068      13.73117737       0.21741319      -0.17571849       0.76460536       0.52469216       0.82806285       0.55442324
N        0.88763216       2.53869855      13.26693379       1.24464115      -0.85384374      -0.52461761      -0.12254325       0.12074195       0.14058595
N        5.47965550       5.12237215       8.37698237      -0.19045940       0.26562158      -1.11595327       0.93399922      -0.26348837      -0.06518601
N        6.74233095       3.87698931      10.08175172       0.01826332      -1.39615104       0.34862935       0.16725987      -0.87098078       0.26434871
Pb       4.03427116      -0.17348483       9.42333526      -0.01553190      -0.08794377      -0.03285805      -0.25683716      -0.09116921       1.40064219
Pb      31.65951290      -0.80676888       9.54086872      -0.36268288      -0.32991504       0.45061428      -2.52132815       1.53839898       1.52203734
I        6.18117621       0.61743546      11.74019307      -0.02918364       0.15761419      -0.01114664       0.50866859      -0.09700756      -0.34333555
I        1.60027821       6.36955973      10.82603485       0.14240277       0.06014781       0.20910546      -0.77229383      -1.42061746       0.27187144
I        6.07475587       1.12410731      15.74283767       0.17582698       0.21722364       0.31700293       0.22187679      -0.97352603       0.84869246
I        1.57702860       5.81293162      15.37242518       0.12029027       0.11786032      -0.32282601       0.54879535      -0.69027827       0.83677683
I        5.61182041       4.83284694      13.37361794       0.15461783       0.31497341       0.09087102       1.06717269      -0.69123045      -1.51708852
I        2.18979067       2.56335417       9.84211421       0.10048520       0.13527979      -0.19678768      -1.08208125       1.00190785      -1.59640895
H        1.11274446      11.20274733       8.13934876      -0.08070070      -0.24836932       0.01260986       0.12232087       0.05292799       0.01851905
H        0.97440585      11.81620347      10.30971758       0.05410567      -0.68005418       0.01667288       0.05732811       0.00307672      -0.13670136
H        0.91023692      10.19456757      10.95860044       0.04521540      -0.72476590       0.53971916       0.06856112      -0.08206816      -0.08675792
H        1.03468981       8.34746754       9.13064302       0.03639849       0.05057046      -0.58634941       0.25160893      -0.01017565      -0.23379366
H        1.19044275       8.93515635       7.42370086      -0.12235794       0.11221400       0.56099637      -0.12689836       0.09629789      -0.08155668
H        4.71291708      10.97815904      14.31226681      -0.05619684      -0.04499072       0.35264906       0.05950170       0.04463347      -0.06368656
H        3.48317416      13.05913377      14.17774755      -0.06838335       0.06880028      -0.05480509       0.07255149      -0.04391380       0.00880994
H        4.87449097      13.98688098      13.42001280      -0.14060172      -0.21906666       0.21084378       0.10324771      -0.02916726       0.06627707
H        7.07719841      12.87085620      13.30386621      -0.29237863       0.52025881      -0.33390132       0.15217309       0.13800341      -0.19826165
H       13.48903338      13.95948085      13.76848615      -0.04603196       0.26972009      -0.06202909      -0.01410757       0.01755227       0.05100961
C        1.01761015      10.36812455       8.87111189       0.05103529       0.63996436       0.64000324      -0.48460819       0.00393963       0.22861849
C        5.20312611      11.99131816      13.98077656      -0.47315675       0.57874924      -0.74965207       0.13443251      -0.82405774       0.17837866
N        0.89623098      10.76961993      10.13669430       0.07623227       0.94151784      -1.71619454      -0.12262819       0.48889279      -0.30659077
N        1.04930698       9.12085430       8.43410267       0.06879211      -0.17483146       0.51126335      -0.99160118       0.56435082      -0.35641443
N        4.46386402      13.08255974      13.83169488       0.17297843      -0.07517227       0.12595296      -0.11267557      -0.33015100      -0.24854730
N        6.48471634      12.01213168      13.62658770       1.21359719      -0.55389373       0.04334729       0.26089272       0.64489789       0.07274466
Pb       3.61583702       7.40549748      13.30880887      -0.07028970       0.03469514      -0.00632252      -0.25041014       0.18588971      -0.11956944
Pb      31.17381302       6.22538332      13.54971743       0.33330235      -0.04125826       0.14955315       1.58712693      -2.18968622      -0.24544525
I        5.44645286       8.53428447      15.74965808      -0.14497424       0.04108985       0.05606246       3.03231446       0.52629789      -1.24847122
I        1.69741437      13.90532721      15.71820215       0.01175933       0.09062705       0.09933826       1.28978646       1.48067883      -0.38205175
I        5.89562862       8.81799539      11.32934081      -0.08821790      -0.12940855       0.08857998      -0.21286800       1.35470924      -1.32054746
I        1.47092959      13.91194792      11.52821848      -0.07969732       0.07110289       0.18229654       0.45560663       1.47931124       0.52203813
I        5.37234002      12.44616359       9.32276159       0.00672687      -0.27810530      -0.13402902       0.21085851       1.47055260      -0.98172436
I        1.57266180      10.09225496      13.63448263       0.13996127      -0.41363891      -0.08008034      -0.73873140      -0.73234577      -0.05428956
H        9.03368282       3.27649821      12.72480199       0.14597056      -0.53941231       0.18790158       0.09968600       0.07353807       0.14905183
H        8.81356314       3.95096209      14.86691446       0.13998376       0.16061283       0.07986303      -0.25916358       0.18383021       0.07768130
H        9.12780528       2.40597297      15.61408825       0.01271257      -0.23956492      -0.11480461      -0.01680950      -0.11015949       0.04048411
H        9.30085084       0.48819934      13.88499071       0.27220267       0.33336393      -0.27939285       0.19677927      -0.01317121      -0.20382979
H        9.46629224       1.01559410      12.21705138       0.06483065      -0.11105386      -0.55944538       0.04320283      -0.05381111       0.08500438
H       13.60046175       6.05979996       9.62913223       0.29048364      -0.01042707       0.59611270      -0.05897086      -0.31726692      -0.02194319
H       15.35552577       4.35780804       9.87176021       0.26910693       0.18804448       0.07507211      -0.06585024       0.04131143      -0.10349218
H       14.55272827       3.25436502       8.74315139      -0.28890598       0.21859090       0.10192671      -0.00201021      -0.05709117       0.24596573
H       12.35540651       4.02784088       7.86643992      -0.25421808       0.59575442       0.33847069       0.02707039       0.04352294      -0.12066724
H       11.68017907       5.62812691       8.25444832      -0.01132561       0.16080948       0.07659090       0.03027588       0.02554232      -0.09549358
C        9.12501292       2.49216107      13.51268591      -0.17607473       1.62040738       0.10456823       0.03633518       0.11928177       0.53373588
C       13.52592485       5.05185513       9.18600903       0.27414512       0.11753031      -1.02453208      -0.24360996       0.37398557       0.44048691
N        8.99576694       2.94548526      14.73867223      -0.15438394       0.35262890       0.28596566       0.27022214       0.22866523      -0.29938967
N        9.33850411       1.26282598      13.18857468      -0.03825616      -1.44176492       0.26074458      -0.39370590      -0.67081035       0.06561111
N       14.54637382       4.16743708       9.24258116      -0.50333262       0.04242414       0.36146027      -0.58632002       0.16418286       1.02060664
N       12.42885564       4.90634890       8.41652205       0.28166974      -1.55629690      -0.54092914       0.58141399       0.57652244       0.34694870
Pb      10.94867601      29.76507797       9.11109345       0.43055592       0.08041117       0.36190072      -0.08470333      -0.74328049      -0.45580942
Pb       7.06877150      29.92807189       9.22192274      -0.20137775      -0.08167239       0.16338788       1.19972655      -2.30811131       1.06109071
I       13.60080143       0.42009583      11.79494537       0.05630672      -0.09470994      -0.44740852      -0.01060866       2.31050848       2.55322085
I        9.39748791       6.00389325      11.44400219      -0.02625173      -0.20178073      -0.32340492       0.18808677      -2.41064227       1.92545170
I       14.30458512       1.02871582      15.94091654      -0.15267706       0.52923396      -0.15855778       0.46070086      -0.65181091       0.21849551
I        9.58841981       6.37247329      15.98849055       0.07111889      -0.07135116      -0.14923146       1.30464355      -0.80405559      -1.56880627
I       13.32147119       4.41205660      13.14499659      -0.10901779      -0.08051551       0.03818558       0.69273288      -1.14180117       0.73950426
I       10.09593190       2.06052067       9.58683086      -0.11659726       0.15512076      -0.08903904      -0.54690079      -0.30852652      -0.42708481
H        9.01064644       9.91767548      10.27522736      -0.23014427       0.24044788       0.43464731      -0.00799098      -0.07277284      -0.05491446
H        7.57596846      10.40917760       8.56395907      -0.33957234       0.20820387      -0.15408524      -0.07575704       0.07188369      -0.02181242
H        8.76860260      10.09564811       7.29107258       0.02874075       0.19896048       0.08081211      -0.08642072       0.05107989       0.00836616
H       11.09424092       9.42276077       8.24193785       0.64843962      -0.09059564      -1.40622286      -0.03146191       0.15867958      -0.12408624
H       11.15556998       9.26850659       9.92163488       0.63759990      -0.10776474       0.69672688       0.10980541      -0.04373279      -0.10337497
H       13.65825184      12.16720167      12.26602301      -0.01231956      -0.11627132      -0.42243903       0.15258899      -0.27036395      -0.08947225
H       13.94646673       9.98973815      12.91148806       0.18110402       0.46078780       0.93049869       0.11534494      -0.14911687       0.14042417
H       14.11670806      10.39639920      14.75190103      -0.11965721       0.10179146      -1.09481094       0.02010404       0.04871633       0.12740431
H       13.74134666      12.80217953      15.21560485      -0.12468002       0.38596328      -0.06151673       0.03882539       0.17241241      -0.03302774
H        7.04066114      11.14878378      13.68706963      -0.15914166      -0.24790174       0.16543080      -0.02787048       0.14522642      -0.16625012
C        9.38265474       9.92696294       9.26176619       0.74546857      -0.53758778      -0.72282771      -0.44633226       0.39623002       0.14088967
C       13.77362520      11.96582643      13.34745976      -0.39637678       1.28452315      -0.17982528      -0.26332333       0.18293683       0.27254209
N        8.54109384      10.22360228       8.29156277       0.50713648      -0.37347623       0.50548192      -0.66081691      -0.52503488       0.73344980
N       10.65754877       9.57350724       9.11003354      -2.03607155       0.49688176       0.76559766      -0.07062267       0.02319016      -0.39127196
N       14.02007372      10.72623686      13.72664061       0.19891496      -1.75599726       0.26967245      -0.29894851      -0.08694927       0.07964636
N       13.62236090      13.01127967      14.16708229       0.32471333      -0.51655925       0.50534161       0.54684288      -0.48527950      -0.01030172
Pb      11.59867885       7.04564878      13.33348731      -0.02638090       0.10420693       0.32990074      -1.19326444       0.17169023      -2.78571636
Pb       7.71397767       7.58826239      13.60854960      -0.36101789      -0.19041675      -0.08662152      -1.62660208      -3.48204173       1.56849990
I       13.59953492       7.91725610      15.74360889      -0.00391216       0.10496333       0.10167485       2.80113189       0.46802492      -1.78428489
I        9.52545038      13.75451220      15.48409646      -0.03514362      -0.22326673      -0.31831446       0.79439596       0.56966321       0.55510854
I       13.65315428       8.36682574      11.13596421      -0.18906592      -0.03686493       0.00556840      -0.26080076       0.70637911       1.26488195
I        9.58242577      13.15901342      11.16330728      -0.27664943       0.01565513       0.07749010      -0.00453372       0.52418906      -0.15939444