768
Lattice="31.52003920688824 -1.0395494997101957 0.3212732111417801 -0.9162685860741572 30.3547437254124 0.028757121508259497 0.35595936046071336 -0.14720492652102254 17.2635365134837" Properties=species:S:1:pos:R:3:forces:R:3:momenta:R:3 energy=-3622.7014570299216 stress="0.0 0.0 0.0 0.0 0.0 0.0 0.0 0.0 0.0" pbc="T T T"
H        1.33703189       2.48196796       7.02520803      -0.28065573       0.48690924       0.16580139       0.17247574       0.09673356      -0.14503552
H        3.58570370       2.58328213       6.09549039       0.97810599      -0.39833186       0.71987100       0.08335707       0.41403217      -0.07846621
H        3.04751773       2.92915295       4.44870314       0.71717438      -0.09411953      -0.81988743      -0.15853059      -0.11224494       0.15065953
H        0.55861435       3.06900441       4.13963177       0.00722243       0.35263440      -0.39933628      -0.31807891      -0.10144789      -0.01105230
H       -0.48452838       2.96584775       5.68614979      -0.29127812       0.04300240      -0.65177754      -0.07468553       0.09898554      -0.10156208
H        5.08675914       6.46011111       1.78723678       0.08325994       0.10121733      -0.08809162       0.07612640      -0.17944093      -0.13590979
H        4.80395846       6.58359849      -0.84443787       0.36993899      -1.18521783       1.62419718       0.04502460      -0.10834052      -0.14321415
H        4.87184056       4.81747998      -0.79119178       0.16747855      -1.19245368      -0.43363453      -0.01788073      -0.13612477       0.05031579
H        5.31643256       3.45003171       1.29364270       0.06145831      -0.23812791      -0.67219195      -0.19212704      -0.01763647      -0.31206848
H        5.27868504       4.41924045       2.83580679       0.18415927       0.00396446      -0.70363019      -0.13289138      -0.18791588       0.34577962
C        1.53632555       2.79664915       5.92760896       1.02035403      -0.60628042       0.40607036       0.47224919       0.12496330       0.58255606
C        5.12645965       5.53880814       1.15480283      -0.61664076       1.38148461      -1.41346425      -0.06315070      -0.05306422      -0.06165399
N        2.84809465       2.81219524       5.45585285      -0.79320733       0.06998204       0.04044248       0.04637487      -0.58886081      -0.06395888
N        0.50096365       3.04210969       5.15987178      -1.22027167       0.19538289       0.43709232      -0.24976257      -0.20486356       1.56689826
N        4.89034529       5.63515426      -0.17553425      -0.24939661       1.99693864      -0.85113427       0.06723304      -1.11852869      -0.36637371
N        5.37787584       4.39472416       1.73631361       0.21105859      -1.05924977       2.70407784       0.67546193       1.03549015       0.62688457
Pb       3.31343117       0.23967408       1.02567300       0.57315708      -0.39261154      -0.19785213       3.34569953      -0.68638701      -5.71124407
Pb      31.41212263      -0.14632675       1.63977876      -0.48960296      -0.12245278      -0.52760081      -0.04817007      -0.06257270      -0.84269121
I        5.41613353       0.75225421       3.29404722       0.33113004       0.59800542       0.23258993      -5.23327271      -1.33751002       1.77170770
I        1.34887322       7.05022504       2.77618086      -0.06400353       0.02546505       0.65822160      -0.30614550      -1.12283227       1.09881764
I        5.80304488       1.68628563       7.59765720      -0.07919658      -0.11518314       0.07613438      -0.44709106       1.19377503      -1.06731809
I        1.82118298       6.34939729       7.43883414      -0.19613406       0.09501996      -0.18441316       0.00320878      -0.93289446      -2.43487447
I        5.19663568       5.41336927       5.24002488       0.19557716      -0.04248641      -0.14539728       0.37338862      -2.52764085       2.74800594
I        1.94573059       3.22541865       1.26750246      -0.07346728       0.06955173       0.23810002       0.77772384       2.29514961       6.43753599
H        2.24234389      11.70426749       0.04951740       0.07213981       0.58953065      -0.31675818       0.05640511      -0.04531390      -0.03645917
H        1.50664945      12.26947583       2.39222208      -0.26234955      -0.37065138      -0.37597473       0.11943907      -0.12820801      -0.38124473
H        1.25754739      10.49339307       2.71752555      -0.34159615      -0.02154668       0.75064009       0.18961825       0.26419226      -0.13128039
H        1.31294047       8.83598794       1.11306145       0.52003046      -0.43030055       0.01148350       0.02930185       0.28773438      -0.18318074
H        2.59073815       9.49458221      -0.53250764      -0.70319998       0.07575044       0.75548062      -0.13432577       0.05413388       0.05333004
H        5.13848650      11.76348090       5.64850513      -0.39345836      -0.05211496       0.34921641      -0.20935261       0.09865844      -0.00295295
H        3.30945702      13.49493932       5.26762684       0.09387998      -0.63931449      -0.11877249      -0.17142873       0.06584306       0.01997317
H        4.35609908      14.31853148       4.14820675      -0.09446624      -0.73769525       0.37886065       0.13100375      -0.07676967       0.01457341
H        6.73098497      13.71362718       3.90714179      -0.31174495      -0.39091413       0.41025204       0.00428101      -0.13018451       0.10126285
H       13.50360904      14.66225491       5.12558762      -0.34435606       0.42276454      -0.33287810       0.28955109      -0.02063226       0.22631938
C        1.85479356      10.92566827       0.81986927       0.26051710      -0.98158783      -0.99987773       0.46450151      -0.47505087      -0.48319004
C        5.21292996      12.64925461       4.99424099       1.64688730       0.86424239      -0.79638019       0.29148957      -0.10967539      -1.03151215
N        1.33259701      11.26003657       2.02906652       0.24927040       0.10649139       0.63496416      -0.35361058       1.20741356      -0.56577976
N        1.87956664       9.64158733       0.44558227      -0.01661592       1.08360637      -0.28653274       0.09397131       0.35982146      -0.25456439
N        4.15364503      13.42782129       4.67942222       0.09740690       0.84556686      -0.23073397       0.75473425      -1.04912240       0.94419666
N        6.48696952      12.89591282       4.51393683      -1.04401770       0.16335224       0.57166205      -0.34143930      -1.64003407       0.49825474
Pb       3.30751129       8.19213241       5.33665337       0.44786393      -0.35547764      -0.30112717      -0.34611504       2.74294442       4.23652536
Pb      30.96699340       6.69443156       5.97551190       0.40195942       0.35953484      -0.06769986      -5.47914767      -0.38621470      -1.62172574
I        5.41200414       9.45487023       7.46931262       0.08248173      -0.15736326      -0.36453520       0.02354410      -1.96339846      -0.05647283
I        1.42970096      14.29977715       7.34959090       0.23610230       0.22716775       0.03902265       0.15892351       2.50670213      -5.20844590
I        5.64296251       9.01161726       2.94483797      -0.17241648       0.18146088      -0.05680719      -0.03675139      -0.76042797      -1.21844303
I        0.84080771      14.66787091       3.28193314       0.03225469      -0.23186001       0.00990081       2.82001454       0.36365842       0.45600824
I        4.71400986      12.73602129       0.90759720       0.10278946      -0.15606450      -0.23608921      -0.30919583      -1.50735300      -3.64570624
I        1.43052426      10.53349434       5.68656068      -0.14578725       0.14113665      -0.10221286      -1.39332977       1.58418862       5.02086824
H        9.33108618       3.57798552       4.27896029      -0.11426401       0.12476352       0.49705286      -0.01079992       0.01611838      -0.21120138
H        9.33719191       4.60605199       6.52015913       0.04087422      -1.11313381      -0.39451205       0.13454668       0.19217253      -0.42535164
H        9.41956063       3.04481050       7.33011984       0.19634407      -0.08032303      -0.30311540      -0.04714666       0.14636075       0.03995850
H        9.99726987       0.95580241       5.61912957      -0.33430995      -1.25037411       2.12738201       0.16594046       0.06051548      -0.15481076
H        9.52047292       1.35974883       4.05463134       0.33870015       0.04397596      -1.53091812       0.00830175      -0.15236511      -0.07836387
H       13.12145742       6.58569528       1.31796151       0.47138066       1.26766283       0.94503365       0.02110268      -0.01360499      -0.05302395
H       15.23513857       5.46081355       1.80820552      -1.17708560      -0.70260544      -1.21343334       0.13499670      -0.33431961       0.34357489
H       14.44683461       3.70662599       1.33401977       0.42096338      -0.08907352       0.00503070       0.23847843      -0.04698231      -0.04157326
H       11.94334195       3.48597104       0.95880141      -0.31380738       0.21967332       0.21833525       0.44049463      -0.15011248       0.10968423
H       11.12854680       5.13159777       1.20456291       0.83684111      -0.88481286      -0.40650542       0.02329483      -0.04557392      -0.10411929
C        9.46448264       2.96706347       5.22523438       0.00604307       0.61611781      -0.04792532       0.43483802      -0.07224504      -0.44856684
C       13.22466203       5.40903062       1.25806560       0.44315341      -1.00597067       0.66463880      -0.04793532       1.13453636      -0.20174651
N        9.44237145       3.54826861       6.41720280      -0.19125234       1.23682444       0.65701862       1.85213910       0.76235948       0.04486034
N        9.67795233       1.69653495       5.00522494      -0.05532259       0.44842250      -1.16275565      -0.09503500       0.36430472       0.17328168
N       14.42371271       4.85604663       1.39991092       0.48662820       1.02822465       0.80543406      -0.52467563      -0.01350919       0.09060103
N       12.00813170       4.57016737       1.17154890      -1.05955004       0.41153520      -1.08330043      -0.29838541      -0.02074223       0.63474973
Pb      11.63129486      -0.01432113       0.83668092      -0.34514294       0.35070080       0.20978094      -2.14903426       2.30707412      -1.76454019
Pb       7.45094603      -0.00525389       0.84990924       0.28563681      -0.04814173      -0.00437950      -0.04213968      -0.63683414      -1.18337643
I       13.11912772       1.31365059       3.39631263       0.11861644       0.17894642       0.27529631      -0.95832682       1.13130383      -0.95171819
I        9.66939981       6.46151191       3.27914788      -0.35682900       0.04115457      -0.06116649       2.18913221      -2.32063203      -0.48897203
I       14.00575965       1.73492159       7.87269228      -0.13983760       0.32052422      -0.09823889       0.91984673      -0.85081173      -1.03544037
I        9.19211683       6.71515998       7.72711540      -0.03999304       0.25644334       0.06100180      -0.04741373      -4.93204169      -0.70436442
I       12.98744978       4.97559344       5.31893985      -0.23786910      -0.17547891       0.05578650       1.92280430      -2.40672537      -3.53080504
I        9.48540368       2.58706985       1.36756126      -0.28091950      -0.10084306      -0.09242358      -0.87002789       0.46657095      -0.32982058
H        9.17607389      10.48917287       2.13762143      -0.52331835       0.23554105      -0.64765152      -0.01810628       0.40479151      -0.04764770
H        7.61134372      10.84527652       0.34236098      -0.64194144      -0.13920884      -0.07085234      -0.13242756      -0.01892040       0.00932866
H        8.66961020      10.39858045      -1.00004567       0.30081799      -0.08977760       0.48863642      -0.21173655       0.06356590       0.28524109
H       11.01032675       9.93976523      -0.11260468       0.34878065       0.06728696       0.58468356       0.12820599      -0.08658747      -0.07665575
H       11.40015624      10.16829515       1.67395329       0.18519398      -0.27768415      -0.14742325       0.09835923      -0.25795801       0.03597291
H       14.05543380      12.86851835       3.85166493      -0.39901554      -0.67962624      -0.18624755       0.09071572      -0.09152008      -0.27819134
H       13.83834270      10.62475294       5.02041067       0.20378822      -0.50653919      -0.32024891      -0.11213572       0.04460487      -0.01648648
H       13.52998094      11.36774120       6.62169159       0.01780995      -0.18506496      -0.46815754      -0.12308869      -0.12314017      -0.09611819
H       13.03664091      13.76110773       6.73957662       0.04458511      -0.27351452      -1.14363203      -0.04343262      -0.23577582      -0.34111240
H        7.41485911      12.41153601       4.98565874      -0.18881087      -0.13231477      -0.33455723       0.13549182       0.25849129      -0.30015992
C        9.41385196      10.36672019       1.05313006      -0.19553991       0.80855285      -1.33220588      -0.30788531       0.24384442      -0.22089785
C       13.67914045      12.66993645       4.97649421       1.33338759      -0.76133181       0.91222248      -0.13038213      -0.82051683       0.49910017
N        8.49703459      10.46603739       0.03324046       0.99126410      -0.37986419       2.24335715      -1.10402596       0.69940466      -0.55272128
N       10.73493492      10.20151748       0.86959126      -0.60927304      -0.36074558      -0.82117862       0.48229044       0.52076179      -1.41202314
N       13.82380658      11.47076322       5.57331319      -0.96486716       1.98844396      -0.16784626      -0.00114917      -0.80306770       0.98336176
N       13.35311826      13.76120842       5.65380844      -0.01005703       0.20411127       1.61773045       0.51633648      -0.08363363      -0.90480760
Pb      11.30661536       7.69491173       5.57966798       0.25190214       0.11000897      -0.03449092      -1.54642545       0.91006541       3.13167315
Pb       7.43647624       7.99920342       5.12773702      -0.28961692      -0.22478690       0.06206109      -2.53740938      -1.95263608      -0.49638392
I       13.43795143       8.81996995       7.89166503      -0.14096770      -0.15279545      -0.03579130      -1.88123794       2.74837238       0.45851039
I        9.12147631      13.90457741       6.97482337       0.27929774       0.14283651       0.24209388       0.29229021      -1.22855305       0.93380075
I       13.42245173       8.69667775       3.35552445      -0.09686864       0.16352079      -0.21166816       1.03226153       2.07350334      -2.80632098
I        9.06571484      13.55260336       2.61797274      -0.30687656       0.25510416      -0.30052027      -0.70990899      -3.24186309      -1.51713314
I       13.13275669      12.76039970       0.73356614      -0.02973193      -0.03176941      -0.04617265      -0.06680789      -0.75285705       0.14512762
I        9.20844509      10.49183381       5.06295060       0.30118645      -0.09607570       0.26427864      -2.60302483      -0.84433721       0.49372247
H        0.93113717       2.85999097      15.52126363       0.12338444       0.08804667       1.02353275      -0.19332107      -0.12120876      -0.06295535
H        3.05848256       1.96834972      15.22060866      -0.94064134       0.54542860      -0.76695257       0.05398860       0.00724677      -0.18965761
H        2.99227271       2.02912716      13.52614862      -0.08982050       0.30053653      -1.13118293      -0.01312121       0.43542309      -0.27055331
H        0.61678039       2.92734427      12.61485767      -0.72017957       0.38978450       0.99904188       0.08414254       0.06540576       0.16657351
H       -0.55716030       3.47643973      13.90552025       0.23602584      -0.10324104       0.07446625       0.02501181      -0.53389467      -0.08778289
H        6.32545374       6.02734319      10.97559994       0.55388113      -0.00111267       0.21739873       0.31004005      -0.10319627       0.06241589
H        6.55397405       7.21693180       8.73933532      -0.02724992      -0.20867361       0.33617009       0.01568621       0.04218138       0.12497345
H        6.43255569       5.71106969       7.89262851       0.17432773      -0.88874697      -1.14466334       0.11836553       0.13852070      -0.04271800
H        6.12639611       3.44806242       9.30841241       0.41945508      -1.10356984      -0.70015801      -0.05360676      -0.07492193      -0.01368721
H        6.24668871       3.62640696      11.09350053       0.12528843      -0.49883916       1.25769388      -0.00692723      -0.04988423       0.04499144
C        1.29904869       2.76395254      14.52358141      -2.54816503       0.97674039      -0.19990928      -0.29724858      -0.79301727       0.12305990
C        6.45662523       5.44723205      10.00898032      -0.14880643      -1.43970616      -0.25140922       0.70676010       0.50800030       1.09141106
N        2.52576046       2.38025821      14.38006143       1.79164963      -1.19993156       1.26000215       0.11808831       1.00393649       0.07138741
N        0.36017269       3.10235369      13.63586169       2.32342456      -0.87893550      -1.34419846       0.12864561       0.28843732      -0.33910729
N        6.59499512       6.16925473       8.78958522      -0.36315382       0.83468887       0.96597051       0.76646133       0.48898676      -0.01503711
N        6.39223061       4.04344369      10.13318432      -0.97670794       3.28797321      -0.98422357       0.62387652      -0.11791804       0.19343417
Pb       3.55110028       0.58169806       9.86993811      -0.46357271      -0.45515608      -0.30231751      -0.00271158      -2.51915857       2.51627094
Pb      30.91247175      -0.42669795      10.08632404       0.37334523      -0.33908170       0.13121839       3.03880869       8.25228002       0.95222794
I        5.66032823       1.00937499      12.03549853       0.28900130       0.19132801       0.32910540      -0.19018350      -0.67311570       0.54663528
I        1.84517129       7.05629137      11.30173628      -0.16693191      -0.06802423       0.33450704      -4.66619034       3.01373895       1.37566316
I        5.76146137       1.76169471      16.40648888      -0.15320627      -0.05193245      -0.18179683       4.00543535      -2.50045832      -2.34858471
I        1.54400384       6.47926581      15.85868279       0.49266945      -0.34140645       0.05632901      -2.60918618       1.27764576      -1.15588965
I        5.68792236       5.01289049      13.21853964       0.06513119       0.22741543       0.66732039       2.14286795       1.29532697       1.48946397
I        1.51127485       3.06230878      10.16181998      -0.00448814       0.07416796      -0.04464193      -0.18852606      -4.22884810       0.39795014
H        1.95168528      11.74553181       8.66442967      -0.45162705      -0.91392800       1.33875748      -0.06936472       0.34584342      -0.06276900
H        0.83643621      12.26867422      10.90607297      -0.10013409       2.08126648       0.78131697       0.12039554       0.07343543       0.09108219
H        0.77088407      10.54989368      11.50488235      -0.23698026       1.88209840      -1.51882210      -0.12164990      -0.06100267      -0.33816650
H        1.69670440       8.92627587       9.84452884      -0.11896633      -0.28536769       0.70448783      -0.11405528      -0.20155498       0.00308795
H        2.32897142       9.48497961       8.26655688      -0.17226382       0.34892579      -0.26266815      -0.20593238      -0.00822068      -0.05935739
H        5.27280158      11.41562855      14.58802605       0.16799719      -0.54753124       0.59479430      -0.18267320       0.10397682      -0.12111975
H        3.34976034      12.93941342      14.56103401       0.65792282      -0.06237777      -0.29460808      -0.22813357      -0.08100484      -0.13840604
H        4.12775021      14.01650897      13.33901322       0.06641553      -0.82433798       0.31067109      -0.10268946       0.20841506       0.04340562
H        6.40161018      13.46143246      12.53573398       0.46735475       1.15974729      -1.16330767       0.26946538       0.19745564       0.35998786
H       12.63458301      14.32139442      13.39967726      -0.04428615      -0.75901804       0.65656065       0.17059489      -0.22495295      -0.08597057
C        1.54360555      10.94624595       9.51403652       0.37721869       2.56166150      -0.59195660      -0.25630654       0.38453280      -1.01542123
C        5.30275431      12.33328419      13.97719498      -1.59038226       1.78320932      -1.81176575       0.22126449       0.58972132      -0.89205128
N        0.94188436      11.32039545      10.72127266       0.28003624      -4.14281934       0.50589350      -1.29128698      -0.18038720       0.97998727
N        1.82067057       9.73182035       9.21587334       0.49425837      -1.73572779      -1.13894079      -1.32881406      -1.07047632      -0.38217138
N        4.17179111      13.10488050      13.90954205      -0.51662356       0.58337989       0.79065945       0.66692229       0.98682881       0.61198206
N        6.33956645      12.60523463      13.10065387       0.73511460      -2.73996051       1.80269193      -0.81555350      -0.76616767      -0.16389882
Pb       3.86761531       7.75188279      13.67848426      -0.31844188      -0.22796349       0.01946513       2.38584451      -2.96397125       0.92508861
Pb      31.38995047       6.99583839      14.30326216      -0.10224172      -0.69180459       0.06644812       1.98383311      -0.93434317      -1.66066554
I        5.75211027       8.87723074      16.08477021      -0.16289005       0.15022190      -0.19279725       2.78013830      -0.56791018       0.14286350
I        1.20479499      14.02755008      15.99503038       0.21600604       0.14338902      -0.08767941       0.95754205      -2.76959986      -2.68008982
I        5.80944657       8.76141864      11.42910703      -0.09228714       0.46842614      -0.10559703      -0.57962433       0.26523716       2.14142102
I        1.44358838      14.38731182      11.77856645      -0.17330627       0.68749986      -0.16758473      -0.69557575      -1.06669368      -1.93636909
I        5.29490417      12.75649470       9.46130974       0.06124263      -0.02495361      -0.12242308       0.54687615      -0.41448373       1.36042025
I        1.97879560      10.32873946      14.25782014      -0.04886897       0.07884479      -0.24939991       0.49765021      -0.98215341       0.26459161
H        9.21314130       3.63337361      13.04511077       0.33859055      -0.13302017      -0.13125314       0.37895935       0.11610174      -0.04288537
H        9.22823380       4.30552530      15.32404053       0.01122076       2.50494589       0.19767685       0.09430947      -0.00850317       0.20275006
H        9.59413754       2.70685595      15.88964699       0.04711276       0.80952402      -0.44635773      -0.06689553       0.04361131       0.07928714
H        9.81099115       0.92104488      14.19159809       0.13843153      -0.90786291       0.85503819      -0.34298621      -0.12579834      -0.02170907
H        9.73504603       1.38191844      12.52892551      -0.12061333       0.30574035       0.22504874      -0.37691820      -0.29362324      -0.13212230
H       12.52047623       6.14293994      11.08196958      -0.06604758      -0.42822603      -0.85988015       0.01730216      -0.13565503       0.05551473
H       14.77480545       5.34690208      11.08313899       0.35088512      -0.13115276       0.18427737       0.35073188      -0.05347276      -0.21578398
H       14.64747531       4.32260774       9.38758658      -0.27196532       0.85216275       0.96309934      -0.20457360       0.05768876      -0.20312836
H       12.73953984       4.34634701       8.13112240      -0.79604607      -0.52696322      -0.79376893      -0.16950245      -0.11014904      -0.01338525
H       11.24474569       5.37226504       8.87831222      -1.16292922       0.25634122      -0.57318923      -0.04786043      -0.23890812      -0.10264654
C        9.46977315       2.89670186      13.85622262      -0.44881185       1.79388933      -0.05524934       0.09930313      -0.24243845       0.43258293
C       12.94208645       5.46434446      10.08955877       0.17054534      -1.43784814       1.03939589       0.41298498       0.71114149       0.64385328
N        9.46960154       3.38379521      15.09063238       0.00136577      -4.38784378       0.20543620      -0.94916571       0.85111908       0.03424877
N        9.68451480       1.65642243      13.51814414      -0.00334958       0.37021723      -0.85958499      -0.91056632      -0.41268022      -0.97525027
N       14.12225838       4.85482892      10.44763519      -0.15945754       0.41128379      -1.43939946      -0.73723624       0.12567526      -0.03023438
N       12.21738046       5.05352134       8.85836792       2.11253539       0.94822091       1.36377665      -0.46452388       0.64045134       0.93447920
Pb      11.51480161       0.37800693       9.95042508       0.61691187      -0.06326193      -0.21364633      -3.99173162      -2.03545106      -0.77238663
Pb       7.66481054      -0.03479184       9.62754042      -0.17114040      -0.09773226      -0.21283799      -0.97772372      -1.74370305      -3.40068264
I       13.27724343       1.70902648      12.32072572       0.30692762      -0.38761672      -0.21891706       0.98630736       2.88181215      -1.71051414
I        9.94625739       6.96943992      11.39518395      -0.14124119      -0.25332983       0.50707072       1.10303483      -1.64388648      -1.10158551
I       14.67058978       1.56951999      16.84933523      -0.06751560       0.23718931      -0.20189145      -2.16911198      -0.79864405       1.19803873
I        9.32956253       6.58143559      16.24676649       0.35849042       0.19130512      -0.10377216       5.85817633       0.80574984       0.21169153
I       12.76223610       4.87585100      14.17230002       0.99801000       0.16305735       0.00647904       1.42086868      -2.00523326      -0.91496169
I        9.56970786       2.76113643      10.11385256      -0.39698569      -0.16294316      -0.22903619       2.72051136       2.46563056      -1.90704936
H        8.97383453      10.62513471      11.09839071      -0.24817250       0.14645931       0.31959201      -0.16307746       0.06409208       0.17736403
H        7.72777529      11.56015643       9.25689013      -1.51147798       0.54907488       0.06842187       0.25133168       0.10979322      -0.11300272
H        8.96976876      11.15997841       8.12901796      -0.14105168       0.01884790      -0.40716597       0.23225170      -0.15720162       0.25773340
H       10.85585617       9.78469105       8.88991076      -0.17582977       0.31046656       0.21200391       0.07721885      -0.39349642      -0.14239967
H       11.01567704       9.71956759      10.57647915       0.86744505      -0.54235719       1.14490149       0.06764164      -0.05494072      -0.04173109
H       13.37462156      12.02394527      12.82860172      -0.10727611       0.28603859      -0.05084962      -0.03215441      -0.03172645      -0.58325402
H       14.24154334      10.50632252      14.57255961       0.20748214      -0.97613939      -0.39551289      -0.40007897       0.40481040       0.02791872
H       14.22127289      11.92945886      15.82739468      -0.09082536      -0.97199177       1.79720088      -0.00601147       0.24347892       0.31359541
H       12.76086122      14.10379393      15.21188287       0.18866417      -0.51733200      -0.01404254      -0.06140005      -0.02418246      -0.12491416
H        7.11657165      11.87450330      13.07591201       0.20289833       0.68073909      -0.15249459       0.00562560      -0.17338480      -0.32850301
C        9.31418592      10.60997427      10.07365904       0.19884862       0.22941741      -1.27868334      -1.13382459      -0.24101983      -0.61339520
C       13.40328219      12.38267732      13.90814326      -0.01130802      -0.55459514       0.19418806      -0.36139750       0.04444554       0.56382977
N        8.61907909      11.17190936       9.08122474       0.57359374      -0.59350725       0.24022118       0.55668145       0.23205312      -0.13820322
N       10.47603911      10.05687547       9.82187317       0.48059939      -0.37146745      -0.53214123      -0.30634113      -0.41498191      -0.71960374
N       13.99738965      11.49104841      14.83353385      -0.10069448       1.91237050      -1.19793771       0.29731770      -0.73794857       0.26015939
N       12.81351127      13.62734641      14.22887510      -0.06890979       1.79142013      -1.45440504      -0.71259164      -0.61122758       0.05093026
Pb      11.83060701       7.62680923      14.07517553      -0.77914071       0.11789369       0.01651710      -0.30373367      -3.63112181       0.68503909
Pb       7.63562541       7.67649916      13.71423301       0.80943743       0.00058536       0.10474338      -1.97194182       0.06719605      -1.29666595
I       14.06501815       8.51423005      16.14960035      -0.07058625      -0.10382719       0.57480194      -2.41945784       1.11311257       0.57799057
I        9.19496997      14.58707565      15.47738058       0.23669887      -0.11725148      -0.38661530      -1.13530735      -1.90971549       2.04697231
I       13.82564388       8.93952141      11.82336269      -0.01426458       0.08791937       0.41493361      -1.45870673       0.32280468       0.61345361
I        9.39056670      13.96963413      11.23234877       0.05589359       0.03363445       0.24877275      -0.99486802      -2.18384217       1.59355879