768
Lattice="25.244031463055336 -0.051139010145229986 -0.15563925591508607 -0.008975214029691772 25.575374942549175 -0.11406019386377196 -0.3474594723078396 -0.009706484009668169 25.26731789926129" Properties=species:S:1:pos:R:3:forces:R:3:momenta:R:3 energy=-3632.9734924153236 stress="0.0 0.0 0.0 0.0 0.0 0.0 0.0 0.0 0.0" pbc="T T T"
H       10.28981812       9.29763660       4.32597110       0.06401431       0.31209793      -0.11372344      -0.32387028       0.13450073      -0.12229411
H       10.35937400       3.06638825       2.27489124      -0.03900699       0.69448253       0.10082808       0.09806967       0.04417678       0.08815017
H        8.94880806       2.90054556       9.61451216       0.28819862       0.51444591      -0.20533760       0.01973593      -0.01475026      -0.17188718
H       10.45808142       9.26669030       9.15888322       0.62932672      -0.34033495      -0.35359212       0.10592407       0.09116470       0.02876616
H       12.22136070       9.93379645       2.79243999      -0.94954713       0.37881369       0.40388334      -0.12289193       0.11644588      -0.06047187
H       12.03927083       4.70113929       2.72043669      -0.64129802      -0.04012208       0.43958883      -0.02469704      -0.17718922      -0.05978687
H        2.22672746      10.39592111      10.36879893      -0.64212998       0.25329590       0.38020995       0.14382340      -0.26135873      -0.10160488
H        9.64857734       9.05032524      11.12555028      -0.70904962       0.64838623       0.29431612       0.19481488       0.02388545       0.23903552
H        4.91856310       4.26371509       2.09988889       0.04093509      -0.14108225      -0.31916577       0.06984797      -0.13651151       0.17527628
H        3.44833979      11.98672197       2.79819952       0.64917207      -0.47713016      -0.08723853       0.04714031       0.08208415      -0.12944801
H        3.03193383      11.67405727       9.31810521      -0.18104345       0.45025198      -0.06225486       0.18757762      -0.28643259       0.19407279
H        8.77784734      10.80209593      11.25337053       0.23924962      -0.06802943      -0.08357458      -0.14730064      -0.14424496      -0.15289807
H        5.01719138       5.12492646       4.42799814       0.49036932       0.82174773       0.19446975      -0.06024431      -0.18399933       0.12925807
H        3.05082109      11.55306782       5.26843733      -0.32837510       0.31857357       0.01400241      -0.09131586       0.46698425       0.08761582
H        5.61241907      11.23200862       8.92946372       0.39638653       0.32310747      -0.23550122      -0.02878196      -0.29412376      -0.05174179
H        4.26724317       5.28782158      10.25493550      -0.04172687       1.18583392       1.12045196       0.08280238      -0.06333900       0.11698178
H        8.21242874      10.59883208       4.13430889       0.79545756       0.28096305      -0.35056376       0.06311825      -0.03619657       0.13032038
H        3.71305825      10.01699958       5.80054090      -0.15948094      -0.75025751       0.83223647      -0.15679360      -0.33305725       0.32693359
H        8.65292352       4.56232747      11.23662540      -0.08002602      -0.00288336       0.48838789      -0.24949038      -0.13644629      -0.00354539
H        5.21237047       4.45934477       8.99701803      -0.76617889       0.33647828       1.00799528      -0.01937388       0.04346079      -0.01556008
C       10.25286976      10.21130790       3.67480115      -1.85233115       1.81975636      -1.16966229       0.95673969       0.53092332       0.29467142
C        4.06970273      10.30768830       3.85775301      -0.17011989       0.30323982      -0.48628460      -0.11516530       0.64079000       0.21619834
C        4.18829864      10.14151890       9.96208468       1.55223433      -1.84272138       0.19026641      -0.23602542       0.45756075      -1.14170440
C        3.56467410       3.43884454       9.58924426      -1.32320586       0.08578735      -2.00846261      -0.56595712       1.11621221       0.03890260
N        4.04983313       3.74212730       2.36919309       1.14762585       1.11153475       0.33465022       0.54898486      -0.08224081       0.17222005
N        4.01271587      11.09370905       2.79010996      -0.63901045      -0.07881257       0.78832148       0.18087347       0.40832407       0.02690384
N        3.08866033      10.82946685       9.89965193       0.28720638       0.53215090      -1.13229896      -0.02812663      -0.04583950       0.07212808
N        9.38687187      10.07024334      10.71143760       0.80262923      -0.93104716      -0.42656817      -0.35483015       0.57732111       0.36256942
N        4.16987793       4.53794168       4.63851790      -0.51136911      -0.40042513       0.01835880      -0.75345546      -0.28030480       0.42490761
N        3.54229221      10.64304041       5.04189018       0.22453397       0.09198927      -0.40869192      -0.03438638      -0.17263462       0.12170725
N        9.42077953       4.75632794      10.56032475      -0.38594757      -0.85788291      -0.64105510      -0.06028807      -0.17752537      -0.06291986
N        4.41128461       4.47838612       9.69346444       1.51928214      -2.04881380      -2.12133496       0.21630392      -1.05496586      -0.33708545
Pb       6.83220595       0.84616086      13.07207385      -0.18244814      -0.23828601      -0.24718016       0.40257949      -0.48998277       2.95675555
Pb       0.35086578       0.95698970      12.88247261       0.04721901      -0.55163158       0.24958444      -1.34935602       1.02923548      -4.34309594
Pb       7.14381806       7.21786589       6.68361844      -0.45243004      -0.03702260       0.13578897       0.08339366       4.37046627      -0.13303344
Pb       6.80141409       0.68689559       6.64123809       0.20765078       0.35169628      -0.00320795       0.22589514       3.08027119      -1.71351644
I        9.97007996       0.46748735      13.71020549      -0.15680221       0.01533742       0.19111818      -0.32301667      -3.16754422      -0.22472124
I        3.58361752      13.73943033      12.36416898      -0.12060813      -0.01002262      -0.02143579      -2.47296183      -2.36213474       1.87338928
I        3.69227017       0.12274832       7.34965889      -0.30910819       0.21467700      -0.09451266      -1.36094013      -2.51818067      -0.24300721
I        9.97610005       1.14366047       6.05244759       0.00728664      -0.02600549       0.13132577      -2.41886772       1.89018532      -0.56901944
I        6.52491263      10.24272439      13.52558235      -0.13310638       0.36537283       0.00231524      -2.29499225       1.14827859      -2.16245139
I        7.51211699       4.09057413       0.46738714      -0.20219498      -0.47595402      -0.01422365       0.08417406      -0.56237993       0.11624258
I        6.57842722       3.98295966       6.69976199      -0.01257931       0.06665118       0.13546687      -2.42093291      -0.47422082       0.99463021
I        7.24618958      10.40554704       6.31010340      -0.13406701      -0.11346554       0.19161464      -0.75651804      -0.02729150      -1.06950301
I        6.22663508      13.92200842       3.38832520       0.04644457      -0.01011686      -0.14638713      -1.24479081       2.08254840      -1.58192906
I        1.36547632       0.59059479       3.57380823      -0.17464018       0.08614411       0.23228920       2.23212574      -1.99075586      -2.28652924
I       -0.12907364       1.20181631       9.86205785      -0.17899220      -0.26140897      -0.10884346      -0.38161295      -1.16579357       0.48414778
I        7.14935292       0.68698491       9.76277156       0.18077298      -0.01561274       0.12595685       2.29088944      -0.89049152      -2.41688396
H        2.68124810       3.19474878       3.75925521       0.05456957       0.15744171       0.46636548      -0.06082594       0.03127191       0.10145050
H        4.57487068       9.27932702       3.76332949       0.16646455       0.21545634      -0.07537148       0.07585436      -0.16927616      -0.36646532
H        4.05888924       9.12939830      10.43905587      -0.03664083      -0.44061929       0.93863557       0.22421401       0.19584140       0.19528180
H        3.73909388       2.68869685       8.75741546       0.33727734       0.52275188       1.07683132      -0.05651490       0.19685859       0.47643233
H        3.58277039       3.10981919       1.68399694       0.07289413      -0.76466581      -0.85506518       0.04943077      -0.15657053      -0.08428953
H        4.58916094      10.80578239       1.98813885       0.12296300       0.12911776      -0.65151403       0.04215065      -0.05215541       0.14618460
H       10.32990748       3.32868844       7.69168800       0.07119082      -0.43049192       0.06737557      -0.17386033       0.00309485      -0.16728052
H        1.72136059       2.61367580       9.96118527      -0.36935627      -0.20852774       0.08752112      -0.13694231       0.04278388      -0.03660835
H       11.29416571      11.39634114       2.23753320      -0.41579040      -0.59428202       0.78476766       0.08811175      -0.00218772       0.07862583
H       11.07896737       5.34418296       4.09125549       0.10569340       0.75331211       0.43465243      -0.05671458      -0.11115989      -0.06222820
H       10.92559649       4.84775827       8.42266793       0.62050695       0.28161605      -0.22875521      -0.18055324       0.03605471      -0.30042600
H        2.17863131       4.07478980      10.90130621      -0.47383486      -0.57821632      -0.56223744       0.26699301      -0.08004861      -0.09990647
H        8.98055875      11.65404893       2.84787033      -0.12621459       0.01651219       0.36441695       0.04842598       0.00864260      -0.03710337
H        8.83229204       4.34453113       4.56721528       0.20497473      -0.71085252      -0.92395865       0.04183082      -0.15949148       0.07498615
H        9.95394067       5.63308063      10.71159615       0.39165623       0.25875268      -0.41326299      -0.04743202       0.09474999      -0.06184860
H        9.32479276      12.20914667       8.95093435       0.13967358      -0.29156588       0.24280527       0.19240280       0.16926284      -0.08055669
H        3.53789153       4.79632734       5.49491931       0.39032235      -0.47318845      -0.58185014       0.08512388       0.15063113       0.14451470
H        8.29852844       3.08666116       3.47056575       0.07779852      -0.48482726      -0.25931581      -0.16222490       0.16016868      -0.08748190
H        6.15968340       9.69608794       9.60812702       0.23731426      -0.47927515       0.22883607      -0.13680507       0.22471947      -0.09251647
H       10.36511827      11.39112868       7.77641717       0.30167461      -0.48612141       0.23895970      -0.14893698       0.23417098       0.03481614
C        3.63016809       3.79777332       3.62910117      -1.72342681      -0.23633040       0.59604057       0.08006324      -0.61593100      -0.28536158
C       10.19567406       3.85271891       3.04551817      -0.66737081      -1.07613821       0.23302686       0.37678115      -0.58333353      -0.12407758
C        9.56707334       3.84772225       9.54431302      -0.07325175      -0.32032392       0.55178682       0.16506356       0.81248757       0.05035482
C        9.91692706      10.20342184       9.47117237      -0.35178135       0.12557946       1.20459581       0.69091924       0.13216696       0.02840826
N       11.32216760      10.55604292       2.90995190       0.74089080      -0.02503982      -0.42745458       0.10904900      -0.18410599       1.04794045
N       11.18071783       4.68859668       3.32200583      -0.17180104      -0.91290002      -0.79958575       0.43695102      -1.10235575      -1.29168891
N       10.44194863       3.90597110       8.54083283      -0.78613958       0.54630228       0.27168055       0.33660139      -0.14254252       0.21321246
N        2.33855390       3.42626280      10.10254379       1.42337736       0.92541084       1.27694574       0.15938320       0.36724265      -0.48869864
N        9.08810742      10.95424589       3.61041106       1.93050841      -2.30046526       0.45431658      -0.38577018       0.64955239       0.30202125
N        9.03312912       3.74559296       3.71578257       1.06642892       1.76767062       0.79198577      -0.42268895      -0.51566642       0.62413014
N        5.44812400      10.41641816       9.52648593      -1.80757931       1.16336738      -0.23103572       0.56294913      -0.30808932      -0.07384316
N        9.88537247      11.33211003       8.70419195      -1.14047726       1.36326703      -0.67749754      -0.04078191      -0.07413898       0.21556571
Pb       0.58356682       7.19382954      12.98410840      -0.10091140       0.35762476       0.23847632       0.42388373       1.40471956       0.76615072
Pb       6.73952875       7.11821524      13.20370910      -0.04403249       0.07685817       0.02221546      -5.33437977       1.77887433      -1.70565798
Pb       0.50209861       1.05015215       6.70689493       0.25808676      -0.05751534      -0.12555140       0.82256743       0.61947047       3.62500614
Pb       0.73191601       7.42963766       6.91938436       0.14983129       0.15352306      -0.33774498       2.27271086       0.29646200      -0.31139165
I        3.55592749       6.74118842      12.36482623       0.28647729       0.02065592       0.08228324       0.60183044      -1.49407201      -0.62117482
I        9.98420710       7.29707659      13.33960549      -0.01595216       0.12733769      -0.20958315      -0.27125785       0.30588611       1.04391863
I       10.08404472       6.79048251       5.89712576      -0.02606526       0.17367338       0.22346776       0.91656417      -0.35425416       0.23197860
I        3.67803223       7.67832037       7.29322166       0.58040531      -0.01314425      -0.00521855       3.42373567       0.75566920      -0.34342067
I        0.37137314       4.00856890      13.11305985      -0.20139406      -0.22032059       0.37450378      -0.57930682       0.88987900      -2.60644960
I        0.50198713      10.35288284       0.09768876      -0.01586358       0.41007413       0.08668875      -0.21815237       0.65284206       1.66518111
I       -0.09938890      10.48627479       6.55948356       0.12794578       0.21097268       0.12239798      -1.16462446       0.77139315       1.04933001
I        1.00577851       4.18807992       6.39678740      -0.00451652      -0.31230865       0.00776554      -0.76373362      -2.71890215       0.38848100
I       13.53495677       7.29698399       3.27211024       0.04996380       0.32625093       0.35118217       0.63890937      -1.04895933      -0.91014150
I        6.54517948       7.11914596       3.67762539      -0.06022090      -0.03894595      -0.20365336       1.67515844      -0.21679931       1.85407847
I        6.98485372       7.30394801      10.01845761       0.19773601      -0.08863813      -0.09868969      -0.63872472       1.08137250       2.59478063
I        0.14992250       6.57610806       9.97133452      -0.15963239       0.21888027      -0.18317228       0.19027391       0.34281194      -1.02462286
H       10.18161648       9.40430031      17.10168349      -0.44837465      -0.06864165       0.22338048       0.04022228      -0.02971487      -0.00514419
H        9.91146187       3.24278652      15.04837965      -0.29332696       2.02571382       1.49384805      -0.17693387      -0.05613214       0.04940437
H        9.22697820       2.83729195      22.98755154      -0.58156134      -0.77748704       0.31299804       0.10626609       0.03115503       0.04801185
H       11.01863059       9.30858519      22.21918788      -0.63867086       0.74410529       0.12522608       0.20018862      -0.06065571      -0.07037093
H       11.93734346       9.79176058      15.79809179       0.38738767      -0.40589597      -0.29302645      -0.07780151      -0.21548025       0.21505213
H       11.42807572       4.95345582      15.64435152      -0.00389650       0.08740147       0.12920602      -0.21993569       0.16920880       0.01859323
H        1.22428301      10.05262591      22.93997669       0.35841856       0.30746510      -0.17146310      -0.29793331      -0.08815137      -0.07079703
H       10.20095107       9.67705125      24.35398827       0.06104880      -0.58460175       0.66091269      -0.05373788       0.25686363      -0.25480892
H        4.69986854       3.87494442      14.59289125       0.46175556       0.33416869       0.02091971      -0.10845855      -0.21299197       0.05716447
H        2.71601306      12.00221498      15.95577201       1.64504742      -1.80572781      -0.43917552       0.38605011      -0.06281100      -0.09551221
H        1.94240896      11.04722233      21.68432223       0.08471900       0.74447896      -0.79060339      -0.03760704       0.22717255       0.09677018
H        9.15168993      10.98286726      23.92093276       0.22678327      -0.02221316      -0.14391197      -0.29224192       0.25522596      -0.11008323
H        4.55771503       5.01597700      16.83927684      -0.04231144      -0.05567017       0.09434438      -0.09954071      -0.27929115      -0.11711396
H        2.25144673      10.38658466      17.81912789      -0.53404603       0.03234554       0.68091851      -0.31085780       0.18807467       0.03454100
H        4.37005773      10.77743653      21.21382099      -0.04367574      -0.82733596       0.93402366       0.22113119       0.08320525       0.03821060
H        4.49816933       5.31454824      23.15323222      -0.55950175       0.42657769       0.41304668       0.25653480      -0.09811230      -0.11940879
H        8.04082592      10.48346862      16.64532052       0.69049081       0.50932627      -0.50094090       0.07714363       0.04391660       0.23609691
H        3.44819857       9.02943779      18.14577248      -0.59776587       0.08638934       0.22974826       0.02641040      -0.14837094       0.15238520
H        9.53274870       4.56976334      24.53317705      -0.19013128       0.09646249       0.39074399       0.17745932      -0.05630771      -0.01125269
H        5.04371983       4.62169880      21.64992522       1.02509734      -0.03154677      -0.67213178       0.19309722       0.03273517       0.03933754
C       10.01189817      10.09892003      16.22749964       0.09626059      -0.45939372       0.73381175      -0.07708854       0.32046449      -0.12240388
C        3.75737291      10.15157097      16.39592058      -0.19248411      -0.33409033       1.81112339       0.36189553      -0.59800276      -0.55847439
C        3.31657908       9.87824756      22.77333603       0.32712701       1.45242397      -1.32037960      -0.26268643      -0.48139682       0.16140930
C        3.29735516       3.94426106      22.12401799      -2.18560478      -0.85771863       1.71703703      -0.52949995       0.32178295       0.08900117
N        3.86154504       3.35613743      14.91109823      -0.40391187       0.29500825       1.35943247       0.82387256       0.01656107       0.36503225
N        3.49333886      11.23952163      15.64187748      -1.45996263       2.19179391      -0.48493587       0.81772834      -0.30584285      -0.15153770
N        2.07493902      10.34624294      22.39055899      -0.76523680      -1.03606697       1.22280335       0.08505839       0.68920518       0.96365918
N        9.91847492      10.34563144      23.65320071      -1.44460406       0.72680629       0.77688912       0.23436164      -1.05315754       0.64489878
N        3.72993980       4.37562560      17.03558562       0.21911084      -0.20232928      -0.50000264      -1.11427560       0.32394418      -0.62749865
N        3.00489341       9.77548275      17.52504478       1.51773781      -0.17309889      -1.24940121      -0.45571857      -0.39140052       0.15584646
N        9.83986906       4.81790638      23.52527677       0.54343248      -0.58343397      -1.92613152      -0.53284083       0.36602790       0.45407907
N        4.31810856       4.68596371      22.33277113       0.88149467       0.74729212       0.37539382       0.23839206      -0.79606351       0.63343864
Pb       6.85923233       0.71967394       0.45019574      -0.11721909       0.21305650      -0.54796149       3.23554566      -1.59388034       1.51931904
Pb       0.51713322       0.72853166       0.43089593       0.17729675       0.31771277      -0.16537705       1.58914858      -0.59351117      -4.01386670
Pb       6.65327392       7.11110543      19.45888064      -0.27542207       0.60135658       0.04597107       1.58782743      -1.07343655      -1.15779394
Pb       6.21417314       0.94491779      19.31448490       0.36578221      -0.38774757       0.38111271       5.02297219       0.58184792       1.12411722
I       10.05057262       0.30667927       1.15977655       0.07493746       0.06660181      -0.03047943      -1.75265064      -2.82957513      -1.87880588
I        3.13776670      13.52871269      24.75217439       0.25857773       0.00000291       0.09166064       2.28218915       2.58062246      -0.11284598
I        3.26937232       0.78539911      20.39561170       0.12432925      -0.10909468      -0.31860924       0.25762938       0.06808062       1.02203064
I        9.59203413       0.81567872      19.26401743       0.15243521       0.17658615      -0.12049767       4.20997941      -2.77915842      -0.62492172
I        6.67488849      10.50065202       0.49792161       0.08603513      -0.10705012      -0.09136508       1.46215037       1.62064349      -0.83465791
I        6.94001135       3.87462079      12.89564407      -0.05289128       0.25003766       0.13265351       2.79927760      -1.76733158      -0.83009172
I        6.48237718       4.16980340      19.53870638      -0.05858867      -0.21318941       0.05148645      -2.06139627       0.84061883       3.59735207
I        6.95917477      10.52982117      19.11130826      -0.12124715      -0.65819430      -0.13250932       0.00863866       0.76170744       2.00937066
I        6.16048323      13.73509676      15.99935324      -0.11809260       0.00758342       0.45832235       1.67979073      -1.30835174       3.55752961
I        1.18957321       0.44014875      16.20991762      -0.23003293       0.00765619      -0.18748308       1.69016389      -0.85879131      -1.55392931
I       -0.08427178       1.22656764      22.52670733      -0.16831497      -0.19518747      -0.05360509       0.45610181      -1.08749889       2.72633814
I        7.36533856       0.40862058      22.46284942       0.00953466       0.19529820       0.12041527      -2.04654033       2.61791388      -0.51683227
H        2.26663222       2.92590993      16.29860217       1.18789242       0.64303111       0.07093379      -0.03536036      -0.08198201       0.05978962
H        4.65264450       9.52867306      16.11428849       0.01607133      -0.15804529      -0.04975487      -0.07035934       0.01277706      -0.00490350
H        3.42825188       9.24444958      23.64036673      -0.21450061      -1.23479610       1.05304496       0.06896028      -0.21286056       0.02530942
H        3.36483972       3.24929076      21.30348686      -0.17235096      -0.28882769      -0.83745795      -0.17736899       0.02870644      -0.01977003
H        3.51074382       2.62768201      14.30579636      -0.17623633      -1.00352123      -1.20036919       0.36111987       0.10977349      -0.10675374
H        4.20799313      11.49500417      14.87745880      -0.10622706       0.11375684      -0.58738990      -0.09210210      -0.05277695       0.16561961
H        9.43928147       3.33960746      20.55650686      -0.01315268      -0.49209633      -0.53247433      -0.04861710       0.12432916       0.02947306
H        1.57454775       3.03689378      22.75539480      -0.35687632      -0.36299584      -0.16376623      -0.04640579      -0.18481653       0.15241457
H       10.98165044      10.79108934      14.59311287       0.63854378       1.59154837      -1.67261163      -0.12039411       0.11232242       0.19713978
H       10.68189935       5.41569404      17.24434738      -0.58317067      -0.06523570      -0.15137486      -0.20547699       0.19274347       0.03008933
H        9.79248233       5.38700457      20.32104388       0.19701836      -0.26736968       0.51346660       0.02430147       0.22507069      -0.05355246
H        2.08109503       4.22436021      23.97950166       0.49331777      -0.56606618      -1.04568662      -0.21329493       0.09235631      -0.08579576
H        8.83230546      11.39982624      15.22666673      -0.56250838      -0.50729112       0.73770153       0.05138846       0.07379643       0.04496837
H        8.49118272       4.08381961      17.88161863       0.24695902      -1.47190190      -1.92170164      -0.09939243      -0.09338533      -0.14612093
H       10.31423414       5.73655886      23.15128300       0.15769322       0.69759635       0.59412002       0.15553469       0.14610807       0.26458187
H        9.15814626      11.48770036      21.26294294      -0.04551961      -0.07862423       0.29375575      -0.09309051      -0.01174557      -0.24124561
H        3.10570985       4.53335573      17.85267701      -0.22038807      -0.03107678       0.56422394      -0.25093377       0.00154533      -0.00483705
H        8.06146285       2.92016314      16.55856438      -1.80039667      -1.54748656      -0.34038816      -0.14998842       0.05284791      -0.12537494
H        5.35920201       9.70786998      22.45718516      -0.10275869       0.32641668      -0.24706319      -0.05080087      -0.07719984       0.23185044
H       10.32630971      10.63537227      20.35382798       0.31082642      -0.45661867      -0.02840670      -0.04173749       0.08146128      -0.12090367
C        3.29212997       3.49847724      16.11896358      -0.96472719       0.24143310      -0.47644622      -0.48103059       0.10676359       0.08690296
C        9.72794447       3.93104309      16.00891083      -0.09579848      -0.94550333      -0.57353678       0.46293442       0.88300322       0.17245538
C        9.59633046       3.91423087      22.58661709       0.51871095       0.18755954      -0.94588980      -0.61586293      -0.40922375      -0.59173491
C       10.25563237      10.12708587      22.37690958       2.08339624      -1.49460204      -1.24392866       0.66100365       0.56976416       0.76723754
N       11.04606899      10.24370479      15.43442095       0.14525514      -1.04894686       1.20323321       0.58539770       0.79173942       0.21067941
N       10.64058405       4.85583422      16.32252237       0.43217747      -0.89219969      -0.65253620       0.36084730       0.55429573      -0.76131988
N        9.70039356       4.17047222      21.11157930      -0.55433747       0.92043338       1.52370080       0.98470766      -0.63003554      -0.18947982
N        2.22808598       3.79148731      22.95851695       0.83769548       1.12056242       0.43007913       0.01604380      -0.34000287       0.46765685
N        8.87799215      10.73019778      16.05288361      -0.93994924       0.44695164      -0.42102549       0.22619195      -0.37799563       0.64166131
N        8.61669321       3.69829155      16.76872073       2.14401648       2.70386070       1.74744167      -0.28992799      -0.33942874       0.72300593
N        4.44832354      10.18926362      22.14239717       0.50926636       0.44540092      -0.59904422       0.29757016       0.95443753       0.42102688
N        9.84600514      10.72605176      21.25581232      -0.57283634       1.02455078      -0.38449830       0.31046147       0.58340390      -0.55887203
Pb       0.50275722       7.18508499       0.62468460       0.32388995       0.00050545      -0.04524126       2.86540853       0.24954902      -0.54678752
Pb       6.81062440       7.28686488       0.36384603      -0.05138822       0.01037299       0.07368487      -3.90384047      -0.27288101       0.67269980
Pb       0.09420937       0.89177886      19.19896721       0.29111470      -0.16561785       0.37065290       5.76703741      -0.59098279       2.74760411
Pb       0.42934242       7.27489591      19.36837432       0.23938779      -0.15413844       0.04263821      -5.29680779       0.30926014      -2.06219319
I        3.37952949       6.78302344      25.13430939       0.11481239       0.00740377       0.15224294      -0.39148671       1.62194103       1.44841231
I       10.02364505       7.48644071       0.66685968       0.31539745       0.04622061       0.10470657      -0.79481421       1.05192313      -2.22846528
I        9.67595334       7.06991783      19.01510642       0.50347203      -0.08002413      -0.01731643      -0.44210371       1.44355264       1.60774552
I        3.54278221       7.46794147      20.37134944      -0.21220332      -0.02641609      -0.29603996      -2.41793074       0.77511647      -1.92925385
I        0.37852855       4.08969525       0.83383640      -0.01523611      -0.37018252       0.03854192       1.61352541       2.24447973       1.29647129
I        0.76184205      10.34759831      12.41620379      -0.17078555       0.13855787       0.32242902      -1.54040635       0.26071860      -1.68713457
I       -0.04969566      10.39806829      19.56393816       0.00337458       0.35088027      -0.06765485       0.81519758      -1.89553671      -0.89676108
I        0.99754172       4.00158524      19.02284651      -0.24187080       0.08538382       0.17242105       1.21731504      -2.37385534      -1.52940697
I       13.26921013       7.33918731      16.01637501       0.22711728       0.05062882      -0.15283829       1.33508019       0.70874658       1.80375755
I        6.11317417       6.74366298      16.35153936       0.01975073       0.19103768      -0.15055500      -1.90455184      -0.20077962      -2.17002335