768
Lattice="31.52003920688824 -1.0395494997101957 0.3212732111417801 -0.9162685860741572 30.3547437254124 0.028757121508259497 0.35595936046071336 -0.14720492652102254 17.2635365134837" Properties=species:S:1:pos:R:3:forces:R:3:momenta:R:3 energy=-3660.7443796170637 stress="0.0014812926800833383 -0.00018837040535185252 -0.00011475772812252809 -0.00018837040535185252 0.00038453083247456775 -5.58242714834004e-05 -0.00011475772812252809 -5.58242714834004e-05 0.0002852771331847123" free_energy=-3660.7443796170637 pbc="T T T"
H        1.36547140       2.86293316       6.77341846       0.00001354      -0.00000489       0.00002280       0.16621639       0.19644556      -0.23641384
H        3.52849452       2.14724334       6.25632046      -0.00001309       0.00001958      -0.00001603       0.18197981       0.08058985      -0.13030212
H        3.26963407       2.26528304       4.54417359       0.00000018       0.00002056      -0.00000284      -0.12558232       0.02558143      -0.00792883
H        1.02121166       3.08007819       3.80474338      -0.00001268       0.00002325      -0.00002109       0.05945040       0.12111204      -0.00231121
H       -0.13147297       3.43587443       5.07616477       0.00004180      -0.00003052       0.00000950       0.04157794       0.19758569      -0.02721607
H        5.72511279       6.16446635       2.14816689      -0.00001521       0.00000244       0.00000285      -0.24447278      -0.14954099      -0.06127699
H        5.26292690       6.76383502      -0.05169104       0.00001104       0.00001635      -0.00000424       0.19663953      -0.14356365       0.02331457
H        5.33899172       5.12807482      -0.63837983       0.00000378       0.00001752       0.00000753      -0.15280376      -0.17398046      -0.04554465
H        5.88461269       3.36544361       1.08491392      -0.00002004       0.00003654      -0.00000126       0.01510073      -0.00476738       0.06940583
H        6.08850653       3.95425309       2.72967586       0.00000455      -0.00003030      -0.00000023       0.13376435       0.06652882      -0.05136701
C        1.67236261       2.78848949       5.72770049      -0.00002808       0.00000087      -0.00001380      -0.92908716       0.35570924      -0.10348903
C        5.67563467       5.38740673       1.37850620       0.00002747      -0.00000175       0.00003768      -0.04799740      -0.21849931      -0.77383602
N        2.89575312       2.37338468       5.48652686       0.00002598      -0.00000742       0.00002310       1.00380902      -0.14292307      -0.13840655
N        0.79617240       3.11317345       4.80506921      -0.00000740      -0.00001819       0.00002308      -0.02389387      -0.58915520       0.28076674
N        5.37341723       5.76669341       0.15979447      -0.00002165      -0.00003052      -0.00003517      -0.63213954      -0.34054564       0.99284962
N        5.92193754       4.15157861       1.74317258       0.00001608      -0.00000092       0.00000538       0.07649793      -0.50241311       0.06624065
Pb       3.69500146       0.10760722       1.18269325      -0.00001193      -0.00003008      -0.00001725      -0.06300740      -0.04074522      -3.26590273
Pb      31.27666598      -0.50111283       1.45827280      -0.00000880      -0.00000284      -0.00001398      -1.99237197      -1.44942209      -2.80628965
I        5.84204261       1.00002835       3.48664681      -0.00001725       0.00001421      -0.00000024       3.90393961       1.59183222       0.39903262
I        1.56342117       6.71492627       2.88368933       0.00001412      -0.00002010       0.00000276      -0.42246862       0.68175477       1.26195417
I        5.80824673       1.54061493       7.69014288      -0.00001361       0.00001743      -0.00000803      -0.15370102      -1.08518112      -0.49091519
I        1.71452700       6.18260569       7.26841777      -0.00000455      -0.00000453       0.00001605       1.12353236      -0.64005891      -0.37084796
I        5.66292714       5.06570228       5.23799558      -0.00001681       0.00001851      -0.00001883      -0.01355478      -0.54484980      -1.41503040
I        1.97653622       2.89592550       1.26300283       0.00000434       0.00001219       0.00001307       0.26645098      -0.86567337       1.19876211
H        1.29144474      11.47551567       0.04938912      -0.00000734       0.00001204       0.00000485      -0.01767689      -0.24097080      -0.01449303
H        1.10052913      12.10565322       2.29111299       0.00002123       0.00003050       0.00001732       0.03665042      -0.15382416      -0.16045539
H        1.28116283      10.48082956       2.87946932       0.00000524       0.00001449      -0.00003278      -0.10333323       0.10909694       0.11702164
H        1.58010141       8.68386143       1.11259061       0.00000604      -0.00001408       0.00002294       0.02620964       0.00725983      -0.12550543
H        1.61282997       9.26668817      -0.54418354       0.00001339       0.00000576      -0.00000146       0.15775427       0.05334476      -0.04975133
H        4.92656973      11.59832887       6.36339205       0.00000048      -0.00001197      -0.00001266       0.08489409       0.16150140       0.06282377
H        3.44434174      13.38096123       6.02727479       0.00001731       0.00002306      -0.00005896      -0.00414088       0.04104580      -0.14508880
H        4.53162355      14.19663654       4.91742971       0.00000474       0.00002303       0.00001259      -0.10777575      -0.10014402      -0.20846457
H        6.73228810      13.07815542       4.48773584       0.00000403      -0.00002298      -0.00000556      -0.09740118       0.22061684      -0.09452067
H       13.14747983      14.60863084       5.16966134      -0.00002339       0.00001266       0.00003928       0.11959444      -0.18660925       0.11333302
C        1.34432119      10.71078181       0.83139334      -0.00001846      -0.00006510       0.00002048      -0.49859239      -0.31262249      -0.74451934
C        5.19642280      12.41948605       5.69377280       0.00002132      -0.00002209       0.00001015      -0.58772638       0.75817936      -0.15379737
N        1.20800763      11.10883866       2.07412463      -0.00000212      -0.00004717      -0.00001117      -0.64821653       0.63808612       0.15174480
N        1.53621194       9.46919666       0.45303817      -0.00000927       0.00002877      -0.00001332      -0.71522428      -0.43679530       0.45423023
N        4.32662706      13.38386764       5.51213219      -0.00004724       0.00000136       0.00002442       0.64459282       0.57571654      -0.23909816
N        6.38010474      12.36059887       5.12253964       0.00002338      -0.00002386       0.00000818       0.21926723      -0.66311048      -0.58190566
Pb       3.66617757       7.67520935       5.17057829       0.00000475       0.00002668      -0.00000931      -1.21271866       2.70044660      -1.91232244
Pb      31.19694867       6.65426898       5.67617559      -0.00001615      -0.00000040      -0.00000251      -0.27564981       1.01809420      -1.09034812
I        5.48950720       9.01065308       7.45550920      -0.00000070      -0.00001516       0.00000447       0.46178291      -0.78418926       2.72243917
I        1.37323767      14.16156704       7.58839756      -0.00000666      -0.00000343      -0.00000174       0.36853732       0.54210612       0.62325158
I        5.75649832       8.96806376       3.05034371      -0.00000487      -0.00001344       0.00001580      -0.92914515       0.12221883       1.55196329
I        1.07624147      14.39434652       3.47036984       0.00001423       0.00000372       0.00000852       0.22986544       0.91554351      -1.07035276
I        5.04258545      12.59843431       0.96959674      -0.00001807       0.00002404      -0.00000332       1.75529762       0.80345726       1.46242273
I        1.74626020      10.26219428       5.53278326       0.00001034       0.00000606      -0.00001750       0.27683037      -0.10584374      -2.65300350
H        9.45922187       3.62761671       4.44949494      -0.00000258      -0.00000614       0.00001742      -0.14453688      -0.05314100      -0.09802688
H        9.28019987       4.26422274       6.69059194       0.00000743       0.00005402      -0.00000662       0.07085491      -0.02425571      -0.03380616
H        9.34982034       2.62910003       7.27772139      -0.00001505       0.00000509      -0.00003210      -0.08195801       0.10092800      -0.08742985
H        9.60226249       0.82236827       5.51251299      -0.00002249      -0.00000189       0.00001080      -0.04116571       0.05412484      -0.01780677
H        9.65044065       1.40370759       3.85479790      -0.00003524      -0.00000773       0.00001650      -0.22559409      -0.05196814      -0.07460749
H       13.26391272       6.24079006       1.81172642      -0.00003129      -0.00000222      -0.00002049      -0.05549201       0.09989308       0.05391984
H       15.28896001       5.06442393       1.78128308      -0.00001771       0.00000472      -0.00003063       0.02404015       0.21992268       0.17385526
H       14.62398541       3.79144569       0.76833437       0.00001342      -0.00000423       0.00000867       0.25007397      -0.02981710      -0.09587872
H       12.30443404       4.01654386       0.05920452      -0.00001907       0.00000351       0.00000830      -0.04124816       0.03140586      -0.01835923
H       11.41795741       5.42135874       0.60719957      -0.00001615       0.00000984       0.00000815       0.03179730       0.01637014       0.02204739
C        9.46054100       2.85906647       5.23023568      -0.00000484      -0.00001580       0.00002420      -0.44038954       0.23019136       0.59168730
C       13.34100176       5.30218242       1.25603598      -0.00005522       0.00007028      -0.00000225      -0.20898461       0.00691587       0.13950446
N        9.34047485       3.26281160       6.47339287       0.00000977      -0.00004364       0.00002463       0.41107649      -0.00816918       0.82668609
N        9.58223264       1.60899743       4.85197097       0.00001320       0.00001464      -0.00006613       0.09560558      -0.56227076       0.19253437
N       14.49212181       4.66938884       1.27568694       0.00003666      -0.00003041       0.00000050       1.07389358      -0.47965061      -0.43474658
N       12.27855252       4.87553923       0.61133498       0.00006332      -0.00003973      -0.00001779      -1.22982425      -0.47285385       0.94133807
Pb      11.57089150      -0.01282406       0.96361906      -0.00000940       0.00000878       0.00000761      -1.60326521       1.09516993      -0.30245035
Pb       7.61425070      -0.18735953       0.96287497       0.00000112       0.00000221      -0.00000334       1.83645678       0.94646929       0.77560909
I       13.35732656       1.23212511       3.35581470      -0.00000715      -0.00001473      -0.00000664      -0.98223938      -0.02320510       0.54084337
I        9.60185684       6.30272946       3.27448308      -0.00000429      -0.00000259       0.00000337      -1.76698819      -2.03934701       0.12888918
I       13.90422054       1.61303633       7.74763825       0.00000157       0.00000491      -0.00001299       1.52552209      -0.05575993      -2.24243082
I        9.39881128       6.55880220       7.83242797       0.00002235      -0.00000887      -0.00000294      -0.24732771       0.57554599       0.16077882
I       13.29618709       4.83465359       5.31316061       0.00001822      -0.00003739       0.00002325      -1.65571103      -0.30205280      -0.73111071
I        9.50847082       2.46543407       1.30556084       0.00002630      -0.00002209      -0.00000218      -3.57826982       0.42655015      -0.91679547
H        8.88062459      10.23111747       2.45747830       0.00002744      -0.00001179      -0.00001114       0.06912936       0.07762942      -0.04013159
H        7.49646059      10.79337118       0.67185851      -0.00000799       0.00000784      -0.00001325       0.08139466       0.09957468      -0.07860920
H        8.71848315      10.44654990      -0.53085557       0.00001029      -0.00000069      -0.00003087       0.24807700       0.08563795       0.22573142
H       10.94518423       9.63312501       0.37245072      -0.00001431       0.00003255      -0.00000672      -0.22585012       0.01900440      -0.04630528
H       11.06515315       9.51446960       2.09534196      -0.00001255       0.00000074       0.00001383       0.02394880      -0.11257848       0.06547876
H       13.35012766      12.56979738       4.06431194      -0.00001329      -0.00003592       0.00000715      -0.01883028       0.12838440       0.06843462
H       13.72427826      10.60415415       5.23927602      -0.00000802       0.00003547       0.00002460      -0.03963894      -0.08794751      -0.03663372
H       13.73544991      11.41528138       6.79785386       0.00000737      -0.00003576       0.00001700      -0.02133361       0.07338666       0.06562287
H       13.37262376      13.87448610       6.75312693      -0.00000964      -0.00001161      -0.00007059      -0.04870963      -0.08464091       0.09188558
H        7.00322861      11.57631918       5.31053959       0.00001035       0.00000556       0.00000237       0.02439625       0.23813980      -0.18247046
C        9.25772193      10.16103630       1.43454821      -0.00007384       0.00002564      -0.00002205      -0.50828013      -0.80441099      -0.05800695
C       13.43582059      12.60309680       5.15463528       0.00003050      -0.00002796      -0.00004786      -0.51662866       0.06141474      -0.89508797
N        8.44431713      10.48838231       0.45702644       0.00005563      -0.00000623       0.00002833      -0.28645867       0.77324067      -0.08666075
N       10.49623035       9.75011548       1.28169063       0.00003189      -0.00002140       0.00006008      -0.38533657       0.93963685      -0.52826590
N       13.66966639      11.47294303       5.77996418       0.00000029       0.00002940      -0.00000628      -0.42122983       0.55948282      -0.02213292
N       13.29620588      13.76838857       5.74104622       0.00001300       0.00003250       0.00006590      -0.60283392      -0.69869498      -0.35736284
Pb      11.52062514       7.48431669       5.56079014      -0.00000237       0.00001870       0.00001873      -2.49421004      -0.59095719      -2.55967946
Pb       7.59381780       7.68748259       5.32282480      -0.00000736       0.00002394       0.00001148      -1.28578906       0.99460436       2.36530635
I       13.60164494       8.48118061       7.84759261       0.00000381       0.00000911      -0.00001195       0.65159059       1.24177117      -0.06766003
I        9.32227486      14.02903547       7.26036486       0.00001689       0.00001783      -0.00000095       0.35662094      -0.77762041       0.12704587
I       13.51379780       8.81292264       3.35539710       0.00001503      -0.00001081       0.00001797      -0.46170615       2.65788931      -0.13467155
I        9.19717378      13.58078048       3.00490231       0.00000820      -0.00001340       0.00000518      -1.39607241       0.96467893      -1.28801060
I       13.12299913      12.63292803       0.83486955       0.00000409       0.00004023      -0.00000831       0.13592696       0.04707393       0.45457294
I        9.61400811      10.21135610       5.47523012      -0.00002231      -0.00003436      -0.00002136       0.05961720       0.33722419      -0.56040023
H        1.54345108       2.78933070      15.40518672       0.00001354      -0.00000489       0.00002280       0.16621639       0.19644556      -0.23641384
H        3.70647420       2.07364088      14.88808872      -0.00001309       0.00001958      -0.00001603       0.18197981       0.08058985      -0.13030212
H        3.44761375       2.19168058      13.17594185       0.00000018       0.00002056      -0.00000284      -0.12558232       0.02558143      -0.00792883
H        1.19919134       3.00647573      12.43651164      -0.00001268       0.00002325      -0.00002109       0.05945040       0.12111204      -0.00231121
H        0.04650671       3.36227197      13.70793303       0.00004180      -0.00003052       0.00000950       0.04157794       0.19758569      -0.02721607
H        5.90309247       6.09086389      10.77993515      -0.00001521       0.00000244       0.00000285      -0.24447278      -0.14954099      -0.06127699
H        5.44090658       6.69023256       8.58007722       0.00001104       0.00001625      -0.00000424       0.19663953      -0.14356365       0.02331457
H        5.51697140       5.05447236       7.99338843       0.00000378       0.00001740       0.00000738      -0.15280376      -0.17398046      -0.04554465
H        6.06259237       3.29184115       9.71668218      -0.00002004       0.00003654      -0.00000126       0.01510073      -0.00476738       0.06940583
H        6.26648621       3.88065063      11.36144412       0.00000455      -0.00003030      -0.00000023       0.13376435       0.06652882      -0.05136701
C        1.85034229       2.71488703      14.35946875      -0.00002808       0.00000087      -0.00001380      -0.92908716       0.35570924      -0.10348903
C        5.85361435       5.31380427      10.01027446       0.00002747      -0.00000176       0.00003768      -0.04799740      -0.21849931      -0.77383602
N        3.07373280       2.29978222      14.11829512       0.00002598      -0.00000742       0.00002310       1.00380902      -0.14292307      -0.13840655
N        0.97415208       3.03957099      13.43683747      -0.00000740      -0.00001819       0.00002308      -0.02389387      -0.58915520       0.28076674
N        5.55139691       5.69309095       8.79156273      -0.00002165      -0.00003030      -0.00003502      -0.63213954      -0.34054564       0.99284962
N        6.09991722       4.07797615      10.37494084       0.00001608      -0.00000093       0.00000537       0.07649793      -0.50241311       0.06624065
Pb       3.87298114       0.03400476       9.81446151      -0.00001193      -0.00003008      -0.00001727      -0.06300740      -0.04074522      -3.26590273
Pb      31.45464566      -0.57471529      10.09004106      -0.00000879      -0.00000285      -0.00001399      -1.99237197      -1.44942209      -2.80628965
I        6.02002229       0.92642589      12.11841507      -0.00001725       0.00001421      -0.00000024       3.90393961       1.59183222       0.39903262
I        1.74140085       6.64132381      11.51545759       0.00001412      -0.00002010       0.00000276      -0.42246862       0.68175477       1.26195417
I        5.98622641       1.46701247      16.32191114      -0.00001361       0.00001743      -0.00000804      -0.15370102      -1.08518112      -0.49091519
I        1.89250668       6.10900323      15.90018603      -0.00000455      -0.00000453       0.00001605       1.12353236      -0.64005891      -0.37084796
I        5.84090682       4.99209982      13.86976384      -0.00001681       0.00001851      -0.00001883      -0.01355478      -0.54484980      -1.41503040
I        2.15451590       2.82232304       9.89477109       0.00000434       0.00001219       0.00001307       0.26645098      -0.86567337       1.19876211
H        1.46942442      11.40191321       8.68115738      -0.00000734       0.00001204       0.00000484      -0.01767689      -0.24097080      -0.01449303
H        1.27850881      12.03205076      10.92288125       0.00002123       0.00003050       0.00001732       0.03665042      -0.15382416      -0.16045539
H        1.45914251      10.40722710      11.51123758       0.00000524       0.00001449      -0.00003278      -0.10333323       0.10909694       0.11702164
H        1.75808109       8.61025897       9.74435887       0.00000604      -0.00001408       0.00002294       0.02620964       0.00725983      -0.12550543
H        1.79080965       9.19308571       8.08758472       0.00001340       0.00000571      -0.00000162       0.15775427       0.05334476      -0.04975133
H        5.10454941      11.52472641      14.99516031       0.00000048      -0.00001197      -0.00001266       0.08489409       0.16150140       0.06282377
H        3.62232142      13.30735877      14.65904305       0.00001731       0.00002306      -0.00005896      -0.00414088       0.04104580      -0.14508880
H        4.70960323      14.12303408      13.54919797       0.00000474       0.00002303       0.00001259      -0.10777575      -0.10014402      -0.20846457
H        6.91026778      13.00455296      13.11950410       0.00000403      -0.00002298      -0.00000556      -0.09740118       0.22061684      -0.09452067
H       13.32545951      14.53502838      13.80142960      -0.00002339       0.00001266       0.00003928       0.11959444      -0.18660925       0.11333302
C        1.52230087      10.63717935       9.46316160      -0.00001846      -0.00006510       0.00002050      -0.49859239      -0.31262249      -0.74451934
C        5.37440248      12.34588359      14.32554106       0.00002132      -0.00002210       0.00001015      -0.58772638       0.75817936      -0.15379737
N        1.38598731      11.03523620      10.70589289      -0.00000212      -0.00004717      -0.00001118      -0.64821653       0.63808612       0.15174480
N        1.71419162       9.39559420       9.08480643      -0.00000929       0.00002882      -0.00001317      -0.71522428      -0.43679530       0.45423023
N        4.50460674      13.31026518      14.14390045      -0.00004724       0.00000136       0.00002442       0.64459282       0.57571654      -0.23909816
N        6.55808442      12.28699641      13.75430790       0.00002338      -0.00002386       0.00000818       0.21926723      -0.66311048      -0.58190566
Pb       3.84415725       7.60160689      13.80234655       0.00000475       0.00002668      -0.00000931      -1.21271866       2.70044660      -1.91232244
Pb      31.37492835       6.58066652      14.30794385      -0.00001615      -0.00000041      -0.00000252      -0.27564981       1.01809420      -1.09034812
I        5.66748688       8.93705062      16.08727746      -0.00000070      -0.00001517       0.00000447       0.46178291      -0.78418926       2.72243917
I        1.55121735      14.08796458      16.22016582      -0.00000667      -0.00000344      -0.00000176       0.36853732       0.54210612       0.62325158
I        5.93447800       8.89446130      11.68211197      -0.00000487      -0.00001344       0.00001580      -0.92914515       0.12221883       1.55196329
I        1.25422115      14.32074406      12.10213810       0.00001423       0.00000372       0.00000853       0.22986544       0.91554351      -1.07035276
I        5.22056513      12.52483185       9.60136500      -0.00001807       0.00002404      -0.00000332       1.75529762       0.80345726       1.46242273
I        1.92423988      10.18859182      14.16455152       0.00001034       0.00000606      -0.00001750       0.27683037      -0.10584374      -2.65300350
H        9.63720155       3.55401425      13.08126320      -0.00000258      -0.00000614       0.00001742      -0.14453688      -0.05314100      -0.09802688
H        9.45817955       4.19062028      15.32236020       0.00000743       0.00005402      -0.00000662       0.07085491      -0.02425571      -0.03380616
H        9.52780002       2.55549757      15.90948965      -0.00001505       0.00000509      -0.00003210      -0.08195801       0.10092800      -0.08742985
H        9.78024217       0.74876581      14.14428125      -0.00002249      -0.00000189       0.00001079      -0.04116571       0.05412484      -0.01780677
H        9.82842033       1.33010513      12.48656616      -0.00003524      -0.00000773       0.00001650      -0.22559409      -0.05196814      -0.07460749
H       13.44189240       6.16718760      10.44349468      -0.00003129      -0.00000222      -0.00002049      -0.05549201       0.09989308       0.05391984
H       15.46693969       4.99082147      10.41305134      -0.00001771       0.00000472      -0.00003063       0.02404015       0.21992268       0.17385526
H       14.80196509       3.71784323       9.40010263       0.00001342      -0.00000423       0.00000867       0.25007397      -0.02981710      -0.09587872
H       12.48241372       3.94294140       8.69097278      -0.00001907       0.00000335       0.00000819      -0.04124816       0.03140586      -0.01835923
H       11.59593709       5.34775628       9.23896783      -0.00001615       0.00000984       0.00000815       0.03179730       0.01637014       0.02204739
C        9.63852068       2.78546401      13.86200394      -0.00000484      -0.00001580       0.00002420      -0.44038954       0.23019136       0.59168730
C       13.51898144       5.22857996       9.88780424      -0.00005521       0.00007029      -0.00000224      -0.20898461       0.00691587       0.13950446
N        9.51845453       3.18920914      15.10516113       0.00000977      -0.00004364       0.00002462       0.41107649      -0.00816918       0.82668609
N        9.76021232       1.53539497      13.48373923       0.00001320       0.00001464      -0.00006613       0.09560558      -0.56227076       0.19253437
N       14.67010149       4.59578638       9.90745520       0.00003664      -0.00003042       0.00000049       1.07389358      -0.47965061      -0.43474658
N       12.45653220       4.80193677       9.24310324       0.00006332      -0.00003958      -0.00001769      -1.22982425      -0.47285385       0.94133807
Pb      11.74887118      -0.08642652       9.59538732      -0.00000940       0.00000878       0.00000760      -1.60326521       1.09516993      -0.30245035
Pb       7.79223038      -0.26096199       9.59464323       0.00000113       0.00000221      -0.00000335       1.83645678       0.94646929       0.77560909
I       13.53530624       1.15852265      11.98758296      -0.00000715      -0.00001474      -0.00000665      -0.98223938      -0.02320510       0.54084337
I        9.77983652       6.22912700      11.90625134      -0.00000429      -0.00000259       0.00000337      -1.76698819      -2.03934701       0.12888918
I       14.08220022       1.53943387      16.37940651       0.00000157       0.00000490      -0.00001299       1.52552209      -0.05575993      -2.24243082
I        9.57679096       6.48519974      16.46419623       0.00002235      -0.00000887      -0.00000295      -0.24732771       0.57554599       0.16077882
I       13.47416677       4.76105113      13.94492887       0.00001821      -0.00003739       0.00002324      -1.65571103      -0.30205280      -0.73111071
I        9.68645050       2.39183161       9.93732910       0.00002630      -0.00002209      -0.00000219      -3.57826982       0.42655015      -0.91679547
H        9.05860427      10.15751501      11.08924656       0.00002744      -0.00001179      -0.00001114       0.06912936       0.07762942      -0.04013159
H        7.67444027      10.71976872       9.30362677      -0.00000799       0.00000784      -0.00001325       0.08139466       0.09957468      -0.07860920
H        8.89646283      10.37294744       8.10091269       0.00001032      -0.00000070      -0.00003099       0.24807700       0.08563795       0.22573142
H       11.12316391       9.55952255       9.00421898      -0.00001431       0.00003255      -0.00000672      -0.22585012       0.01900440      -0.04630528
H       11.24313283       9.44086714      10.72711022      -0.00001255       0.00000074       0.00001383       0.02394880      -0.11257848       0.06547876
H       13.52810734      12.49619492      12.69608020      -0.00001329      -0.00003592       0.00000715      -0.01883028       0.12838440       0.06843462
H       13.90225794      10.53055169      13.87104428      -0.00000802       0.00003547       0.00002460      -0.03963894      -0.08794751      -0.03663372
H       13.91342959      11.34167892      15.42962212       0.00000737      -0.00003576       0.00001701      -0.02133361       0.07338666       0.06562287
H       13.55060344      13.80088364      15.38489519      -0.00000964      -0.00001161      -0.00007059      -0.04870963      -0.08464091       0.09188558
H        7.18120829      11.50271672      13.94230785       0.00001035       0.00000556       0.00000237       0.02439625       0.23813980      -0.18247046
C        9.43570161      10.08743384      10.06631647      -0.00007384       0.00002564      -0.00002204      -0.50828013      -0.80441099      -0.05800695
C       13.61380027      12.52949434      13.78640354       0.00003050      -0.00002796      -0.00004786      -0.51662866       0.06141474      -0.89508797
N        8.62229681      10.41477985       9.08879470       0.00005560      -0.00000622       0.00002845      -0.28645867       0.77324067      -0.08666075
N       10.67421003       9.67651302       9.91345889       0.00003190      -0.00002140       0.00006008      -0.38533657       0.93963685      -0.52826590
N       13.84764607      11.39934057      14.41173244       0.00000029       0.00002939      -0.00000628      -0.42122983       0.55948282      -0.02213292
N       13.47418556      13.69478611      14.37281448       0.00001299       0.00003251       0.00006589      -0.60283392      -0.69869498      -0.35736284
Pb      11.69860482       7.41071423      14.19255840      -0.00000236       0.00001870       0.00001874      -2.49421004      -0.59095719      -2.55967946
Pb       7.77179748       7.61388013      13.95459306      -0.00000736       0.00002394       0.00001148      -1.28578906       0.99460436       2.36530635
I       13.77962462       8.40757815      16.47936087       0.00000381       0.00000910      -0.00001197       0.65159059       1.24177117      -0.06766003
I        9.50025454      13.95543301      15.89213312       0.00001690       0.00001781      -0.00000097       0.35662094      -0.77762041       0.12704587