768
Lattice="38.994998665037166 0.07106821782705662 0.35547318029268 0.20366633889610405 23.235525993811105 -0.050934670340891476 0.6633844787472418 -0.16287480069770385 18.246656201326342" Properties=species:S:1:pos:R:3:forces:R:3:momenta:R:3 energy=-3664.603202361166 stress="0.0016169139684950443 0.00017901956443031885 3.95262028078254e-05 0.00017901956443031885 0.000570499088209076 -0.0002938033394161821 3.95262028078254e-05 -0.0002938033394161821 0.0012883009572803219" free_energy=-3664.603202361166 pbc="T T T"
H        8.21557477       0.45141880       4.37909729       0.00000961      -0.00000625       0.00000034       0.00009690      -0.20637768      -0.14311207
H       12.54163588      11.96611162       2.90973999       0.00000439      -0.00000778      -0.00000497      -0.09221236      -0.11581631       0.20046642
H        2.89346820       6.22689412       5.02546030      -0.00004290      -0.00004814       0.00000448       0.03561773       0.15187713       0.14624399
H       17.86365709       6.19057450       2.26345954      -0.00000365      -0.00000577       0.00000535      -0.05535273       0.04741319       0.16006907
H        6.76138527      -0.38931910      10.43256496      -0.00001243       0.00003376      -0.00002059      -0.07334477      -0.16178473       0.08258459
H       12.69419410       9.82316700       3.78585429      -0.00002069      -0.00000872       0.00001227      -0.11644897      -0.09747423       0.25416404
H        4.69401810       5.44594313       8.08474830       0.00000774       0.00001599       0.00000956       0.05326329       0.05515643      -0.10306574
H       16.22909539       6.93079901       3.76574074      -0.00001482      -0.00002387      -0.00001801      -0.18010771      -0.03728550      -0.01007674
H        5.70366768       1.17246900       5.82840144       0.00000246       0.00000324       0.00000797       0.08941709       0.15331860      -0.03505046
H       14.21363438       9.48414012       2.95649113       0.00000605      -0.00001512       0.00000672       0.02593880      -0.31539929      -0.08543150
H        5.57619571       6.97265258       8.17949868       0.00000375       0.00000878      -0.00002638       0.26415645       0.03159568      -0.01094136
H       15.34689043       5.40409909       3.67112557       0.00001100      -0.00000077      -0.00000095      -0.02224953      -0.05552502       0.08021326
H        6.54348037       2.93332416       4.33225862      -0.00001263       0.00002338       0.00000702      -0.14682538       0.11338422       0.04902185
H       15.05349007      11.24498938       1.46038201      -0.00002325       0.00000808      -0.00000297      -0.03110905      -0.08058443      -0.08153672
H        4.53871206       8.72368148       5.16042206      -0.00005027      -0.00003949       0.00000904       0.00293585      -0.32699042       0.05189922
H       16.21840104       3.69379310       2.12852384       0.00001333       0.00000165      -0.00000189       0.14705175      -0.00400022       0.11525572
H        8.06296041       2.59434211       3.50295147       0.00001515       0.00001244      -0.00000149      -0.04029994       0.01593573      -0.18476347
H       14.16159446      12.76607550       1.41799652       0.00000267      -0.00001773       0.00001440       0.05666371      -0.12001493       0.17620991
H        3.01543444       8.34433327       5.96330115       0.00000402      -0.00001681      -0.00000743      -0.12363645       0.05318053       0.25593133
H       17.90753964       4.03234437       5.88732066      -0.00001929       0.00002039       0.00003166      -0.30221237       0.21329261       0.05688501
C        7.36857851       1.08764249       4.65348709      -0.00005636      -0.00001400       0.00003655       0.13104676       0.83455773      -0.25132290
C       13.38860405      11.32986062       2.63532442      -0.00004182       0.00000257       0.00002354       0.44604112      -0.24339055       0.38640044
C        3.73609993       6.87931606       4.77571675       0.00005065       0.00006037      -0.00000806       0.11927928      -0.19025397      -0.66987825
C       17.02102360       5.53815400       2.51321047       0.00000898       0.00001510       0.00000157      -0.38592273       0.58112102      -0.34553704
N        6.49059218       0.60146997       5.49876041       0.00002569      -0.00000870      -0.00001222       0.35228751       0.48885797      -0.19603950
N       13.45236418      10.12990978       3.16967982       0.00001300       0.00002473      -0.00001096       0.15065380       0.14276292       0.28124295
N        4.79416868       6.38438238       8.48898690      -0.00000514      -0.00002139       0.00000344       0.62993551      -0.29031785       0.68523484
N       16.12890919       5.99234010       3.36155786      -0.00000100       0.00000938       0.00001511       0.31269123      -0.89357092      -0.16819962
N        7.30478754       2.28758424       4.11911623       0.00001401      -0.00002816       0.00000577       0.06027723      -0.23348321       0.13277373
N       14.26658763      11.81601156       1.79003838       0.00004745       0.00000594      -0.00004161      -0.11400526       0.74612669       0.59550978
N        3.78172692       8.06429297       5.34382126       0.00004166       0.00003629      -0.00000863      -0.20262637      -0.01491574      -0.29693357
N       16.97538219       4.35317910       1.94510341      -0.00003491      -0.00003244      -0.00000431      -0.18931380      -0.23796403      -0.02572060
Pb       1.61188226       2.18476251       2.25416346       0.00000057       0.00000181       0.00000445      -0.00147292       0.41617635       0.18614271
Pb      19.14525797      10.23264792       5.03477602       0.00000470      -0.00000156       0.00000237      -0.97292695       0.45377148       1.53985911
Pb       9.27824931       8.00574566       2.68199951       0.00000130       0.00000699       0.00000288      -0.91186452      -1.39280712       0.16567525
Pb      11.47891245       4.41177198       4.60688454      -0.00000133       0.00000068      -0.00000482       1.66245462      -0.51994037       0.47401849
I        0.74280631       4.24136364       4.58225729       0.00000573      -0.00001001      -0.00001365       1.26981638       0.05764183      -0.00090069
I        0.51681254       8.14050371       2.52894747       0.00000327      -0.00000209       0.00000633       2.71570392      -1.43561120       0.02639167
I       10.35917467      10.04362082       4.94525142      -0.00000469      -0.00001639      -0.00000011       1.62865144       1.59280003       0.40792960
I       10.39799341       2.37392397       2.34361986       0.00000083       0.00000047      -0.00001422      -1.59262725      -1.04632741      -0.11376655
I       18.05354638       0.81080091       2.80237363      -0.00001328      -0.00000391      -0.00000480       0.27392447      -0.90925237       2.11366804
I        2.70361314      11.60661319       4.48656034      -0.00000445       0.00000817       0.00001391      -1.14189334       1.05249370       1.02676089
I       12.33408408       6.58988225       2.33468851      -0.00000356       0.00000032      -0.00000329      -2.84001687       1.18249697      -1.40276087
I        8.42307892       5.82763504       4.95418232       0.00000525      -0.00000142       0.00001286       0.84450223       0.19276888      -0.19317071
I        4.44590592       3.48768277       1.96388669      -0.00000613      -0.00000866      -0.00000559       0.68051006      -1.10480582      -2.08716441
I       16.31122836       8.92977387       5.32504892      -0.00000095       0.00000669      -0.00000195      -0.23909252      -1.01354857       0.79533437
I        6.45489750       9.32272186       2.91390373      -0.00000627       0.00000085       0.00000272      -0.64017838       1.42246694      -2.36055094
I       14.30223422       3.09473374       4.37493042      -0.00000632       0.00000248       0.00001087      -2.03565701      -0.87603155      -1.47045983
H        8.38134587       0.41065090       8.94083093      -0.00001306       0.00001339      -0.00000032      -0.17826576      -0.02435120      -0.00507079
H       12.70743902      11.92543267       7.47130210      -0.00000831       0.00001169       0.00001073       0.04378355       0.06652967      -0.21500585
H        3.05934964       6.18605879       9.58695785       0.00000938       0.00001465      -0.00000230      -0.00193851       0.21212032       0.10595502
H       18.02950682       6.14980759       6.82511141       0.00000822       0.00001575       0.00000589      -0.10249496       0.24304912       0.04986441
H        6.59559892      -0.34859220       5.87080046       0.00000579       0.00001233       0.00000068      -0.09846304      -0.05342402       0.12850972
H       14.32741889      12.72531899       5.97953939       0.00000040      -0.00005674       0.00002303      -0.06512391      -0.19830904       0.03565396
H        4.52805215       5.48667474       3.52320060       0.00000411      -0.00002548      -0.00001392       0.03633435       0.25040570      -0.11764756
H       16.39493131       6.89005474       8.32737032      -0.00000055      -0.00002294      -0.00000988      -0.12911814       0.06127626       0.06766522
H        5.86950275       1.13177533      10.39020494      -0.00003492       0.00002097       0.00000894       0.01790477       0.00009423      -0.15471580
H       15.21928912      11.20421594       6.02198253      -0.00000341       0.00000765       0.00000174       0.08592611       0.02000083       0.03507287
H        5.41024201       7.01338316       3.61781450      -0.00001980      -0.00002633       0.00000834       0.09301108      -0.12489417       0.00534397
H       15.51274715       5.36334239       8.23279690       0.00000487      -0.00001723      -0.00001154      -0.04335491      -0.00968242      -0.17093454
H        6.70935413       2.89262631       8.89409633       0.00000309       0.00000735      -0.00000931      -0.00831741      -0.13148656       0.06262174
H       14.37942891       9.44345758       7.51820790       0.00001546      -0.00000460      -0.00000348      -0.02051388       0.01165267      -0.06988159
H        4.70458081       8.68284257       9.72218348      -0.00000837       0.00002013      -0.00000876       0.14848296      -0.05480781      -0.05376379
H       16.38427776       3.65300688       6.69024133       0.00001940      -0.00000322      -0.00000089      -0.00126196       0.00573930      -0.04295571
H        8.22879781       2.55361010       8.06473536      -0.00001596      -0.00002370       0.00000443      -0.04045501       0.15150591       0.09340444
H       12.85998092       9.78253477       8.34753275      -0.00000163      -0.00000656      -0.00000222      -0.00450423      -0.11537095      -0.26192795
H        3.18125525       8.30344548      10.52494347       0.00000140      -0.00000822      -0.00000014       0.02265186       0.15998799      -0.22065194
H       17.74166622       4.07313288       1.32561729       0.00002503       0.00000478      -0.00000081      -0.10120166       0.32926014       0.01321922
C        7.53438152       1.04690502       9.21525200       0.00004337      -0.00005528       0.00000874       0.30354951       0.07926466      -0.20582374
C       13.55440403      11.28916263       7.19692289       0.00001143      -0.00000615      -0.00000153      -0.12510934      -0.13890833      -0.62574611
C        3.90199278       6.83850496       9.33730362      -0.00001683      -0.00000558      -0.00000435      -0.35998819      -0.71383223       0.00293747
C       17.18688101       5.49738569       7.07488068       0.00001970      -0.00006636      -0.00004433      -0.45878688       0.03702876       0.50904551
N        6.65639900       0.56075266      10.06053973       0.00003298      -0.00005430       0.00000608       0.74745701       0.66734407       0.49293060
N       14.43238978      11.77526100       6.35160781       0.00001841       0.00006026      -0.00002359       0.20572459       0.32665797      -0.29686603
N        4.62822830       6.42513353       3.92738134       0.00001550       0.00005638       0.00001704       0.57293294      -0.47457594      -0.04163235
N       16.29476127       5.95158245       7.92321619      -0.00003151       0.00006633       0.00005139       0.18882680       0.19395074       0.04428992
N        7.47062683       2.24685958       8.68090702       0.00000176       0.00005139      -0.00001793       0.22937021       0.03134636       0.86145230
N       13.61815707      10.08924131       7.73134506       0.00000146       0.00000309       0.00000819      -0.91757149       0.16968129      -0.26212758
N        3.94758315       8.02344504       9.90548805      -0.00000457       0.00001727       0.00000853       0.09042889       0.55383673      -1.02221949
N       17.14125423       4.31239407       6.50680578       0.00000193       0.00002327      -0.00002245      -0.51338832       0.46590865      -0.12568097
Pb       1.77773087       2.14402140       6.81581874       0.00000298       0.00000419       0.00000515      -1.00914665      -1.46178917       0.70778296
Pb      19.31109344      10.19193894       9.59644547      -0.00000087       0.00000093      -0.00000231       1.22519316      -1.78362908      -0.13380207
Pb       9.44407600       7.96506123       7.24365518       0.00000257      -0.00000487      -0.00000892       1.61720494      -1.06368906      -1.47616406
Pb      11.64476646       4.37104385       9.16853531       0.00000271       0.00000059       0.00000075      -1.07581219      -0.12902059       0.73095989
I        0.90864227       4.20062314       9.14390310       0.00000247       0.00000813      -0.00001132      -1.57984467       0.02637217       1.33969923
I        0.68267779       8.09980011       7.09063423      -0.00001340      -0.00000870      -0.00000632      -0.45122273       0.00914453       0.02704908
I       10.52499984      10.00289296       9.50693439      -0.00000261       0.00000442      -0.00000615       0.22171223       0.84620505       0.81081150
I       10.56379315       2.33321868       6.90527854      -0.00001067      -0.00000918       0.00001017      -1.32714091       0.72182824      -0.46473311
I       18.21937666       0.77005990       7.36401845       0.00000265       0.00000530       0.00000363      -0.03292582       1.55209070       1.27203705
I        2.86944181      11.56589326       9.04825216       0.00000142       0.00000300      -0.00000175       0.72486129      -0.56945497       0.71915786
I       12.49992187       6.54917676       6.89635159      -0.00000507      -0.00000436       0.00000826       0.84030569      -0.84244382      -0.32820850
I        8.58894451       5.78692390       9.51584498      -0.00000878      -0.00001642      -0.00000448      -1.14920128      -0.54205864      -0.27543662
I        4.61175776       3.44690989       6.52553189       0.00000445      -0.00000710       0.00000099      -0.70337075      -1.12349808      -1.03825357
I       16.47704782       8.88906703       9.88668244       0.00000286       0.00000258      -0.00000746       1.04565391      -2.04377092      -0.90027412
I        6.62074267       9.28205497       7.47557785       0.00001358       0.00001136      -0.00000184       0.26520523       2.62481667       0.92647974
I       14.46807062       3.05397137       8.93658366       0.00000381       0.00001484       0.00000330      -0.94314059      -0.29114538      -1.89979738
H        8.54726701       0.36998140      13.50242539       0.00000961      -0.00000625       0.00000034       0.00009690      -0.20637768      -0.14311207
H       12.87332812      11.88467422      12.03306809       0.00000439      -0.00000778      -0.00000497      -0.09221236      -0.11581631       0.20046642
H        3.22516044       6.14545672      14.14878840      -0.00004290      -0.00004814       0.00000448       0.03561773       0.15187713       0.14624399
H       18.19534933       6.10913710      11.38678764      -0.00000365      -0.00000577       0.00000535      -0.05535273       0.04741319       0.16006907
H        6.42969303      -0.30788170       1.30923686      -0.00001243       0.00003375      -0.00002059      -0.07334477      -0.16178473       0.08258459
H       13.02588634       9.74172960      12.90918239      -0.00002069      -0.00000872       0.00001227      -0.11644897      -0.09747423       0.25416404
H        4.36232586       5.52738053      -1.03857980       0.00000774       0.00001599       0.00000956       0.05326329       0.05515643      -0.10306574
H       16.56078763       6.84936161      12.88906884      -0.00001482      -0.00002387      -0.00001801      -0.18010771      -0.03728550      -0.01007674
H        6.03535992       1.09103160      14.95172954       0.00000246       0.00000324       0.00000797       0.08941709       0.15331860      -0.03505046
H       14.54532662       9.40270272      12.07981923       0.00000605      -0.00001512       0.00000672       0.02593880      -0.31539929      -0.08543150
H        5.24450347       7.05408998      -0.94382942       0.00000374       0.00000878      -0.00002638       0.26415645       0.03159568      -0.01094136
H       15.67858267       5.32266169      12.79445367       0.00001100      -0.00000077      -0.00000095      -0.02224953      -0.05552502       0.08021326
H        6.87517261       2.85188676      13.45558672      -0.00001263       0.00002338       0.00000702      -0.14682538       0.11338422       0.04902185
H       15.38518231      11.16355198      10.58371011      -0.00002325       0.00000808      -0.00000297      -0.03110905      -0.08058443      -0.08153672
H        4.87040430       8.64224408      14.28375016      -0.00005027      -0.00003949       0.00000904       0.00293585      -0.32699042       0.05189922
H       16.55009328       3.61235570      11.25185194       0.00001333       0.00000165      -0.00000189       0.14705175      -0.00400022       0.11525572
H        8.39465265       2.51290471      12.62627957       0.00001515       0.00001244      -0.00000149      -0.04029994       0.01593573      -0.18476347
H       14.49328670      12.68463810      10.54132462       0.00000267      -0.00001773       0.00001440       0.05666371      -0.12001493       0.17620991
H        3.34712668       8.26289587      15.08662925       0.00000402      -0.00001681      -0.00000743      -0.12363645       0.05318053       0.25593133
H       18.23923188       3.95090697      15.01064876      -0.00001929       0.00002039       0.00003166      -0.30221237       0.21329261       0.05688501
C        7.70027075       1.00620509      13.77681519      -0.00005636      -0.00001400       0.00003655       0.13104676       0.83455773      -0.25132290
C       13.72029629      11.24842322      11.75865252      -0.00004182       0.00000257       0.00002355       0.44604112      -0.24339055       0.38640044
C        4.06779217       6.79787866      13.89904485       0.00005065       0.00006037      -0.00000806       0.11927928      -0.19025397      -0.66987825
C       17.35271584       5.45671660      11.63653857       0.00000898       0.00001510       0.00000157      -0.38592273       0.58112102      -0.34553704
N        6.82228442       0.52003257      14.62208851       0.00002569      -0.00000870      -0.00001222       0.35228751       0.48885797      -0.19603950
N       13.78405642      10.04847238      12.29300792       0.00001300       0.00002473      -0.00001096       0.15065380       0.14276292       0.28124295
N        4.46247644       6.46581978      -0.63434120      -0.00000519      -0.00002138       0.00000349       0.62993551      -0.29031785       0.68523484
N       16.46060143       5.91090270      12.48488596      -0.00000100       0.00000939       0.00001511       0.31269123      -0.89357092      -0.16819962
N        7.63647978       2.20614684      13.24244433       0.00001401      -0.00002816       0.00000577       0.06027723      -0.23348321       0.13277373
N       14.59827987      11.73457416      10.91336648       0.00004745       0.00000595      -0.00004161      -0.11400526       0.74612669       0.59550978
N        4.11341916       7.98285557      14.46714936       0.00004166       0.00003629      -0.00000863      -0.20262637      -0.01491574      -0.29693357
N       17.30707443       4.27174170      11.06843151      -0.00003491      -0.00003244      -0.00000431      -0.18931380      -0.23796403      -0.02572060
Pb       1.94357450       2.10332511      11.37749156       0.00000057       0.00000181       0.00000445      -0.00147292       0.41617635       0.18614271
Pb      19.47695021      10.15121052      14.15810412       0.00000470      -0.00000156       0.00000238      -0.97292695       0.45377148       1.53985911
Pb       9.60994155       7.92430826      11.80532761       0.00000130       0.00000699       0.00000288      -0.91186452      -1.39280712       0.16567525
Pb      11.81060469       4.33033458      13.73021264      -0.00000133       0.00000068      -0.00000482       1.66245462      -0.51994037       0.47401849
I        1.07449855       4.15992624      13.70558539       0.00000573      -0.00001001      -0.00001365       1.26981638       0.05764183      -0.00090069
I        0.84850478       8.05906631      11.65227557       0.00000327      -0.00000209       0.00000633       2.71570392      -1.43561120       0.02639167
I       10.69086691       9.96218342      14.06857952      -0.00000469      -0.00001640      -0.00000010       1.62865144       1.59280003       0.40792960
I       10.72968565       2.29248657      11.46694796       0.00000083       0.00000047      -0.00001421      -1.59262725      -1.04632741      -0.11376655
I       18.38523862       0.72936351      11.92570173      -0.00001328      -0.00000392      -0.00000480       0.27392447      -0.90925237       2.11366804
I        3.03530538      11.52517579      13.60988844      -0.00000445       0.00000817       0.00001392      -1.14189334       1.05249370       1.02676089
I       12.66577632       6.50844485      11.45801661      -0.00000357       0.00000032      -0.00000328      -2.84001687       1.18249697      -1.40276087
I        8.75477116       5.74619764      14.07751042       0.00000525      -0.00000142       0.00001286       0.84450223       0.19276888      -0.19317071
I        4.77759816       3.40624537      11.08721479      -0.00000613      -0.00000866      -0.00000559       0.68051006      -1.10480582      -2.08716441
I       16.64292060       8.84833647      14.44837702      -0.00000095       0.00000669      -0.00000195      -0.23909252      -1.01354857       0.79533437
I        6.78658974       9.24128446      12.03723183      -0.00000627       0.00000085       0.00000272      -0.64017838       1.42246694      -2.36055094
I       14.63392646       3.01329634      13.49825852      -0.00000632       0.00000248       0.00001087      -2.03565701      -0.87603155      -1.47045983
H        8.04965363       0.49208830      -0.18249717      -0.00001308       0.00001340      -0.00000031      -0.17826576      -0.02435120      -0.00507079
H       13.03913126      11.84399527      16.59463020      -0.00000831       0.00001169       0.00001073       0.04378355       0.06652967      -0.21500585
H        2.72765740       6.26749619       0.46362975       0.00000938       0.00001465      -0.00000230      -0.00193851       0.21212032       0.10595502
H       18.36119906       6.06837019      15.94843951       0.00000822       0.00001575       0.00000589      -0.10249496       0.24304912       0.04986441
H        6.92729116      -0.43002960      14.99412856       0.00000579       0.00001234       0.00000068      -0.09846304      -0.05342402       0.12850972
H       14.65911113      12.64388159      15.10286749       0.00000040      -0.00005673       0.00002303      -0.06512391      -0.19830904       0.03565396
H        4.85974439       5.40523734      12.64652870       0.00000411      -0.00002548      -0.00001392       0.03633435       0.25040570      -0.11764756
H       16.72662355       6.80861734      17.45069842      -0.00000055      -0.00002294      -0.00000988      -0.12911814       0.06127626       0.06766522
H        5.53781051       1.21321273       1.26687684      -0.00003492       0.00002097       0.00000894       0.01790477       0.00009423      -0.15471580
H       15.55098136      11.12277854      15.14531063      -0.00000341       0.00000765       0.00000174       0.08592611       0.02000083       0.03507287
H        5.74193425       6.93194576      12.74114260      -0.00001980      -0.00002633       0.00000834       0.09301108      -0.12489417       0.00534397
H       15.84443939       5.28190499      17.35612500       0.00000487      -0.00001723      -0.00001154      -0.04335491      -0.00968242      -0.17093454
H        6.37766189       2.97406371      -0.22923177       0.00000309       0.00000735      -0.00000931      -0.00831741      -0.13148656       0.06262174
H       14.71112115       9.36202018      16.64153600       0.00001546      -0.00000460      -0.00000348      -0.02051388       0.01165267      -0.06988159
H        4.37288857       8.76427997       0.59885538      -0.00000837       0.00002013      -0.00000876       0.14848296      -0.05480781      -0.05376379
H       16.71597000       3.57156948      15.81356943       0.00001940      -0.00000322      -0.00000089      -0.00126196       0.00573930      -0.04295571
H        7.89710557       2.63504750      -1.05859274      -0.00001596      -0.00002371       0.00000444      -0.04045501       0.15150591       0.09340444
H       13.19167316       9.70109737      17.47086085      -0.00000163      -0.00000656      -0.00000222      -0.00450423      -0.11537095      -0.26192795
H        2.84956301       8.38488288       1.40161537       0.00000139      -0.00000822      -0.00000013       0.02265186       0.15998799      -0.22065194
H       18.07335846       3.99169548      10.44894539       0.00002503       0.00000478      -0.00000081      -0.10120166       0.32926014       0.01321922
C        7.20268928       1.12834242       0.09192390       0.00004340      -0.00005525       0.00000870       0.30354951       0.07926466      -0.20582374
C       13.88609627      11.20772523      16.32025099       0.00001143      -0.00000615      -0.00000153      -0.12510934      -0.13890833      -0.62574611
C        3.57030054       6.91994236       0.21397552      -0.00001677      -0.00000559      -0.00000440      -0.35998819      -0.71383223       0.00293747
C       17.51857325       5.41594829      16.19820878       0.00001970      -0.00006636      -0.00004433      -0.45878688       0.03702876       0.50904551
N        6.32470676       0.64219006       0.93721163       0.00003299      -0.00005428       0.00000607       0.74745701       0.66734407       0.49293060
N       14.76408202      11.69382360      15.47493591       0.00001841       0.00006025      -0.00002358       0.20572459       0.32665797      -0.29686603
N        4.95992054       6.34369613      13.05070944       0.00001550       0.00005638       0.00001704       0.57293294      -0.47457594      -0.04163235
N       16.62645351       5.87014505      17.04654429      -0.00003151       0.00006633       0.00005139       0.18882680       0.19395074       0.04428992
N        7.13893459       2.32829698      -0.44242108       0.00000174       0.00005135      -0.00001790       0.22937021       0.03134636       0.86145230
N       13.94984931      10.00780391      16.85467316       0.00000146       0.00000308       0.00000819      -0.91757149       0.16968129      -0.26212758
N        3.61589091       8.10488244       0.78215995      -0.00000457       0.00001726       0.00000852       0.09042889       0.55383673      -1.02221949
N       17.47294647       4.23095667      15.63013388       0.00000193       0.00002327      -0.00002245      -0.51338832       0.46590865      -0.12568097
Pb       2.10942311       2.06258400      15.93914684       0.00000298       0.00000419       0.00000515      -1.00914665      -1.46178917       0.70778296
Pb      18.97940120      10.27337634       0.47311737      -0.00000087       0.00000092      -0.00000231       1.22519316      -1.78362908      -0.13380207
Pb       9.77576824       7.88362383      16.36698328       0.00000257      -0.00000487      -0.00000892       1.61720494      -1.06368906      -1.47616406
Pb      11.97645870       4.28960645      18.29186341       0.00000271       0.00000058       0.00000075      -1.07581219      -0.12902059       0.73095989
I        0.57695003       4.28206054       0.02057500       0.00000247       0.00000813      -0.00001132      -1.57984467       0.02637217       1.33969923
I        1.01437003       8.01836271      16.21396233      -0.00001340      -0.00000870      -0.00000633      -0.45122273       0.00914453       0.02704908
I       10.19330760      10.08433036       0.38360629      -0.00000261       0.00000442      -0.00000615       0.22171223       0.84620505       0.81081150
I       10.89548539       2.25178128      16.02860664      -0.00001067      -0.00000918       0.00001017      -1.32714091       0.72182824      -0.46473311
I       18.55106890       0.68862250      16.48734655       0.00000264       0.00000531       0.00000364      -0.03292582       1.55209070       1.27203705
I        3.20113405      11.48445586      18.17158026       0.00000143       0.00000299      -0.00000175       0.72486129      -0.56945497       0.71915786
I       12.83161411       6.46773936      16.01967969      -0.00000507      -0.00000436       0.00000826       0.84030569      -0.84244382      -0.32820850
I        8.25725227       5.86836130       0.39251688      -0.00000877      -0.00001642      -0.00000448      -1.14920128      -0.54205864      -0.27543662