768
Lattice="25.244031463055336 -0.051139010145229986 -0.15563925591508607 -0.008975214029691772 25.575374942549175 -0.11406019386377196 -0.3474594723078396 -0.009706484009668169 25.26731789926129" Properties=species:S:1:pos:R:3:forces:R:3:momenta:R:3 energy=-3658.4599526265556 stress="0.0007638460388070502 -6.305877015119638e-05 0.0006286270956180883 -6.305877015119638e-05 0.000794403446164085 -0.00013381340055856612 0.0006286270956180883 -0.00013381340055856612 0.000878400239360542" free_energy=-3658.4599526265556 pbc="T T T"
H       10.17488276       9.39858826       4.60858824      -0.00001270       0.00002515       0.00000801       0.10011313      -0.10510573      -0.00981153
H        9.98182051       3.00292953       2.53544102      -0.00000557       0.00004224      -0.00000204      -0.00983220       0.00161112       0.11590751
H        8.94977200       3.00433370       9.79255567       0.00002880       0.00000420       0.00000678       0.02381818      -0.02333412      -0.00400213
H       11.04284314       9.39303412       9.97490026      -0.00005090       0.00001715       0.00000719       0.12627440       0.03618876       0.02001555
H       12.14805324       9.55713378       3.38560872       0.00000715      -0.00001695       0.00000208       0.10964738       0.07870768      -0.07125417
H       11.72060610       4.50252232       2.85955951      -0.00000485      -0.00002304       0.00000544      -0.02559594       0.15994021      -0.21525497
H        2.03359147      10.89566156      10.61284328      -0.00001500       0.00000350      -0.00000027       0.04710544      -0.05838464      -0.17169338
H        9.80398742       9.55383733      11.93831140       0.00001175       0.00002186      -0.00001916       0.09573647       0.05897543      -0.09212565
H        4.86776256       4.57077314       2.11882200      -0.00000615      -0.00000144      -0.00001846      -0.02080079      -0.09355484       0.07031391
H        3.20005403      11.76003750       2.79814666       0.00003888      -0.00003537       0.00002387      -0.13886881      -0.02893564      -0.09084850
H        2.88927839      11.75449306       9.33102504       0.00000216      -0.00006330       0.00003437      -0.07952656       0.11407869      -0.13188352
H        8.90370260      10.94222141      11.37733100       0.00000309      -0.00000613       0.00000154       0.05573239       0.07204637       0.05447041
H        4.33156340       5.38008673       4.41182457       0.00001135      -0.00003837      -0.00003034       0.14402591      -0.02269034       0.11789281
H        2.67942301      10.95749486       5.09926061      -0.00000824      -0.00002218       0.00003150      -0.03085076       0.15822168       0.04484948
H        5.19559559      10.95316671       8.83205213       0.00002489       0.00000621      -0.00002838       0.00764728      -0.15494014       0.12758113
H        4.47229361       5.37737832      10.49712203       0.00001772      -0.00002266      -0.00002782       0.17901613      -0.15399350      -0.07176314
H        8.43128086      10.88530634       4.25680444       0.00002104      -0.00001724       0.00003407      -0.16565628       0.08623490       0.18683427
H        3.57968751       9.56915800       5.66041321       0.00003143      -0.00000947       0.00000410      -0.03209652      -0.09500884       0.03674253
H        9.26970300       4.50140680      11.53426858      -0.00000298      -0.00001492      -0.00002922      -0.02147694      -0.01176757       0.19715898
H        5.32274530       4.51301709       9.21530288      -0.00005100       0.00000393       0.00006204      -0.05660731      -0.13502492      -0.01178844
C       10.27877931      10.18434353       3.85377518      -0.00001827      -0.00001997      -0.00000479       0.50940099      -0.05913328      -0.33477827
C        4.06559626      10.19641810       3.79532002       0.00000747      -0.00003497       0.00000157       0.11915389      -0.10784615      -0.49607984
C        3.88104434      10.19472717      10.20956040      -0.00003543       0.00001125      -0.00000616      -0.26864686      -0.24967496       0.14106223
C        3.48236904       3.80488560       9.64021196      -0.00001731       0.00005573      -0.00000027      -0.48027661       0.29838048      -0.10191186
N        4.13661429       3.88027249       2.28376492      -0.00001779      -0.00002706      -0.00002985       0.18264725      -0.13395348       0.18303137
N        3.87911755      10.99311858       2.76941726       0.00001217       0.00004215      -0.00005699       0.48790232       0.13835026       0.07818024
N        2.85571540      10.98952835      10.01191467       0.00002313       0.00002574      -0.00002898       0.33471445       0.58217349       0.47209908
N        9.63566365      10.25336528      11.20960907       0.00001137      -0.00005703       0.00003929       0.03635984      -0.23991538       0.57679115
N        3.65481651       4.61138441       4.44045091      -0.00003276       0.00001725      -0.00001693      -0.22023093      -0.47237718      -0.34404872
N        3.41140424      10.26863207       4.93165206      -0.00000283       0.00005305      -0.00001415      -0.13558437       0.04142220      -0.33827990
N        9.87914033       4.59614109      10.71837442      -0.00002353      -0.00000186       0.00004520       0.11825505       0.00819638      -0.54470628
N        4.50443277       4.60774977       9.82153884       0.00006322       0.00002424      -0.00003309      -0.40158279      -0.54445374       0.20155582
Pb       6.76481555       0.84566805      13.07413054       0.00001852      -0.00000341       0.00000897       3.06486041      -1.52959741      -1.01317983
Pb       0.46819502       0.85723423      13.09808251       0.00000156       0.00001976      -0.00001380       1.61729945       2.10528918       2.08141595
Pb       6.90239073       7.24237329       6.78277182      -0.00001288      -0.00000876       0.00000486       2.34856717      -1.21432840       0.04986010
Pb       6.86601074       0.84685367       6.74232266       0.00001838      -0.00000835      -0.00002249       2.08647450      -0.38478513       0.75689625
I        9.94406926       0.52416700      13.66504404      -0.00000416      -0.00001267       0.00000824       0.54722202       0.16850537      -0.24411392
I        3.62602050      13.85979680      12.49793561      -0.00001976      -0.00000823      -0.00001385       0.35039860       2.51784819       1.74010719
I        3.71987957       0.53935216       7.38721237       0.00000002      -0.00000477      -0.00000996       0.61584020       0.70965964      -1.61172063
I       10.02833170       1.06161634       6.19921351      -0.00001729       0.00000910      -0.00001418       0.34133162       3.47029356      -2.17500492
I        6.50782495      10.42661103      13.22370372      -0.00002058      -0.00001769       0.00000511       0.80719433       0.45573022      -1.39104680
I        7.25721431       4.03600037       0.26960341      -0.00000347       0.00000478       0.00000926      -1.82426528      -1.47827281       0.46548838
I        6.70217771       4.03503698       7.03922587      -0.00000270       0.00000146       0.00000872      -0.13779078      -1.15444727      -1.64847265
I        7.06316806      10.42698223       6.45198074      -0.00000759       0.00001952      -0.00000844       1.71101850      -0.24829091      -1.45618892
I        6.36934306      13.85500059       3.54397508      -0.00000771      -0.00000694       0.00001262      -0.85074351      -0.72219121      -1.10754913
I        1.20439874       0.55520427       3.65250979      -0.00000288      -0.00000113       0.00000343       0.09432696      -0.06874808       0.53214684
I       -0.02405033       1.07767267       9.95677284      -0.00000991       0.00001051       0.00001467       1.06879175       1.75829738       0.47635458
I        7.42851274       0.54003654       9.93039408       0.00000077      -0.00000120       0.00001814      -0.39386853       0.73871981      -0.21277714
H        2.72582386       3.01939326       3.51457000      -0.00002773      -0.00000851       0.00002480       0.15008918      -0.15360534      -0.05142222
H        4.81870637       9.40825733       3.69711854      -0.00000726      -0.00000488      -0.00002151      -0.11094602      -0.10454155       0.20589172
H        3.77724336       9.40894936      10.96436307      -0.00001347       0.00001194      -0.00000399      -0.04275902       0.01267339       0.06426154
H        3.58393693       3.01353560       8.89093943      -0.00000259      -0.00001484       0.00001452       0.15995098       0.11259166       0.22678443
H        3.97439113       3.17754816       1.55657263       0.00001378       0.00003937       0.00002692      -0.14331363      -0.03904911      -0.00425469
H        4.48617862      10.89798055       1.95189136      -0.00003388      -0.00000684       0.00005066       0.05527814       0.00480197       0.01743286
H       10.19822491       3.16227787       7.83445850       0.00000368      -0.00002543      -0.00002620       0.08629027      -0.09052280       0.03243168
H        1.62075864       3.17098557      10.13160260      -0.00004911      -0.00003030       0.00003188       0.01620394      -0.03761029       0.11814811
H       11.59351666      10.94273536       2.47640853      -0.00002169      -0.00004346       0.00003339      -0.06227711       0.03491758       0.12741809
H       10.87012954       5.36705439       4.14123812       0.00002201      -0.00002668      -0.00002337       0.07285935       0.14897098       0.06410628
H       11.09187419       4.55533846       8.39662478      -0.00001939       0.00000541       0.00001174       0.13747211       0.20985488       0.00705124
H        2.17791773       4.56563268      11.02548287       0.00001812       0.00000119      -0.00002766       0.03970033       0.06914009      -0.19475001
H        9.28712422      11.74406964       2.97505113       0.00000403       0.00003941      -0.00001185       0.02963273      -0.05399901       0.06277982
H        8.57576249       4.55540726       4.66967634      -0.00000558       0.00004427       0.00001947       0.16512119      -0.11170040      -0.09068630
H       10.55602512       5.36472175      10.68969894       0.00000954       0.00003049      -0.00002680       0.04852903      -0.00097932      -0.14765355
H        9.42417912      11.74491784       9.07621310      -0.00002893       0.00001769       0.00000344      -0.03907058       0.22906062      -0.11670499
H        3.04530691       4.51657122       5.25628429       0.00003903      -0.00002501      -0.00003493      -0.05627965       0.16293195       0.05775092
H        8.01861505       3.16059508       3.77603987      -0.00002148      -0.00002100      -0.00001361       0.13182041       0.05682358       0.11479399
H        5.75026839       9.56755637       9.74116824       0.00003747      -0.00004111      -0.00001189       0.03896734      -0.00896177      -0.18918948
H       10.71021315      10.88287295       8.22980986       0.00000496       0.00000540      -0.00004086      -0.23923552      -0.00363222      -0.04761740
C        3.47651164       3.80991914       3.41678507       0.00001178       0.00003626       0.00005406       0.69730913       0.02579718       0.77261249
C        9.88023468       3.79441497       3.28457061       0.00005054      -0.00000667      -0.00002026      -0.22755467      -0.45339607      -0.09364522
C        9.70059447       3.79472596       9.69471365       0.00000443       0.00003708      -0.00000636       0.41677439      -0.14697662       0.06870311
C       10.28975620      10.18120531      10.07321595       0.00002666       0.00001706       0.00003775      -0.46956300       0.12862434      -0.34672538
N       11.42061220      10.25597802       3.20920131       0.00000918       0.00006552      -0.00003460      -0.22957551      -0.89493676      -0.15438378
N       10.90228642       4.59732457       3.46577212      -0.00002850       0.00004196       0.00001655      -0.37021376       0.27812758       0.29199021
N       10.36060303       3.86498307       8.56163139      -0.00001418      -0.00002545       0.00000710       0.36527675      -0.11422805       0.06287145
N        2.34676252       3.87446959      10.29588980       0.00003267      -0.00000515      -0.00000487       0.06320870      -0.05232115      -0.21008921
N        9.25347799      10.97914063       3.65597385       0.00001954      -0.00002639       0.00000629      -0.01875802       0.95693503      -0.06637498
N        8.74462007       3.86410419       3.94022136       0.00000792      -0.00002035       0.00000212       0.52939113      -0.33458305       0.31250034
N        5.02279420      10.26638501       9.56484322      -0.00004118       0.00001148       0.00005252       0.09619699      -0.82216049       0.54871433
N       10.10321759      10.97798106       9.04738374       0.00003528      -0.00004228      -0.00001821      -0.46490608      -0.11785784       0.63008802
Pb       0.50453563       7.25274941      13.13852104       0.00001254      -0.00001740       0.00001648      -0.71213340       2.40422246       2.33063302
Pb       6.83032031       7.23960550      13.08461068       0.00000327       0.00000839      -0.00001321       0.88406802      -2.09308526       0.15173321
Pb       0.54063893       0.86082431       6.79624811       0.00000664      -0.00000180      -0.00000757       0.25181693      -0.62083043      -0.07098866
Pb       0.60614569       7.25480492       6.80669067      -0.00000665       0.00000718      -0.00000638       2.52041751      -3.91655805      -3.14183386
I        3.64899220       6.94355219      12.50163422       0.00002032      -0.00001681       0.00000099      -0.78866766       0.92093007       0.43611110
I        9.96443243       7.45864658      13.59141889      -0.00001618       0.00000682      -0.00001191      -0.71724498       1.99193516       1.74572687
I       10.04683362       6.93315345       6.14585996      -0.00000958       0.00000265      -0.00001041      -1.84205959      -0.49044955      -2.61556945
I        3.74024631       7.47389993       7.31344827       0.00002346       0.00000159      -0.00000425      -0.53083452       0.15716322      -0.63375593
I        0.30442048       4.04541521      13.39501613      -0.00000354       0.00001500      -0.00000924       0.03977660      -1.34162735       0.61252956
I        0.83907110      10.44223154       0.17420105      -0.00000746      -0.00001387      -0.00001790      -0.54172877       1.68618009      -0.21405229
I        0.28361600      10.44178348       6.94584274      -0.00000623       0.00000598      -0.00000627       1.35442214       2.14446387      -1.18870443
I        0.85921921       4.04632595       6.62536681      -0.00000321      -0.00000763       0.00002828      -1.33225043      -0.41728104      -0.34781970
I       13.78247045       7.44888518       3.56703544      -0.00000303       0.00001595       0.00003556      -1.67483872      -2.20231197      -0.60239744
I        6.34550149       6.94235587       3.59404204       0.00001638       0.00002255       0.00000381       0.71180505       0.99761949      -2.52594247
I        7.38461115       7.45924571       9.92276191      -0.00000484       0.00002131      -0.00001071      -1.83974755       1.66353972      -0.40029288
I       -0.05231078       6.95277713       9.94981214       0.00000179      -0.00001379      -0.00002497       3.61190637       1.75098150       1.14361948
H       10.00115302       9.39373502      17.24224719      -0.00001270       0.00002515       0.00000801       0.10011313      -0.10510573      -0.00981153
H        9.80809077       2.99807629      15.16909997      -0.00000557       0.00004224      -0.00000204      -0.00983220       0.00161112       0.11590751
H        8.77604226       2.99948046      22.42621462       0.00002880       0.00000420       0.00000678       0.02381818      -0.02333412      -0.00400213
H       10.86911340       9.38818088      22.60855921      -0.00005090       0.00001715       0.00000719       0.12627440       0.03618876       0.02001555
H       11.97432350       9.55228054      16.01926767       0.00000715      -0.00001695       0.00000208       0.10964738       0.07870768      -0.07125417
H       11.54687636       4.49766908      15.49321846      -0.00000486      -0.00002304       0.00000544      -0.02559594       0.15994021      -0.21525497
H        1.85986173      10.89080832      23.24650223      -0.00001500       0.00000350      -0.00000027       0.04710544      -0.05838464      -0.17169338
H        9.63025768       9.54898409      24.57197035       0.00001175       0.00002186      -0.00001917       0.09573647       0.05897543      -0.09212565
H        4.69403282       4.56591990      14.75248095      -0.00000615      -0.00000144      -0.00001846      -0.02080079      -0.09355484       0.07031391
H        3.02632429      11.75518426      15.43180561       0.00003888      -0.00003537       0.00002387      -0.13886881      -0.02893564      -0.09084850
H        2.71554865      11.74963982      21.96468399       0.00000216      -0.00006330       0.00003437      -0.07952656       0.11407869      -0.13188352
H        8.72997286      10.93736817      24.01098995       0.00000309      -0.00000613       0.00000154       0.05573239       0.07204637       0.05447041
H        4.15783366       5.37523349      17.04548352       0.00001135      -0.00003837      -0.00003034       0.14402591      -0.02269034       0.11789281
H        2.50569327      10.95264162      17.73291956      -0.00000824      -0.00002218       0.00003150      -0.03085076       0.15822168       0.04484948
H        5.02186585      10.94831347      21.46571108       0.00002489       0.00000621      -0.00002838       0.00764728      -0.15494014       0.12758113
H        4.29856387       5.37252508      23.13078098       0.00001772      -0.00002266      -0.00002782       0.17901613      -0.15399350      -0.07176314
H        8.25755112      10.88045310      16.89046339       0.00002104      -0.00001724       0.00003407      -0.16565628       0.08623490       0.18683427
H        3.40595777       9.56430476      18.29407216       0.00003143      -0.00000947       0.00000410      -0.03209652      -0.09500884       0.03674253
H        9.09597326       4.49655356      24.16792753      -0.00000299      -0.00001492      -0.00002921      -0.02147694      -0.01176757       0.19715898
H        5.14901556       4.50816385      21.84896183      -0.00005100       0.00000393       0.00006204      -0.05660731      -0.13502492      -0.01178844
C       10.10504957      10.17949029      16.48743413      -0.00001827      -0.00001997      -0.00000479       0.50940099      -0.05913328      -0.33477827
C        3.89186652      10.19156486      16.42897897       0.00000747      -0.00003497       0.00000157       0.11915389      -0.10784615      -0.49607984
C        3.70731460      10.18987393      22.84321935      -0.00003543       0.00001125      -0.00000616      -0.26864686      -0.24967496       0.14106223
C        3.30863930       3.80003236      22.27387091      -0.00001731       0.00005573      -0.00000027      -0.48027661       0.29838048      -0.10191186
N        3.96288455       3.87541925      14.91742387      -0.00001779      -0.00002706      -0.00002985       0.18264725      -0.13395348       0.18303137
N        3.70538781      10.98826534      15.40307621       0.00001217       0.00004214      -0.00005699       0.48790232       0.13835026       0.07818024
N        2.68198566      10.98467511      22.64557362       0.00002314       0.00002574      -0.00002899       0.33471445       0.58217349       0.47209908
N        9.46193391      10.24851204      23.84326802       0.00001137      -0.00005704       0.00003929       0.03635984      -0.23991538       0.57679115
N        3.48108677       4.60653117      17.07410986      -0.00003276       0.00001724      -0.00001693      -0.22023093      -0.47237718      -0.34404872
N        3.23767450      10.26377883      17.56531101      -0.00000283       0.00005305      -0.00001415      -0.13558437       0.04142220      -0.33827990
N        9.70541059       4.59128785      23.35203337      -0.00002352      -0.00000185       0.00004519       0.11825505       0.00819638      -0.54470628
N        4.33070303       4.60289653      22.45519779       0.00006322       0.00002424      -0.00003309      -0.40158279      -0.54445374       0.20155582
Pb       6.93854529       0.85052129       0.44047159       0.00001851      -0.00000341       0.00000897       3.06486041      -1.52959741      -1.01317983
Pb       0.64192476       0.86208747       0.46442356       0.00000155       0.00001976      -0.00001381       1.61729945       2.10528918       2.08141595
Pb       6.72866099       7.23752005      19.41643077      -0.00001287      -0.00000876       0.00000486       2.34856717      -1.21432840       0.04986010
Pb       6.69228100       0.84200043      19.37598161       0.00001838      -0.00000835      -0.00002249       2.08647450      -0.38478513       0.75689625
I       10.11779900       0.52902024       1.03138509      -0.00000418      -0.00001267       0.00000824       0.54722202       0.16850537      -0.24411392
I        3.45229076      13.85494356      25.13159456      -0.00001974      -0.00000824      -0.00001385       0.35039860       2.51784819       1.74010719
I        3.54614983       0.53449892      20.02087132       0.00000002      -0.00000477      -0.00000996       0.61584020       0.70965964      -1.61172063
I        9.85460196       1.05676310      18.83287246      -0.00001727       0.00000909      -0.00001418       0.34133162       3.47029356      -2.17500492
I        6.68155469      10.43146427       0.59004477      -0.00002058      -0.00001769       0.00000512       0.80719433       0.45573022      -1.39104680
I        7.08348457       4.03114713      12.90326236      -0.00000346       0.00000478       0.00000926      -1.82426528      -1.47827281       0.46548838
I        6.52844797       4.03018374      19.67288482      -0.00000270       0.00000146       0.00000872      -0.13779078      -1.15444727      -1.64847265
I        6.88943832      10.42212899      19.08563969      -0.00000758       0.00001952      -0.00000844       1.71101850      -0.24829091      -1.45618892
I        6.19561332      13.85014735      16.17763403      -0.00000770      -0.00000694       0.00001263      -0.85074351      -0.72219121      -1.10754913
I        1.03066900       0.55035103      16.28616874      -0.00000287      -0.00000113       0.00000342       0.09432696      -0.06874808       0.53214684
I       -0.19778007       1.07281943      22.59043179      -0.00000991       0.00001051       0.00001467       1.06879175       1.75829738       0.47635458
I        7.25478300       0.53518330      22.56405303       0.00000078      -0.00000121       0.00001813      -0.39386853       0.73871981      -0.21277714
H        2.55209412       3.01454002      16.14822895      -0.00002773      -0.00000851       0.00002480       0.15008918      -0.15360534      -0.05142222
H        4.64497663       9.40340409      16.33077749      -0.00000726      -0.00000488      -0.00002151      -0.11094602      -0.10454155       0.20589172
H        3.60351362       9.40409612      23.59802202      -0.00001347       0.00001195      -0.00000399      -0.04275902       0.01267339       0.06426154
H        3.41020719       3.00868236      21.52459838      -0.00000259      -0.00001484       0.00001452       0.15995098       0.11259166       0.22678443
H        3.80066139       3.17269492      14.19023158       0.00001378       0.00003937       0.00002692      -0.14331363      -0.03904911      -0.00425469
H        4.31244888      10.89312731      14.58555031      -0.00003388      -0.00000685       0.00005066       0.05527814       0.00480197       0.01743286
H       10.02449517       3.15742463      20.46811745       0.00000368      -0.00002543      -0.00002620       0.08629027      -0.09052280       0.03243168
H        1.44702890       3.16613233      22.76526155      -0.00004911      -0.00003030       0.00003188       0.01620394      -0.03761029       0.11814811
H       11.41978692      10.93788212      15.11006748      -0.00002169      -0.00004346       0.00003338      -0.06227711       0.03491758       0.12741809
H       10.69639980       5.36220115      16.77489707       0.00002201      -0.00002668      -0.00002337       0.07285935       0.14897098       0.06410628
H       10.91814445       4.55048522      21.03028373      -0.00001939       0.00000541       0.00001174       0.13747211       0.20985488       0.00705124
H        2.00418799       4.56077944      23.65914182       0.00001812       0.00000119      -0.00002765       0.03970033       0.06914009      -0.19475001
H        9.11339448      11.73921640      15.60871008       0.00000403       0.00003941      -0.00001185       0.02963273      -0.05399901       0.06277982
H        8.40203275       4.55055402      17.30333529      -0.00000558       0.00004428       0.00001947       0.16512119      -0.11170040      -0.09068630
H       10.38229538       5.35986851      23.32335789       0.00000954       0.00003048      -0.00002680       0.04852903      -0.00097932      -0.14765355
H        9.25044938      11.74006460      21.70987205      -0.00002893       0.00001770       0.00000344      -0.03907058       0.22906062      -0.11670499
H        2.87157717       4.51171798      17.88994324       0.00003903      -0.00002501      -0.00003493      -0.05627965       0.16293195       0.05775092
H        7.84488531       3.15574184      16.40969882      -0.00002148      -0.00002100      -0.00001361       0.13182041       0.05682358       0.11479399
H        5.57653865       9.56270313      22.37482719       0.00003746      -0.00004111      -0.00001188       0.03896734      -0.00896177      -0.18918948
H       10.53648341      10.87801971      20.86346881       0.00000495       0.00000540      -0.00004085      -0.23923552      -0.00363222      -0.04761740
C        3.30278190       3.80506590      16.05044402       0.00001178       0.00003626       0.00005406       0.69730913       0.02579718       0.77261249
C        9.70650494       3.78956173      15.91822956       0.00005053      -0.00000667      -0.00002026      -0.22755467      -0.45339607      -0.09364522
C        9.52686473       3.78987272      22.32837260       0.00000443       0.00003708      -0.00000637       0.41677439      -0.14697662       0.06870311
C       10.11602646      10.17635207      22.70687490       0.00002666       0.00001706       0.00003775      -0.46956300       0.12862434      -0.34672538
N       11.24688246      10.25112478      15.84286026       0.00000919       0.00006552      -0.00003460      -0.22957551      -0.89493676      -0.15438378
N       10.72855668       4.59247133      16.09943107      -0.00002850       0.00004196       0.00001655      -0.37021376       0.27812758       0.29199021
N       10.18687329       3.86012983      21.19529034      -0.00001418      -0.00002545       0.00000710       0.36527675      -0.11422805       0.06287145
N        2.17303278       3.86961635      22.92954875       0.00003268      -0.00000515      -0.00000487       0.06320870      -0.05232115      -0.21008921
N        9.07974825      10.97428739      16.28963280       0.00001954      -0.00002639       0.00000629      -0.01875802       0.95693503      -0.06637498
N        8.57089033       3.85925095      16.57388031       0.00000792      -0.00002035       0.00000212       0.52939113      -0.33458305       0.31250034
N        4.84906446      10.26153177      22.19850217      -0.00004117       0.00001148       0.00005252       0.09619699      -0.82216049       0.54871433
N        9.92948785      10.97312782      21.68104269       0.00003530      -0.00004229      -0.00001822      -0.46490608      -0.11785784       0.63008802
Pb       0.67826537       7.25760265       0.50486209       0.00001254      -0.00001740       0.00001649      -0.71213340       2.40422246       2.33063302
Pb       7.00405005       7.24445874       0.45095173       0.00000327       0.00000839      -0.00001321       0.88406802      -2.09308526       0.15173321
Pb       0.36690919       0.85597107      19.42990706       0.00000665      -0.00000180      -0.00000756       0.25181693      -0.62083043      -0.07098866
Pb       0.43241595       7.24995168      19.44034962      -0.00000664       0.00000718      -0.00000638       2.52041751      -3.91655805      -3.14183386
I        3.47526246       6.93869895      25.13529317       0.00002034      -0.00001682       0.00000099      -0.78866766       0.92093007       0.43611110
I       10.13816217       7.46349982       0.95775994      -0.00001619       0.00000682      -0.00001191      -0.71724498       1.99193516       1.74572687
I        9.87310388       6.92830021      18.77951891      -0.00000957       0.00000265      -0.00001041      -1.84205959      -0.49044955      -2.61556945
I        3.56651657       7.46904669      19.94710722       0.00002346       0.00000159      -0.00000425      -0.53083452       0.15716322      -0.63375593
I        0.47815022       4.05026845       0.76135718      -0.00000355       0.00001501      -0.00000924       0.03977660      -1.34162735       0.61252956
I        0.66534136      10.43737830      12.80786000      -0.00000746      -0.00001387      -0.00001790      -0.54172877       1.68618009      -0.21405229
I        0.10988626      10.43693024      19.57950169      -0.00000622       0.00000598      -0.00000628       1.35442214       2.14446387      -1.18870443
I        0.68548947       4.04147271      19.25902576      -0.00000321      -0.00000763       0.00002828      -1.33225043      -0.41728104      -0.34781970