320
Lattice="25.35604571816249 0.10795692295292145 -0.12246096309117349 -0.12291574141731929 25.340465261739773 -0.37807161834238046 0.11014453896428754 0.37433634685041955 25.450783792682696" Properties=species:S:1:pos:R:3:forces:R:3 energy=-982.9831686421298 stress="0.005668724217925198 -4.9872892668494024e-06 0.0005516575378006672 -4.9872892668494024e-06 0.00571347046279926 1.7400891948424717e-06 0.0005516575378006672 1.7400891948424717e-06 0.0059903506753520965" free_energy=-982.9831686421298 pbc="T T T"
Cs       4.56416491      21.72431544       2.59765193       0.00001967      -0.00000373      -0.00002959
Cs      22.87414524      15.47801769       3.34919225       0.00000756      -0.00000646       0.00000210
Cs      22.72020413      15.56972981       9.52677016       0.00001095      -0.00000381      -0.00000051
Cs       4.41035601      21.81606204       8.77511316       0.00001776       0.00000024       0.00000749
Cs       3.88461170      15.49061404       9.80375537      -0.00001081      -0.00000321       0.00000044
Cs      23.60888203      21.89886887       8.86823910      -0.00002737      -0.00000705       0.00003740
Cs      23.39990304      21.80349282       2.32043799       0.00000086      -0.00001022       0.00000648
Cs       3.67572481      15.39520795       3.25591970       0.00000533       0.00000098      -0.00002809
Pb      20.01201456      12.33892245       6.12603315       0.00000863       0.00000251       0.00001791
Pb       0.96423343      18.59301948       6.12337588       0.00000994       0.00000768      -0.00000461
Pb      19.98128513      18.67403043       6.03153032      -0.00000924      -0.00001423       0.00000998
Pb       0.99496374      12.25791956       6.21784714      -0.00000486      -0.00000083      -0.00000154
Pb      19.98445831      12.24531524      -0.23664943      -0.00002871      -0.00001316       0.00000434
Pb       0.93670671      18.49946736      -0.23932231      -0.00000451       0.00001062      -0.00002069
Pb      19.95375126      18.58044383      -0.33116566      -0.00002334       0.00001872      -0.00000574
Pb       0.96741576      12.16434977      -0.14485397       0.00001964       0.00000075       0.00003925
I       19.55278942      15.49630144       5.53823077       0.00001003       0.00000674       0.00002119
I        0.38772060      21.75157693       5.65100917       0.00000643       0.00003088       0.00000213
I        7.73170429      21.79778484       6.58600701       0.00001498      -0.00001862       0.00001247
I        1.54082315      15.43445661       6.59559595      -0.00001101       0.00000282       0.00002600
I        4.12889959      19.10955340       5.55401041       0.00001994       0.00000510      -0.00000549
I       23.24329972       0.20145453       6.83886147      -0.00004967       0.00001228       0.00001615
I       23.15563600      18.18446397       6.57038384      -0.00001384      -0.00000590      -0.00002321
I        4.16417987      11.75215118       5.66354395       0.00001914      -0.00000330      -0.00001709
I        6.80913783      22.05935614      24.70869462       0.00001782       0.00001647      -0.00002575
I        0.61823864      15.69607847      24.71824585       0.00001398       0.00000231      -0.00003634
I       20.58535746      15.60904021      12.86652293       0.00002925       0.00000233      -0.00000778
I        1.42038131      21.86437145      12.97926254      -0.00002870      -0.00001084       0.00002051
I       23.17346129      19.28428744      11.82481313       0.00000840      -0.00001645      -0.00000453
I        4.19229513      12.88441222      13.10431181       0.00000149      -0.00001278       0.00001095
I        4.11105017      18.00983102       0.29939433      -0.00001287       0.00000138       0.00002407
I       23.20234007      24.78399694      24.47065719      -0.00001397      -0.00000156       0.00000444
I       19.41973021      25.54202587       9.11392849      -0.00000212       0.00000737      -0.00001723
I        1.51728396      19.13063337       9.29474964      -0.00002269       0.00000543       0.00001102
I        7.86482772      11.75207118       3.01039132      -0.00001300      -0.00001211      -0.00001456
I        0.41125211      18.05542512       2.95196538      -0.00000390       0.00000256       0.00000276
I       20.50674283      19.11807715       2.84021506       0.00000576       0.00000586       0.00006888
I        0.37514381      25.36747178       2.84305123       0.00000659      -0.00001435      -0.00002265
I        6.77776493      18.17598880       9.28407860       0.00001497       0.00000598      -0.00006316
I        1.55329274      11.81861114       9.40367227       0.00001150       0.00000961      -0.00001743
Cs       4.61923718      21.91148361      15.32304383       0.00001967      -0.00000373      -0.00002959
Cs      22.92921751      15.66518587      16.07458414       0.00000756      -0.00000646       0.00000211
Cs      22.77527640      15.75689799      22.25216205       0.00001095      -0.00000381      -0.00000051
Cs       4.46542828      22.00323021      21.50050506       0.00001776       0.00000024       0.00000749
Cs       3.93968397      15.67778221      22.52914727      -0.00001081      -0.00000321       0.00000044
Cs      23.66395430      22.08603705      21.59363099      -0.00002737      -0.00000705       0.00003740
Cs      23.45497531      21.99066100      15.04582988       0.00000086      -0.00001022       0.00000649
Cs       3.73079708      15.58237612      15.98131160       0.00000533       0.00000098      -0.00002809
Pb      20.06708683      12.52609063      18.85142504       0.00000862       0.00000251       0.00001791
Pb       1.01930570      18.78018765      18.84876778       0.00000994       0.00000769      -0.00000461
Pb      20.03635740      18.86119861      18.75692221      -0.00000924      -0.00001423       0.00000999
Pb       1.05003601      12.44508773      18.94323904      -0.00000486      -0.00000083      -0.00000154
Pb      20.03953058      12.43248342      12.48874246      -0.00002871      -0.00001317       0.00000436
Pb       0.99177898      18.68663553      12.48606959      -0.00000451       0.00001062      -0.00002069
Pb      20.00882353      18.76761201      12.39422623      -0.00002334       0.00001871      -0.00000572
Pb       1.02248803      12.35151794      12.58053793       0.00001964       0.00000075       0.00003924
I       19.60786169      15.68346962      18.26362266       0.00001003       0.00000672       0.00002119
I        0.44279287      21.93874510      18.37640107       0.00000643       0.00003088       0.00000212
I        7.78677656      21.98495301      19.31139891       0.00001497      -0.00001862       0.00001247
I        1.59589542      15.62162478      19.32098785      -0.00001101       0.00000283       0.00002600
I        4.18397186      19.29672157      18.27940231       0.00001994       0.00000510      -0.00000550
I       23.29837199       0.38862270      19.56425336      -0.00004966       0.00001228       0.00001616
I       23.21070827      18.37163215      19.29577573      -0.00001384      -0.00000590      -0.00002320
I        4.21925214      11.93931935      18.38893585       0.00001914      -0.00000330      -0.00001709
I        6.75406556      21.87218796      11.98330273       0.00001782       0.00001648      -0.00002576
I        0.56316637      15.50891029      11.99285396       0.00001399       0.00000232      -0.00003634
I       20.53028519      15.42187204       0.14113103       0.00002925       0.00000233      -0.00000777
I        1.36530904      21.67720328       0.25387064      -0.00002870      -0.00001084       0.00002051
I       23.22853356      19.47145562      24.55020502       0.00000839      -0.00001645      -0.00000452
I        4.13722286      12.69724405       0.37891991       0.00000149      -0.00001278       0.00001095
I        4.16612244      18.19699919      13.02478623      -0.00001287       0.00000138       0.00002407
I       23.14726780      24.59682877      11.74526529      -0.00001397      -0.00000157       0.00000444
I       19.47480248      25.72919405      21.83932038      -0.00000212       0.00000736      -0.00001722
I        1.57235623      19.31780154      22.02014154      -0.00002269       0.00000544       0.00001101
I        7.91989999      11.93923935      15.73578322      -0.00001300      -0.00001211      -0.00001458
I        0.46632438      18.24259329      15.67735728      -0.00000389       0.00000256       0.00000275
I       20.56181510      19.30524533      15.56560695       0.00000576       0.00000586       0.00006888
I        0.43021608      25.55463995      15.56844313       0.00000659      -0.00001435      -0.00002266
I        6.83283720      18.36315697      22.00947050       0.00001497       0.00000598      -0.00006317
I        1.60836501      12.00577931      22.12906417       0.00001150       0.00000961      -0.00001744
Cs       4.62562278       9.05408281       2.78668774       0.00001967      -0.00000373      -0.00002959
Cs      22.93560311       2.80778506       3.53822806       0.00000756      -0.00000646       0.00000210
Cs      22.78166200       2.89949718       9.71580597       0.00001095      -0.00000381      -0.00000051
Cs       4.47181388       9.14582941       8.96414897       0.00001775       0.00000024       0.00000749
Cs       3.94606957       2.82038141       9.99279118      -0.00001081      -0.00000321       0.00000044
Cs      23.67033990       9.22863624       9.05727491      -0.00002737      -0.00000705       0.00003740
Cs      23.46136091       9.13326019       2.50947380       0.00000086      -0.00001022       0.00000648
Cs       3.73718268       2.72497532       3.44495551       0.00000533       0.00000098      -0.00002809
Pb      19.95055669      25.00915508       5.93699734       0.00000863       0.00000251       0.00001791
Pb       1.02569130       5.92278685       6.31241169       0.00000994       0.00000768      -0.00000461
Pb      20.04274300       6.00379780       6.22056613      -0.00000924      -0.00001423       0.00000998
Pb       0.93350587      24.92815219       6.02881133      -0.00000486      -0.00000083      -0.00000154
Pb      19.92300044      24.91554787      -0.42568524      -0.00002872      -0.00001315       0.00000434
Pb       0.99816458       5.82923473      -0.05028650      -0.00000451       0.00001062      -0.00002069
Pb      20.01520913       5.91021120      -0.14212985      -0.00002334       0.00001872      -0.00000574
Pb       0.90595789      24.83458240      -0.33388978       0.00001964       0.00000075       0.00003925
I       19.61424729       2.82606881       5.72726658       0.00001003       0.00000674       0.00002119
I        0.44917847       9.08134430       5.84004498       0.00000643       0.00003088       0.00000213
I        7.79316216       9.12755221       6.77504282       0.00001498      -0.00001862       0.00001248
I        1.60228102       2.76422398       6.78463176      -0.00001101       0.00000282       0.00002600
I        4.19035746       6.43932077       5.74304622       0.00001994       0.00000510      -0.00000549
I       23.18184185      12.87168716       6.64982566      -0.00004967       0.00001228       0.00001615
I       23.21709387       5.51423134       6.75941965      -0.00001384      -0.00000590      -0.00002321
I        4.10272200      24.42238381       5.47450814       0.00001914      -0.00000330      -0.00001709
I        6.87059570       9.38912351      24.89773043       0.00001782       0.00001647      -0.00002575
I        0.67969651       3.02584584      24.90728166       0.00001399       0.00000230      -0.00003634
I       20.64681533       2.93880758      13.05555874       0.00002925       0.00000232      -0.00000778
I        1.48183918       9.19413882      13.16829835      -0.00002870      -0.00001084       0.00002051
I       23.23491916       6.61405481      12.01384894       0.00000840      -0.00001645      -0.00000453
I        4.25375300       0.21417959      13.29334762       0.00000149      -0.00001278       0.00001095
I        4.17250804       5.33959839       0.48843014      -0.00001287       0.00000138       0.00002407
I       23.26379794      12.11376431      24.65969300      -0.00001397      -0.00000156       0.00000444
I       19.48118808      12.87179324       9.30296430      -0.00000213       0.00000737      -0.00001724
I        1.57874183       6.46040074       9.48378545      -0.00002269       0.00000543       0.00001102
I        7.80336985      24.42230381       2.82135551      -0.00001300      -0.00001211      -0.00001457
I        0.47270998       5.38519249       3.14100119      -0.00000390       0.00000256       0.00000276
I       20.56820070       6.44784452       3.02925087       0.00000576       0.00000586       0.00006888
I        0.43660168      12.69723915       3.03208704       0.00000659      -0.00001435      -0.00002265
I        6.83922280       5.50575617       9.47311441       0.00001497       0.00000598      -0.00006316
I        1.49183487      24.48884377       9.21463646       0.00001150       0.00000961      -0.00001743
Cs       4.68069505       9.24125098      15.51207964       0.00001967      -0.00000373      -0.00002959
Cs      22.99067538       2.99495324      16.26361995       0.00000756      -0.00000646       0.00000211
Cs      22.83673427       3.08666536      22.44119786       0.00001095      -0.00000381      -0.00000051
Cs       4.52688615       9.33299758      21.68954087       0.00001776       0.00000024       0.00000749
Cs       4.00114184       3.00754958      22.71818308      -0.00001081      -0.00000321       0.00000044
Cs      23.72541217       9.41580442      21.78266680      -0.00002737      -0.00000705       0.00003740
Cs      23.51643318       9.32042837      15.23486569       0.00000086      -0.00001023       0.00000649
Cs       3.79225495       2.91214349      16.17034741       0.00000533       0.00000098      -0.00002809
Pb      20.00562896      25.19632326      18.66238923       0.00000862       0.00000251       0.00001792
Pb       1.08076357       6.10995502      19.03780359       0.00000994       0.00000769      -0.00000461
Pb      20.09781527       6.19096598      18.94595802      -0.00000924      -0.00001424       0.00000998
Pb       0.98857814      25.11532036      18.75420323      -0.00000486      -0.00000083      -0.00000154
Pb      19.97807271      25.10271605      12.29970665      -0.00002871      -0.00001316       0.00000437
Pb       1.05323685       6.01640290      12.67510540      -0.00000451       0.00001062      -0.00002069
Pb      20.07028140       6.09737938      12.58326204      -0.00002334       0.00001871      -0.00000572
Pb       0.96103016      25.02175057      12.39150212       0.00001964       0.00000075       0.00003924
I       19.66931956       3.01323699      18.45265847       0.00001003       0.00000672       0.00002119
I        0.50425074       9.26851247      18.56543688       0.00000643       0.00003088       0.00000212
I        7.84823443       9.31472038      19.50043472       0.00001498      -0.00001863       0.00001247
I        1.65735329       2.95139215      19.51002366      -0.00001101       0.00000282       0.00002600
I        4.24542973       6.62648894      18.46843812       0.00001994       0.00000510      -0.00000550
I       23.23691412      13.05885534      19.37521755      -0.00004967       0.00001227       0.00001615
I       23.27216614       5.70139952      19.48481154      -0.00001384      -0.00000590      -0.00002320
I        4.15779427      24.60955198      18.19990004       0.00001914      -0.00000330      -0.00001709
I        6.81552343       9.20195533      12.17233854       0.00001782       0.00001647      -0.00002576
I        0.62462424       2.83867766      12.18188977       0.00001399       0.00000231      -0.00003634
I       20.59174306       2.75163941       0.33016684       0.00002925       0.00000232      -0.00000778
I        1.42676691       9.00697065       0.44290645      -0.00002870      -0.00001084       0.00002051
I       23.28999143       6.80122299      24.73924083       0.00000839      -0.00001645      -0.00000452
I        4.19868073       0.02701142       0.56795572       0.00000149      -0.00001278       0.00001095
I        4.22758031       5.52676656      13.21382204      -0.00001287       0.00000138       0.00002407
I       23.20872567      11.92659614      11.93430110      -0.00001396      -0.00000157       0.00000444
I       19.53626035      13.05896142      22.02835619      -0.00000212       0.00000736      -0.00001723
I        1.63381410       6.64756891      22.20917735      -0.00002269       0.00000544       0.00001101
I        7.85844212      24.60947198      15.54674741      -0.00001300      -0.00001210      -0.00001457
I        0.52778225       5.57236066      15.86639309      -0.00000389       0.00000256       0.00000275
I       20.62327297       6.63501270      15.75464276       0.00000576       0.00000586       0.00006888
I        0.49167395      12.88440732      15.75747894       0.00000659      -0.00001435      -0.00002266
I        6.89429507       5.69292434      22.19850631       0.00001497       0.00000598      -0.00006317
I        1.54690714      24.67601194      21.94002836       0.00001150       0.00000961      -0.00001744
Cs      17.24218777      21.77829390       2.53642145       0.00001967      -0.00000373      -0.00002959
Cs      10.19612238      15.42403923       3.41042273       0.00000756      -0.00000646       0.00000210
Cs      10.04218127      15.51575135       9.58800064       0.00001095      -0.00000381      -0.00000051
Cs      17.08837887      21.87004050       8.71388268       0.00001775       0.00000024       0.00000749
Cs      16.56263456      15.54459250       9.74252489      -0.00001081      -0.00000321       0.00000044
Cs      10.93085917      21.84489041       8.92946958      -0.00002737      -0.00000705       0.00003740
Cs      10.72188018      21.74951436       2.38166847       0.00000086      -0.00001022       0.00000648
Cs      16.35374767      15.44918641       3.19468922       0.00000533       0.00000098      -0.00002809
Pb       7.33399170      12.28494399       6.18726363       0.00000863       0.00000251       0.00001791
Pb      13.64225629      18.64699794       6.06214540       0.00000993       0.00000769      -0.00000461
Pb       7.30326227      18.62005197       6.09276080      -0.00000924      -0.00001423       0.00000998
Pb      13.67298660      12.31189802       6.15661666      -0.00000486      -0.00000083      -0.00000154
Pb       7.30643545      12.19133678      -0.17541895      -0.00002871      -0.00001316       0.00000434
Pb      13.61472957      18.55344582      -0.30055279      -0.00000451       0.00001062      -0.00002070
Pb       7.27572840      18.52646537      -0.26993518      -0.00002334       0.00001872      -0.00000574
Pb      13.64543862      12.21832823      -0.20608445       0.00001964       0.00000075       0.00003924
I        6.87476656      15.44232298       5.59946125       0.00001003       0.00000674       0.00002119
I       13.06574346      21.80555539       5.58977869       0.00000643       0.00003088       0.00000212
I       20.40972715      21.85176330       6.52477653       0.00001498      -0.00001862       0.00001248
I       14.21884601      15.48843507       6.53436547      -0.00001101       0.00000282       0.00002600
I       16.80692245      19.16353186       5.49277993       0.00001994       0.00000510      -0.00000549
I       10.56527686       0.14747607       6.90009195      -0.00004966       0.00001228       0.00001615
I       10.47761314      18.13048551       6.63161432      -0.00001384      -0.00000590      -0.00002321
I       16.84220273      11.80612964       5.60231347       0.00001914      -0.00000330      -0.00001709
I       19.48716069      22.11333460      24.64746414       0.00001782       0.00001647      -0.00002575
I       13.29626150      15.75005693      24.65701537       0.00001399       0.00000231      -0.00003634
I        7.90733460      15.55506175      12.92775341       0.00002925       0.00000231      -0.00000778
I       14.09840417      21.91834991      12.91803206      -0.00002871      -0.00001083       0.00002050
I       10.49543843      19.23030898      11.88604361       0.00000840      -0.00001645      -0.00000453
I       16.87031799      12.93839068      13.04308133       0.00000148      -0.00001279       0.00001095
I       16.78907303      18.06380948       0.23816385      -0.00001287       0.00000138       0.00002407
I       10.52431721      24.73001848      24.53188767      -0.00001397      -0.00000157       0.00000443
I        6.74170735      25.48804741       9.17515897      -0.00000212       0.00000737      -0.00001723
I       14.19530682      19.18461183       9.23351916      -0.00002269       0.00000544       0.00001101
I       20.54285058      11.80604964       2.94916084      -0.00001300      -0.00001211      -0.00001456
I       13.08927497      18.10940358       2.89073490      -0.00000390       0.00000256       0.00000275
I        7.82871997      19.06409869       2.90144554       0.00000576       0.00000586       0.00006889
I       13.05316667      25.42145024       2.78182075       0.00000658      -0.00001435      -0.00002266
I       19.45578779      18.22996726       9.22284812       0.00001497       0.00000598      -0.00006316
I       14.23131560      11.87258960       9.34244179       0.00001150       0.00000960      -0.00001744
Cs      17.29726004      21.96546207      15.26181334       0.00001967      -0.00000372      -0.00002959
Cs      10.25119465      15.61120740      16.13581462       0.00000756      -0.00000646       0.00000211
Cs      10.09725354      15.70291952      22.31339253       0.00001095      -0.00000381      -0.00000051
Cs      17.14345114      22.05720867      21.43927457       0.00001775       0.00000024       0.00000749
Cs      16.61770683      15.73176067      22.46791678      -0.00001081      -0.00000321       0.00000044
Cs      10.98593144      22.03205858      21.65486147      -0.00002737      -0.00000705       0.00003740
Cs      10.77695245      21.93668253      15.10706036       0.00000086      -0.00001022       0.00000649
Cs      16.40881994      15.63635458      15.92008111       0.00000533       0.00000098      -0.00002809
Pb       7.38906397      12.47211216      18.91265552       0.00000863       0.00000251       0.00001792
Pb      13.69732856      18.83416611      18.78753729       0.00000993       0.00000769      -0.00000461
Pb       7.35833454      18.80722014      18.81815269      -0.00000924      -0.00001422       0.00000999
Pb      13.72805887      12.49906619      18.88200855      -0.00000486      -0.00000083      -0.00000154
Pb       7.36150772      12.37850495      12.54997294      -0.00002871      -0.00001315       0.00000437
Pb      13.66980184      18.74061399      12.42483910      -0.00000451       0.00001063      -0.00002068
Pb       7.33080067      18.71363354      12.45545671      -0.00002334       0.00001873      -0.00000572
Pb      13.70051089      12.40549640      12.51930744       0.00001964       0.00000075       0.00003926
I        6.92983883      15.62949115      18.32485314       0.00001003       0.00000674       0.00002119
I       13.12081573      21.99272356      18.31517058       0.00000643       0.00003089       0.00000213
I       20.46479942      22.03893147      19.25016842       0.00001498      -0.00001860       0.00001248
I       14.27391828      15.67560324      19.25975736      -0.00001101       0.00000282       0.00002600
I       16.86199472      19.35070003      18.21817182       0.00001994       0.00000510      -0.00000549
I       10.62034913       0.33464424      19.62548384      -0.00004966       0.00001228       0.00001616
I       10.53268541      18.31765368      19.35700621      -0.00001384      -0.00000590      -0.00002321
I       16.89727500      11.99329781      18.32770536       0.00001914      -0.00000330      -0.00001709
I       19.43208842      21.92616642      11.92207224       0.00001783       0.00001649      -0.00002575
I       13.24118923      15.56288875      11.93162347       0.00001399       0.00000231      -0.00003634
I        7.85226233      15.36789358       0.20236151       0.00002925       0.00000232      -0.00000777
I       14.04333190      21.73118174       0.19264016      -0.00002870      -0.00001084       0.00002051
I       10.55051070      19.41747715      24.61143550       0.00000840      -0.00001645      -0.00000452
I       16.81524572      12.75122251       0.31768943       0.00000148      -0.00001278       0.00001095
I       16.84414530      18.25097765      12.96355574      -0.00001287       0.00000138       0.00002407
I       10.46924494      24.54285030      11.80649577      -0.00001396      -0.00000156       0.00000444
I        6.79677962      25.67521558      21.90055086      -0.00000212       0.00000737      -0.00001721
I       14.25037909      19.37178000      21.95891105      -0.00002269       0.00000544       0.00001102
I       20.59792285      11.99321781      15.67455273      -0.00001300      -0.00001210      -0.00001455
I       13.14434724      18.29657175      15.61612679      -0.00000389       0.00000256       0.00000276
I        7.88379224      19.25126686      15.62683743       0.00000576       0.00000586       0.00006890
I       13.10823894      25.60861841      15.50721264       0.00000658      -0.00001434      -0.00002264
I       19.51086006      18.41713543      21.94824001       0.00001497       0.00000599      -0.00006314
I       14.28638787      12.05975777      22.06783368       0.00001150       0.00000961      -0.00001743
Cs      17.30364564       9.10806127       2.72545726       0.00001967      -0.00000373      -0.00002959
Cs      10.25758025       2.75380660       3.59945854       0.00000756      -0.00000646       0.00000210
Cs      10.10363914       2.84551872       9.77703645       0.00001095      -0.00000381      -0.00000051
Cs      17.14983674       9.19980787       8.90291849       0.00001775       0.00000024       0.00000749
Cs      16.62409243       2.87435987       9.93156070      -0.00001081      -0.00000321       0.00000044
Cs      10.99231704       9.17465778       9.11850539      -0.00002737      -0.00000705       0.00003739
Cs      10.78333805       9.07928173       2.57070428       0.00000086      -0.00001022       0.00000648
Cs      16.41520554       2.77895378       3.38372503       0.00000533       0.00000098      -0.00002809
Pb       7.27253383      24.95517662       5.99822782       0.00000863       0.00000251       0.00001792
Pb      13.70371416       5.97676531       6.25118121       0.00000994       0.00000768      -0.00000462
Pb       7.36472014       5.94981934       6.28179661      -0.00000924      -0.00001423       0.00000998
Pb      13.61152873      24.98213065       5.96758085      -0.00000486      -0.00000083      -0.00000153
Pb       7.24497758      24.86156941      -0.36445476      -0.00002871      -0.00001316       0.00000435
Pb      13.67618744       5.88321319      -0.11151698      -0.00000451       0.00001062      -0.00002069
Pb       7.33718627       5.85623274      -0.08089937      -0.00002334       0.00001872      -0.00000574
Pb      13.58398075      24.88856086      -0.39512026       0.00001964       0.00000075       0.00003925
I        6.93622443       2.77209035       5.78849706       0.00001003       0.00000674       0.00002119
I       13.12720133       9.13532276       5.77881450       0.00000643       0.00003088       0.00000212
I       20.47118502       9.18153067       6.71381234       0.00001498      -0.00001862       0.00001248
I       14.28030388       2.81820244       6.72340128      -0.00001101       0.00000282       0.00002600
I       16.86838032       6.49329923       5.68181574       0.00001994       0.00000510      -0.00000549
I       10.50381899      12.81770870       6.71105614      -0.00004967       0.00001228       0.00001615
I       10.53907101       5.46025288       6.82065013      -0.00001384      -0.00000590      -0.00002321
I       16.78074486      24.47636227       5.41327766       0.00001914      -0.00000330      -0.00001709
I       19.54861856       9.44310197      24.83649995       0.00001782       0.00001647      -0.00002575
I       13.35771937       3.07982430      24.84605118       0.00001399       0.00000231      -0.00003634
I        7.96879247       2.88482912      13.11678922       0.00002925       0.00000232      -0.00000778
I       14.15986204       9.24811728      13.10706787      -0.00002870      -0.00001084       0.00002050
I       10.55689630       6.56007635      12.07507942       0.00000840      -0.00001645      -0.00000453
I       16.93177586       0.26815805      13.23211714       0.00000149      -0.00001278       0.00001095
I       16.85053090       5.39357685       0.42719966      -0.00001287       0.00000138       0.00002407
I       10.58577508      12.05978585      24.72092348      -0.00001396      -0.00000157       0.00000444
I        6.80316522      12.81781478       9.36419478      -0.00000212       0.00000737      -0.00001723
I       14.25676469       6.51437920       9.42255497      -0.00002269       0.00000544       0.00001101
I       20.48139271      24.47628227       2.76012503      -0.00001300      -0.00001211      -0.00001456
I       13.15073284       5.43917095       3.07977071      -0.00000390       0.00000256       0.00000275
I        7.89017784       6.39386606       3.09048135       0.00000576       0.00000586       0.00006889
I       13.11462454      12.75121761       2.97085656       0.00000659      -0.00001435      -0.00002266
I       19.51724566       5.55973463       9.41188393       0.00001497       0.00000598      -0.00006316
I       14.16985773      24.54282223       9.15340598       0.00001150       0.00000961      -0.00001744