96
Lattice="12.944387163792161 0.12706956817499765 0.07162993828667415 -0.08328460392573313 12.976021734642343 0.025262454134618285 -0.05945530833811359 -0.017156175761477082 12.941557980993878" Properties=species:S:1:pos:R:3:forces:R:3 energy=-456.8013938015463 stress="0.005059145281891921 7.208546337520064e-05 1.0487911658605083e-05 7.208546337520064e-05 0.006004097546426363 0.0007996994737801009 1.0487911658605083e-05 0.0007996994737801009 0.0057563753295232405" free_energy=-456.8013938015463 pbc="T T T"
H        7.40916681      10.26818743       2.45681029      -0.00000560       0.00000530       0.00000649
H        7.45063465       4.80189213       1.43320944      -0.00000442      -0.00000513      -0.00002079
H        7.42110330       3.77158561       8.91482037      -0.00001255       0.00001143      -0.00001740
H        7.37933822      11.28139151       7.91654362      -0.00002685       0.00002459      -0.00002698
H        7.43533409      11.60746609       0.55912955       0.00001069       0.00000257      -0.00000014
H        7.47955144       2.89704565       2.76310101       0.00001530       0.00001379       0.00000276
H        2.45084702       9.64659537       9.73339666      -0.00000005      -0.00000244      -0.00000074
H        7.40809719       9.37650050       9.24636987       0.00000024      -0.00002382       0.00000315
H        3.32200092       3.99741572       1.91818248      -0.00000345       0.00000400       0.00000009
H        3.27815579      10.74494516       1.68508357      -0.00000008       0.00001055       0.00000950
H        3.25064581      10.47691819       8.40160900       0.00000343       0.00000171       0.00000424
H        8.77241900       9.93075157      10.19171559       0.00001818      -0.00000553       0.00001494
H        2.37570076       6.22619269       1.29644270       0.00000781       0.00000505      -0.00001493
H        2.32868977      10.09912162       3.90670309       0.00002222      -0.00001304       0.00001145
H        2.30436486      12.70572239       7.77992935      -0.00002456      -0.00001797       0.00003457
H        3.29009626       4.24831656       8.14325980      -0.00000792      -0.00000175       0.00001339
H        8.93597125      10.59148272       4.17343766       0.00000432      -0.00000204       0.00000917
H        0.93984093      11.01485762       4.45124733      -0.00001610       0.00000886       0.00002417
H        7.44731636       5.11109629       7.01729925      -0.00001585      -0.00000632      -0.00001439
H        2.49011895       5.58811822       7.32605048      -0.00000450       0.00001540       0.00001300
C        8.15812856      11.06168542       2.37171633      -0.00000537      -0.00000120      -0.00000591
C        1.68087925      11.58756837       2.65406830      -0.00001833       0.00001047      -0.00001335
C        1.65514238      11.43871631       9.25537611       0.00003320      -0.00001138      -0.00003708
C        1.69279890       5.09092760       9.11222189      -0.00003808       0.00004278      -0.00007554
N        2.57474569       3.96897092       2.61788436      -0.00000400       0.00000444       0.00000645
N        2.53059602      11.44458783       1.66336730       0.00001878      -0.00001123      -0.00001308
N        2.50341384      10.44847581       9.10133653      -0.00002264       0.00001086       0.00000027
N        8.12357474      10.08939172       9.42126168       0.00000194       0.00002146      -0.00000539
N        1.71626127       6.06043630       2.05640855      -0.00000322      -0.00000819       0.00000402
N        1.66909588      10.86033495       3.74751493      -0.00000106       0.00000458      -0.00001629
N        8.16312622       5.28352407       7.73055375      -0.00000391      -0.00001644       0.00001822
N        2.54250888       4.94792883       8.12151767       0.00002974      -0.00000179      -0.00000695
Pb       5.12186203       1.55697921      12.15905336      -0.00000359      -0.00001156       0.00000343
Pb      -1.35238740       1.53724211      12.20508928       0.00000191      -0.00000381       0.00000812
Pb       5.10988812       8.05356029       5.70089514       0.00000786       0.00000148       0.00000589
Pb       5.14937813       1.54186173       5.71525845      -0.00000869      -0.00000378       0.00000021
I        8.37283208       1.88740289      12.05676697      -0.00001132      -0.00000782      -0.00000141
I        1.82084716      14.25346293      12.37006888      -0.00000648       0.00000368       0.00000076
I        1.93090534       1.71341045       5.43084956      -0.00000192      -0.00000657      -0.00000643
I        8.40301456       1.46580387       6.02966179       0.00000483      -0.00000456       0.00000074
I        5.27017879      11.33128917      11.89618095       0.00000583      -0.00002007       0.00000428
I        4.87602175       4.85160804      -0.20404246       0.00000542       0.00000910       0.00000637
I        5.34160160       4.85185459       5.41281121      -0.00000178       0.00000830      -0.00000385
I        4.80464900      11.33104859       6.27937271       0.00000406       0.00000019       0.00000019
I        5.30312122      14.24822575       2.53277939       0.00000520       0.00000087      -0.00001102
I       -1.59785553       0.98417282       2.44757933      -0.00000437       0.00001237      -0.00000774
I       -1.12671279       1.84517298       8.91816854       0.00000264      -0.00000161       0.00000015
I        4.84439716       2.12092439       8.97333519      -0.00000586       0.00000464       0.00000350
H        0.96444091       4.86040204       3.55132844       0.00000067       0.00000717      -0.00001268
H        0.91867751      12.36766428       2.56255593       0.00000505      -0.00000491      -0.00000411
H        0.89315325      11.33992587      10.03484335       0.00000227      -0.00001651       0.00000581
H        0.93056704       5.87098988       9.02067886       0.00000085      -0.00000124      -0.00001162
H        2.52217596       3.16710210       3.24995944       0.00000713       0.00001043       0.00000036
H        2.47823349      12.08481678       0.86792915       0.00000240      -0.00000936       0.00001455
H        8.94787527       4.09468031      10.63152241      -0.00000610       0.00001478      -0.00001405
H        0.95180339       4.51828215      10.90943732      -0.00001698       0.00000058       0.00001726
H        8.79916206      12.55194687       1.11745606      -0.00000866      -0.00001601       0.00002137
H        8.84389878       3.45139852       3.70835970       0.00000767       0.00001228      -0.00001733
H        9.73540612       5.44424923       9.81864997      -0.00001417      -0.00002970       0.00001247
H        2.34068979       3.60257922      10.36493184      -0.00000542      -0.00001266       0.00000337
H        9.72348267      11.94096677       3.36040313       0.00000776      -0.00000866       0.00001196
H        9.76828047       5.69625204       3.10664163      -0.00001050       0.00000568      -0.00000363
H        8.81111970       6.05552366       7.57579785       0.00002210       0.00001140      -0.00002066
H        9.69692507      12.17560196       9.59014233      -0.00001797       0.00000312      -0.00000960
H        0.98772867       6.76316855       2.21829270       0.00000108      -0.00000170       0.00001865
H        8.97831428       6.51707342       1.76303880       0.00000669       0.00000895       0.00000105
H        0.91643318      13.24270434       8.70183533      -0.00001332       0.00000748      -0.00000728
H        8.90705573      12.99651078       8.24653377      -0.00000150      -0.00003349       0.00001117
C        1.72645095       4.95919843       2.77188154       0.00001519      -0.00001962       0.00001953
C        8.20107006       4.71287164       2.22495068       0.00000681       0.00000689       0.00003004
C        8.17006426       4.56509605       8.82983561       0.00001181      -0.00002203       0.00003924
C        8.12972452      11.19231569       8.70832403       0.00001882       0.00000274       0.00002031
N        8.15117283      11.77996829       1.27233929       0.00000055       0.00001938      -0.00000986
N        8.19500406       3.60997683       2.93793408      -0.00001473      -0.00002795      -0.00000410
N        9.00030686       4.73133505       9.83336072       0.00001670       0.00002802       0.00000273
N        1.68105498       4.36374924      10.20570441       0.00002251      -0.00000165       0.00003729
N        8.98838484      11.22805156       3.37520847       0.00000195      -0.00000709      -0.00001476
N        9.03195563       5.71519457       2.39491880      -0.00000634      -0.00000714       0.00000497
N        1.64495050      12.53996440       8.53991853       0.00001690       0.00000616      -0.00003169
N        8.96063973      12.19459925       8.87837780      -0.00000196       0.00002536      -0.00000395
Pb      -1.39538007       8.04862140      12.19032330      -0.00000888       0.00001063       0.00000833
Pb       5.07797616       8.02129365      12.19865784       0.00000001       0.00000807      -0.00000558
Pb      -1.32399329       1.56920782       5.70693956      -0.00000211      -0.00000483      -0.00000397
Pb      -1.36435733       8.03383976       5.74692786       0.00000611       0.00000212      -0.00000327
I        1.85951007       8.19279582      11.91418942       0.00000159      -0.00000014       0.00000942
I        8.33162150       7.94522277      12.51298607      -0.00000572       0.00000475       0.00000104
I        8.36086925       8.38406948       5.59855658      -0.00000849      -0.00000738       0.00000086
I        1.89216886       7.77396104       5.88663372       0.00000397       0.00000772      -0.00000967
I       -1.16773996       4.74315073      12.49813693       0.00001110      -0.00000722       0.00000025
I       -1.63549001      11.25004724      -1.29198578       0.00000699      -0.00000388      -0.00000261
I       -1.17961975      11.23973017       6.04000709      -0.00000689      -0.00000688       0.00001051
I       -1.62360833       4.75344242       5.16612684       0.00000328       0.00000058      -0.00000611
I       11.80573550       8.46878913       2.53161254       0.00000258       0.00000517      -0.00000405
I        4.83242356       8.61752428       2.51515210      -0.00000301      -0.00000259       0.00000449
I        5.31498229       7.75163186       8.99089575      -0.00000443       0.00000021      -0.00000867
I       -1.66930809       7.46359650       8.93095563       0.00000560      -0.00000745      -0.00000789
