320
Lattice="36.70028118634745 0.20205807547936527 0.9602754909858505 -0.11391901857253953 21.447500418429012 0.4270748515406278 -0.5272859817009051 -0.37998655406022835 19.601768391849955" Properties=species:S:1:pos:R:3:forces:R:3 energy=-992.0114929840676 stress="0.005319699390737444 1.9365921200645938e-05 -2.9979063340743626e-05 1.9365921200645938e-05 0.005026071359519475 2.4616680380959468e-05 -2.9979063340743626e-05 2.4616680380959468e-05 0.005456488445191441" free_energy=-992.0114929840676 pbc="T T T"
Cs      34.20186408      14.92402830       2.79215943      -0.00000733       0.00000708      -0.00000141
Cs       3.46582780       2.04035094      18.90225857       0.00000238       0.00001446       0.00001560
Cs      31.35855985      20.27054433       2.82436224      -0.00000235       0.00000955       0.00000171
Cs       6.19518168      18.14143991      19.29717122       0.00000179      -0.00000246      -0.00000353
Cs      34.07000575      14.82909795       7.69259163       0.00000803      -0.00000188       0.00000307
Cs       3.86124556       2.32545135       4.20096819       0.00001748      -0.00001558      -0.00000152
Cs      31.22674698      20.17558796       7.72482171      -0.00000802      -0.00000716      -0.00000102
Cs       6.59066059      18.42641397       4.59585197      -0.00000061       0.00000171      -0.00000568
Pb      28.83870607      15.46517453      19.83316333      -0.00000342      -0.00000862      -0.00000357
Pb       8.82895460       1.49927699       1.86130961      -0.00000493       0.00000010      -0.00000800
Pb      -0.91209426      20.66379375      19.16194091      -0.00000299      -0.00001068       0.00000108
Pb       1.76555820      17.54620861       1.99933025       0.00000799       0.00000085      -0.00001588
Pb      29.23414592      15.75021742       5.13183153      -0.00000303      -0.00001124      -0.00000429
Pb       8.69716271       1.40433144       6.76174616      -0.00001591      -0.00001278      -0.00000812
Pb      -0.51663884      20.94874531       4.46059930      -0.00000413       0.00000474       0.00000914
Pb       1.63370800      17.45117454       6.89975261       0.00001683      -0.00000353      -0.00000009
I       28.18428635      17.65684381       2.68832054       0.00001002      -0.00000991       0.00000605
I       27.71958627      20.85620049      19.91326694      -0.00000309       0.00000845       0.00000034
I        0.75891007       1.41894676       1.64900402      -0.00000988      -0.00001228       0.00000113
I        0.20847658      15.34355939      19.08519035      -0.00000201      -0.00000729      -0.00000220
I        7.40955862      13.92764194      19.24177451       0.00000171      -0.00000245      -0.00000535
I       30.25808675       3.03690966       2.45267779      -0.00000857      -0.00000276       0.00000009
I        2.18340382      19.25947047      19.21460289      -0.00000355       0.00000259       0.00000157
I       35.37034373      19.15258608       2.90692529      -0.00000332      -0.00001994      -0.00000233
I       31.62226523      16.88848479      19.93420777       0.00000526       0.00000845       0.00000184
I        5.93146733      21.52347093       2.18736721       0.00001667      -0.00000544      -0.00001482
I       33.10262269       0.81200456      19.65007477      -0.00000368       0.00000846       0.00000775
I        4.56502506      16.15251797       2.04438847      -0.00000034      -0.00000206       0.00000078
I       28.05247203      17.56186270       7.58880853      -0.00000246       0.00000353      -0.00000416
I       28.11506823      21.14116326       5.21195925      -0.00000233       0.00000304      -0.00000122
I        0.62708856       1.32389511       6.54943648      -0.00001011       0.00001410       0.00000067
I        0.60392586      15.62849948       4.38383943       0.00000286       0.00000331       0.00000119
I        7.80502966      14.21258026       4.54044643       0.00000042      -0.00000852      -0.00000438
I       30.12627777       2.94184201       7.35311478       0.00000847       0.00000278       0.00001282
I        2.57885784      19.54442654       4.51329586      -0.00000009      -0.00000014      -0.00000691
I       35.23850166      19.05755556       7.80735980      -0.00000556      -0.00000256       0.00000470
I       32.01770796      17.17351627       5.23285292       0.00001235       0.00000673       0.00001217
I        5.79969188      21.42850640       7.08775771      -0.00000574      -0.00001650       0.00000251
I       33.49809586       1.09699402       4.94873205      -0.00000298      -0.00000033       0.00000529
I        4.43317450      16.05747956       6.94479992       0.00001110       0.00000674       0.00000105
Cs      33.93816168      14.73405480      12.59304626       0.00002142       0.00000375       0.00000191
Cs       3.72946701       2.23041465       9.10139269       0.00000302      -0.00000251       0.00000485
Cs      31.09486853      20.08059809      12.62528955       0.00001209      -0.00001418      -0.00000471
Cs       6.45887090      18.33139024       9.49623380      -0.00001405       0.00000570      -0.00000582
Cs      33.80639286      14.63903132      17.49348605       0.00000117       0.00001180      -0.00000415
Cs       3.59765944       2.13534889      14.00182750      -0.00000071       0.00001322      -0.00000132
Cs      30.96308089      19.98556077      17.52570907       0.00000211      -0.00000196       0.00000607
Cs       6.32704236      18.23639316      14.39668465      -0.00000526       0.00000278       0.00000237
Pb      29.10233879      15.65521025      10.03227822      -0.00001204       0.00000363      -0.00000103
Pb       8.56533033       1.30926126      11.66216751       0.00000583       0.00001731       0.00000597
Pb      -0.64847713      20.85373404       9.36105252       0.00001039      -0.00001276       0.00000445
Pb       1.50190968      17.35620585      11.80019267       0.00000028       0.00000236       0.00000618
Pb      28.97052962      15.56014886      14.93271974      -0.00000886       0.00001979       0.00000308
Pb       8.43353314       1.21424035      16.56261155      -0.00001201       0.00000544       0.00000622
Pb      -0.78029590      20.75876133      14.26149838       0.00000912       0.00000685       0.00000535
Pb       1.37010221      17.26124444      16.70063562       0.00000201      -0.00001240       0.00000960
I       27.92064697      17.46683209      12.48927918       0.00000454      -0.00000607      -0.00000096
I       27.98323226      21.04618651      10.11245010       0.00000417      -0.00000361      -0.00000916
I        0.49527660       1.22890975      11.44984167      -0.00001517      -0.00000468       0.00000703
I        0.47209406      15.53350303       9.28432921      -0.00000175       0.00000642      -0.00000149
I        7.67321408      14.11760210       9.44086339      -0.00000129      -0.00001432      -0.00000493
I       29.99446354       2.84685604      12.25363626      -0.00001157       0.00001030      -0.00001174
I        2.44702504      19.44941368       9.41368535       0.00000864       0.00001143       0.00000050
I       35.10668309      18.96257206      12.70784020      -0.00000148      -0.00000666      -0.00000177
I       31.88588328      17.07854190      10.13334224       0.00000763      -0.00000135      -0.00000149
I        5.66786875      21.33341759      11.98816086      -0.00000215       0.00001376       0.00000401
I       33.36626668       1.00200010       9.84921176      -0.00000516      -0.00000892      -0.00000266
I        4.30138009      15.96252374      11.84524236      -0.00000334      -0.00000755      -0.00000511
I       27.78884535      17.37181211      17.38967962      -0.00000013      -0.00000163       0.00000057
I       27.85140066      20.95122098      15.01290476      -0.00000820      -0.00000384      -0.00001504
I        0.36342971       1.13396294      16.35031173      -0.00000167      -0.00001887      -0.00001599
I        0.34029508      15.43854341      14.18476889       0.00000058      -0.00000111      -0.00000440
I        7.54135938      14.02264313      14.34131810       0.00001365      -0.00000002       0.00000200
I       29.86259583       2.75193647      17.15408495       0.00000024      -0.00000136      -0.00002112
I        2.31521524      19.35446759      14.31414350       0.00000297      -0.00000406      -0.00001159
I       34.97487647      18.86760518      17.60827798       0.00000056      -0.00001229      -0.00000864
I       31.75406565      16.98350359      15.03377330       0.00000812      -0.00000342       0.00000511
I        5.53605162      21.23842678      16.88861064       0.00000072       0.00000139       0.00000894
I       33.23443207       0.90700040      14.74964741       0.00000637       0.00000327       0.00000936
I        4.16956829      15.86754975      16.74570373      -0.00000714      -0.00000228      -0.00000813
Cs      34.25878916       4.20036246       2.57860873       0.00000722      -0.00001294       0.00000559
Cs       3.40882403      12.76421703      19.11582310       0.00000252      -0.00000703       0.00000639
Cs      31.41548604       9.54684651       2.61088496       0.00000238      -0.00001485      -0.00000383
Cs       6.25215114       7.41767038      19.08355372      -0.00000141      -0.00000249       0.00001099
Cs      34.12700411       4.10531857       7.47906488      -0.00000009      -0.00000165      -0.00000833
Cs       3.80432401      13.04911757       4.41448013      -0.00000573       0.00001138       0.00000371
Cs      31.28368030       9.45174468       7.51131883      -0.00000102       0.00002193      -0.00001211
Cs       6.64761468       7.70266146       4.38224062      -0.00000154      -0.00000090      -0.00000510
Pb      28.89560412       4.74151633      19.61966969       0.00000511      -0.00001146      -0.00001010
Pb       8.77199895      12.22303224       2.07479768      -0.00001092       0.00000333       0.00001001
Pb      -0.85514864       9.93993799      18.94839142       0.00001585       0.00001285       0.00000809
Pb       1.82252601       6.82242033       1.78575678       0.00001966      -0.00001889      -0.00000215
Pb      29.29111720       5.02643686       4.91831592      -0.00001461      -0.00000713      -0.00000295
Pb       8.64017106      12.12800545       6.97526147      -0.00000623       0.00000723      -0.00000174
Pb      -0.45968366      10.22496066       4.24708632       0.00001522       0.00001158      -0.00001148
Pb       1.69072865       6.72747405       6.68620974      -0.00000020      -0.00000584       0.00000285
I       28.24120840       6.93312156       2.47489881       0.00000588      -0.00001353      -0.00001475
I       27.77655681      10.13236216      19.69979022       0.00000231       0.00000737      -0.00000156
I        0.70194185      12.14261927       1.86249494      -0.00000882      -0.00000199       0.00001218
I        0.26543688       4.61972349      18.87166616      -0.00000265       0.00000662      -0.00000916
I        7.46655052       3.20381759      19.02820430      -0.00000882       0.00000283      -0.00000048
I       30.20110984      13.76060965       2.66625519       0.00001017       0.00000137      -0.00000338
I        2.24035114       8.53562922      19.00102808      -0.00000019       0.00001605      -0.00000651
I       35.42730147       8.42877617       2.69339975      -0.00001214      -0.00001278       0.00001115
I       31.67916082       6.16481952      19.72069808       0.00002340       0.00000258       0.00000235
I        5.98844668      10.79970872       1.97370971      -0.00000062       0.00000478       0.00001515
I       33.04567302      11.53570193      19.86364273      -0.00000666       0.00000115      -0.00001325
I        4.62199868       5.42872855       1.83076685      -0.00001421       0.00000919       0.00002099
I       28.10942407       6.83803875       7.37531123       0.00000659       0.00000959      -0.00000815
I       28.17198074      10.41739159       4.99848916       0.00001190      -0.00000095      -0.00001169
I        0.57012924      12.04765805       6.76295730      -0.00001642      -0.00001123       0.00000381
I        0.66089328       4.90478153       4.17036884       0.00000689       0.00000098      -0.00002309
I        7.86199490       3.48887128       4.32689681       0.00000358       0.00000099       0.00000265
I       30.06931006      13.66565822       7.56665593      -0.00000686       0.00000248       0.00000803
I        2.63583997       8.82068462       4.29968673      -0.00000365       0.00000381       0.00000968
I       35.29548296       8.33380473       7.59386134       0.00000174      -0.00001209      -0.00000670
I       32.07466971       6.44976208       5.01935186       0.00000876       0.00000507       0.00000863
I        5.85661854      10.70468451       6.87420422      -0.00000337       0.00001479       0.00000415
I       33.44113226      11.82070067       5.16233062      -0.00000589       0.00000953      -0.00000321
I        4.49018553       5.33376657       6.73123802       0.00000103       0.00001110       0.00002279
Cs      33.99519168       4.01031752      12.37951176      -0.00000044       0.00000560      -0.00000234
Cs       3.67246532      12.95415723       9.31493849       0.00000598       0.00000300       0.00000143
Cs      31.15188961       9.35681281      12.41172016      -0.00001098      -0.00000483      -0.00000434
Cs       6.51578722       7.60768016       9.28272590      -0.00000186      -0.00000654      -0.00000291
Cs      33.86331583       3.91536324      17.27995638       0.00000140      -0.00000424      -0.00000096
Cs       3.54066394      12.85918038      14.21539542      -0.00001103       0.00001212      -0.00000171
Cs      31.02002455       9.26183120      17.31218038       0.00001009      -0.00000834      -0.00000358
Cs       6.38394340       7.51271420      14.18315758      -0.00000186      -0.00001449       0.00000431
Pb      29.15932830       4.93138106       9.81876337      -0.00001622       0.00001320      -0.00000634
Pb       8.50833455      12.03306007      11.87572447      -0.00000233      -0.00000461      -0.00000802
Pb      -0.59150930      10.12999263       9.14753011       0.00001458       0.00000117      -0.00000239
Pb       1.55889558       6.63243642      11.58664849       0.00000638      -0.00000850       0.00000500
Pb      29.02747949       4.83646277      14.71921202      -0.00000521       0.00000054      -0.00000673
Pb       8.37651475      11.93808543      16.77614818      -0.00000359      -0.00000826       0.00001241
Pb      -0.72333099      10.03492585      14.04797150       0.00000341       0.00001929      -0.00000522
Pb       1.42705384       6.53736244      16.48708112       0.00003865       0.00001488       0.00001072
I       27.97764073       6.74307215      12.27568202      -0.00000760       0.00000009       0.00000353
I       28.04019633      10.32243059       9.89884916      -0.00000007      -0.00000740       0.00000645
I        0.43827375      11.95264299      11.66345083       0.00000080       0.00000419      -0.00001076
I        0.52912458       4.80977467       9.07074313      -0.00001365      -0.00000526       0.00000598
I        7.73017592       3.39386555       9.22737315       0.00000037      -0.00000473      -0.00001461
I       29.93748856      13.57061759      12.46707522       0.00000224      -0.00000147       0.00001669
I        2.50400675       8.72570757       9.20019180       0.00000025      -0.00000467      -0.00000515
I       35.16365524       8.23877128      12.49426480       0.00000302       0.00000949      -0.00000310
I       31.94287101       6.35472399       9.91980108       0.00000621       0.00000339       0.00000062
I        5.72477022      10.60976082      11.77465059       0.00000443      -0.00001621       0.00000905
I       33.30930867      11.72574101      10.06270940      -0.00000602      -0.00001054       0.00001203
I        4.35835877       5.23874506      11.63170472       0.00000478       0.00000496       0.00000882
I       27.84577438       6.64814187      17.17614678      -0.00000763      -0.00001741      -0.00000198
I       27.90840099      10.22738825      14.79925644      -0.00000706       0.00000008       0.00001313
I        0.30647284      11.85763052      16.56384105      -0.00001360      -0.00000858       0.00000364
I        0.39728221       4.71470847      13.97117706      -0.00000781       0.00002080      -0.00000275
I        7.59836576       3.29880366      14.12780941      -0.00000480       0.00000004      -0.00002205
I       29.80568796      13.47559572      17.36755987      -0.00000655      -0.00000442       0.00000054
I        2.37217501       8.63065356      14.10063316       0.00000087      -0.00000888      -0.00000619
I       35.03183972       8.14373079      17.39472834      -0.00001777       0.00001200      -0.00000071
I       31.81103485       6.25977499      14.82022103       0.00000479       0.00000533       0.00001432
I        5.59295561      10.51477139      16.67511205       0.00000409      -0.00001053      -0.00000203
I       33.17748875      11.63068777      14.96318188      -0.00000588       0.00000653       0.00000289
I        4.22654789       5.14370848      16.53212330      -0.00002412       0.00000907       0.00000344
Cs      15.85178752      14.82307014       2.31202254      -0.00001342      -0.00001272       0.00000618
Cs      21.81590381       2.14144105      19.38243657       0.00000201       0.00000156      -0.00001320
Cs      13.00834883      20.16950050       2.34429182       0.00002434       0.00001401      -0.00000817
Cs      24.54536679      18.24247503      19.77722991      -0.00000513       0.00000674       0.00001042
Cs      15.71993432      14.72801332       7.21244725       0.00000136       0.00000530       0.00000008
Cs      22.21137424       2.42638296       4.68109872       0.00001068       0.00000722      -0.00000541
Cs      12.87662991      20.07444985       7.24468429      -0.00001367       0.00001926       0.00000035
Cs      24.94081637      18.52746950       5.07594141       0.00000162       0.00000454      -0.00000268
Pb      10.48855544      15.36416699      19.35304966      -0.00000689      -0.00000086      -0.00000151
Pb      27.17910943       1.60031694       2.34141636      -0.00000441       0.00000323       0.00000438
Pb      17.43800745      20.76471705      19.64208318       0.00001247       0.00000956      -0.00000279
Pb      20.11577090      17.64726553       2.47945633       0.00000254      -0.00000143      -0.00000428
Pb      10.88403285      15.64909405       4.65170544      -0.00000603       0.00000161      -0.00000150
Pb      27.04728930       1.50530377       7.24186185      -0.00000230       0.00000719      -0.00000698
Pb      17.83348718      21.04979593       4.94075774       0.00001225      -0.00000695      -0.00000042
Pb      19.98393177      17.55228589       7.37989519       0.00002052      -0.00001397      -0.00000101
I        9.83413860      17.55576779       2.20827076       0.00000223       0.00000497      -0.00000045
I        9.36943797      20.75511097      19.43320664       0.00000852       0.00000490       0.00000224
I       19.10900341       1.51994068       2.12907942      -0.00000642      -0.00000790       0.00000316
I       18.55868899      15.44456642      19.56537890      -0.00000526      -0.00000526      -0.00001824
I       25.75975500      14.02855926      19.72187602      -0.00001065       0.00001536      -0.00000399
I       11.90792684       2.93585021       1.97258650       0.00001017       0.00000827      -0.00000331
I       20.53356039      19.36049636      19.69470079      -0.00000897      -0.00000948      -0.00000087
I       17.02021985      19.05149752       2.42684438       0.00000064      -0.00000349       0.00000160
I       13.27210207      16.78750476      19.45413244       0.00001299      -0.00001425      -0.00001332
I       24.28164085      21.62449825       2.66741437      -0.00000247      -0.00000102       0.00001240
I       14.75245914       0.71089219      19.16996004      -0.00001087       0.00000151       0.00000138
I       22.91524276      16.25357240       2.52447485      -0.00002381       0.00000728       0.00001381
I        9.70238765      17.46076290       7.10868567      -0.00001370      -0.00000116      -0.00000564
I        9.76491941      21.04014967       4.73187222      -0.00000238      -0.00000419       0.00000233
I       18.97717696       1.42498320       7.02959323      -0.00000008      -0.00001829      -0.00000727
I       18.95417426      15.72958069       4.86402053      -0.00001271      -0.00000588      -0.00000286
I       26.15517674      14.31363175       5.02053635       0.00000225      -0.00000352       0.00001107
I       11.77613194       2.84090501       6.87301583       0.00000116      -0.00000399      -0.00000042
I       20.92902861      19.64553886       4.99340589      -0.00000144      -0.00000442      -0.00000076
I       16.88840053      18.95653102       7.32722832      -0.00000442      -0.00000852      -0.00000022
I       13.66758554      17.07241722       4.75273208       0.00001216       0.00001191       0.00001430
I       24.14980701      21.52949632       7.56789401       0.00000211       0.00000790      -0.00000123
I       15.14793377       0.99595361       4.46863915      -0.00001076      -0.00000410      -0.00000972
I       22.78339627      16.15858709       7.42495578      -0.00000926       0.00000670      -0.00000030
Cs      15.58812221      14.63305324      12.11290001      -0.00001181      -0.00000995      -0.00000440
Cs      22.07954187       2.33144180       9.58153413       0.00000940      -0.00000812       0.00000916
Cs      12.74473720      19.97949636      12.14509310       0.00001528       0.00000409       0.00001314
Cs      24.80900247      18.43251278       9.97640702      -0.00000832      -0.00001674       0.00000345
Cs      15.45627772      14.53812414      17.01336775      -0.00000773      -0.00001181      -0.00000585
Cs      21.94772772       2.23648585      14.48197793       0.00000046      -0.00000600       0.00001038
Cs      12.61293988      19.88447260      17.04558435       0.00000117       0.00001801      -0.00000150
Cs      24.67717225      18.33751020      14.87683085      -0.00000272      -0.00000734      -0.00000415
Pb      10.75223098      15.55408684       9.55213571      -0.00001573       0.00000587       0.00000842
Pb      26.91545080       1.41035415      12.14232754       0.00000084      -0.00000349      -0.00000464
Pb      17.70166996      20.95476099       9.84120043      -0.00000245       0.00000210       0.00000437
Pb      19.85208338      17.45721951      12.28033291       0.00002409       0.00000928       0.00000267
Pb      10.62036759      15.45917607      14.45259237      -0.00000121      -0.00001233       0.00000514
Pb      26.78360743       1.31538392      17.04276673      -0.00000451      -0.00001026      -0.00000221
Pb      17.56981765      20.85971429      14.74163801       0.00001468       0.00001075      -0.00000089
Pb      19.72028198      17.36221139      17.18076575       0.00001262       0.00000532       0.00000796
I        9.57052515      17.36577739      12.00906694      -0.00000350       0.00000547      -0.00000337
I        9.63312967      20.94515457       9.63226019      -0.00001308      -0.00000454      -0.00000276
I       18.84535486       1.32992417      11.93003706      -0.00000308       0.00000276      -0.00000141
I       18.82231786      15.63456672       9.76440891      -0.00000884       0.00000020       0.00000800
I       26.02334535      14.21865387       9.92101977       0.00000862       0.00000123      -0.00000011
I       11.64430008       2.74586155      11.77344229       0.00000333      -0.00000572      -0.00000494
I       20.79719889      19.55050586       9.89388055      -0.00000602      -0.00000143      -0.00000750
I       16.75656125      18.86147861      12.22766547      -0.00000687       0.00000841       0.00000191
I       13.53577601      16.97742059       9.65318139       0.00001551       0.00000353       0.00000175
I       24.01796341      21.43456165      12.46834678       0.00001078      -0.00001490       0.00000001
I       15.01610950       0.90091695       9.36905449      -0.00000385       0.00000845       0.00000792
I       22.65156598      16.06356136      12.32538361      -0.00000279       0.00000044       0.00000661
I        9.43870278      17.27083031      16.90957857      -0.00001005      -0.00001214      -0.00001284
I        9.50130828      20.85011071      14.53269450      -0.00000636      -0.00000255       0.00001128
I       18.71351548       1.23491090      16.83045047       0.00000396      -0.00000317      -0.00001055
I       18.69050151      15.53951368      14.66488203      -0.00000750       0.00001319      -0.00000717
I       25.89154972      14.12357525      14.82148357       0.00000208       0.00000890      -0.00001565
I       11.51248658       2.65083414      16.67390568       0.00000341      -0.00000375      -0.00000708
I       20.66535397      19.45546989      14.79429647      -0.00000209      -0.00000512      -0.00001201
I       16.62474414      18.76644930      17.12812052      -0.00000897       0.00000624       0.00000883
I       13.40392669      16.88247576      14.55360071       0.00001300       0.00000201       0.00001411
I       23.88613457      21.33955191      17.36876084       0.00002235       0.00000572       0.00000531
I       14.88426798       0.80589479      14.26949731      -0.00000113      -0.00000710      -0.00000363
I       22.51976606      15.96854987      17.22579217      -0.00001603      -0.00000112       0.00000903
Cs      15.90861146       4.09929009       2.09844685       0.00001029      -0.00000581       0.00001288
Cs      21.75907672      12.86522461      19.59597047      -0.00001945      -0.00000865      -0.00001217
Cs      13.06538953       9.44578730       2.13068256      -0.00000797       0.00000409       0.00000142
Cs      24.60226656       7.51867331      19.56374243      -0.00000250       0.00000151       0.00001248
Cs      15.77677013       4.00432116       6.99894747       0.00001723      -0.00000270      -0.00000798
Cs      22.15449833      13.15023619       4.89465176      -0.00001009      -0.00000600       0.00000128
Cs      12.93350890       9.35081642       7.03114125       0.00001234      -0.00000851       0.00000450
Cs      24.99768267       7.80369093       4.86242845       0.00001874      -0.00000379      -0.00000235
Pb      10.54551351       4.64041691      19.13949675      -0.00001039      -0.00000002      -0.00000602
Pb      27.12214642      12.32401227       2.55497677      -0.00000844       0.00000938      -0.00001008
Pb      17.49502777      10.04108322      19.42854885      -0.00000834      -0.00001393      -0.00000202
Pb      20.17263054       6.92345303       2.26590577       0.00001206      -0.00000467      -0.00000308
Pb      10.94096668       4.92544936       4.43817419       0.00000204      -0.00000142      -0.00000180
Pb      26.99032221      12.22909574       7.45540642      -0.00000431      -0.00000438      -0.00000498
Pb      17.89045250      10.32599455       4.72721630       0.00000190      -0.00000057      -0.00000798
Pb      20.04079025       6.82840896       7.16633469       0.00000165       0.00001555       0.00000172
I        9.89111380       6.83207955       1.99467274      -0.00000244      -0.00000785      -0.00000352
I        9.42640177      10.03141724      19.21960152       0.00000039      -0.00000161      -0.00000456
I       19.05211675      12.24369659       2.34270437       0.00000585       0.00000224      -0.00000436
I       18.61553371       4.72082667      19.35175562       0.00000712      -0.00000770       0.00000696
I       25.81663454       3.30492282      19.50839646       0.00000351      -0.00000280      -0.00000751
I       11.85100098      13.65956466       2.18607908      -0.00000168       0.00000059       0.00000340
I       20.59050827       8.63672277      19.48121344      -0.00000216       0.00000826      -0.00000463
I       17.07715189       8.32779902       2.21322469       0.00000127      -0.00000675       0.00000601
I       13.32906733       6.06374386      19.24049179       0.00000946      -0.00000080       0.00001369
I       24.33855993      10.90073790       2.45391942       0.00002487      -0.00000820       0.00000497
I       14.69555451      11.43476443      19.38348718       0.00000082      -0.00000342      -0.00000343
I       22.97208764       5.52973142       2.31097896      -0.00000095       0.00002097      -0.00000223
I        9.75929116       6.73709788       6.89515366      -0.00001366      -0.00000813      -0.00000922
I        9.82184214      10.31637504       4.51827473       0.00001528      -0.00000178       0.00000622
I       18.92027197      12.14864878       7.24310380      -0.00000678       0.00001383       0.00000404
I       19.01097217       5.00575883       4.65041517       0.00001063       0.00000403       0.00002420
I       26.21214131       3.58986436       4.80703481      -0.00001294      -0.00000534       0.00000369
I       11.71918715      13.56451532       7.08652607      -0.00000893       0.00001533       0.00000488
I       20.98594808       8.92165467       4.77988561      -0.00000820       0.00000656      -0.00000643
I       16.94530449       8.23274489       7.11368204       0.00000213       0.00000668       0.00001445
I       13.72452937       6.34876162       4.53919415      -0.00000527      -0.00000019       0.00000582
I       24.20677042      10.80576888       7.35437655      -0.00000669      -0.00000573      -0.00001346
I       15.09099694      11.71969993       4.68214056       0.00000389       0.00000226       0.00000031
I       22.84026846       5.43473120       7.21139458      -0.00000290       0.00000267       0.00000088