96
Lattice="18.635368294392002 -0.1304413698946103 -0.04828978670531359 -0.023043611056521744 11.309108950285028 0.04131313359228576 -0.021456937568806813 -0.03880333563727776 9.390393073419649" Properties=species:S:1:pos:R:3:forces:R:3 energy=-419.3836728531311 stress="0.0010158210352187635 -0.00030183611987195664 -0.00012254679775907946 -0.00030183611987195664 0.0019872457721615013 -1.869929535519514e-05 -0.00012254679775907946 -1.869929535519514e-05 0.00011552864228325964" free_energy=-419.3836728531311 pbc="T T T"
I       16.80261297       7.65489337       4.83557358      -0.00000671      -0.00000375      -0.00000195
I       17.44394349      11.57751518       2.49728415      -0.00001355      -0.00000124       0.00000986
I        8.10801600      13.38153157       4.87694021       0.00001853       0.00000664      -0.00000090
I        7.50319386       5.98125900       2.50416815      -0.00000206       0.00001491      -0.00000526
I       15.14235445       4.14232912       2.46738673       0.00000145      -0.00000123      -0.00000016
I        0.46884043      15.22053828       4.91372315       0.00000360      -0.00001899      -0.00000793
I        9.80724936       9.86365008       2.52402264       0.00000108      -0.00000286      -0.00000063
I        5.80393664       9.49917375       4.85703466       0.00001164      -0.00000024       0.00001590
I        2.10510111       7.62885995       2.52587920      -0.00001303      -0.00000364       0.00000719
I       13.50611231      11.73394659       4.85522436       0.00001367       0.00000533       0.00001013
I        4.21274160      13.23706207       2.53420473      -0.00001920      -0.00000512      -0.00000029
I       11.39851162       6.12581151       4.84691981       0.00000127       0.00000019       0.00001037
H        4.57878401       6.06007953       3.96338117       0.00001419      -0.00000488      -0.00000120
H       12.26657650      14.26944087       2.54329456       0.00000332       0.00001029      -0.00000100
H        1.72084464      11.73904479       5.78048111       0.00000255      -0.00000317       0.00001827
H       13.89035113       7.62388213       1.60048901      -0.00000395       0.00000778       0.00000974
H        3.34466119       5.09332173       4.83759889       0.00000220      -0.00000050      -0.00000448
H       11.03254873      13.30264628       3.41760293      -0.00000644       0.00000018      -0.00001101
H        2.95081316      10.77556501       4.89730155       0.00000901      -0.00001840       0.00000900
H       13.87462202       7.62347582       3.38739490      -0.00001026      -0.00000998       0.00001418
H        4.56026837       6.04766724       5.75000165       0.00002546       0.00000363       0.00004528
H       11.05084571      13.31516592       1.63097773      -0.00001642       0.00001595       0.00001165
H        1.73642622      11.73938610       3.99357525       0.00000416       0.00000394       0.00000773
H       12.66038087       8.58742231       2.48360358       0.00000800      -0.00002835       0.00000740
H        5.11947302       3.65673437       5.67326445       0.00002173       0.00000094      -0.00002115
H        9.32638013      14.80255252       2.51779329      -0.00001206       0.00001313       0.00000620
H        0.00947578      10.24856849       4.87261638      -0.00000975       0.00001372      -0.00001231
H       14.45003016      10.01465557       1.67336933      -0.00001088      -0.00002894       0.00003894
H        6.28486001       4.56023926       4.86351621      -0.00003318      -0.00001342      -0.00000804
H       10.49165484      15.70608678       1.70791158       0.00000467      -0.00002951       0.00001980
H        1.16133261       9.34821564       5.70772285       0.00002083      -0.00000748       0.00001803
H       15.60175031       9.11420421       2.50857251       0.00001742       0.00000555      -0.00000124
H        5.13467180       3.66700253       4.01944481      -0.00001355       0.00002058      -0.00000665
H       10.47668650      15.69574772       3.36173158       0.00000212       0.00002117       0.00002509
H        1.17388471       9.35011329       4.05420867      -0.00000108       0.00000827      -0.00000291
H       14.43732202      10.01271938       3.32688287      -0.00000003       0.00002366       0.00003670
C        4.37874037       5.45265997       4.85050234      -0.00001734       0.00000603      -0.00003824
C       11.23249191      13.91011590       2.53049276      -0.00003196      -0.00000719       0.00000939
C        1.91772590      11.13773063       4.88859930      -0.00000238      -0.00000138      -0.00002310
C       13.69344082       8.22517720       2.49237863      -0.00002276      -0.00000019      -0.00004016
Pb      -0.53147177       5.92356337       2.53025505       0.00002353      -0.00001187       0.00001131
Pb      16.14265656      13.43930133       4.85086951      -0.00000024       0.00000059      -0.00001133
Pb       6.83909283      11.51127720       2.51989516      -0.00000728      -0.00000877       0.00002209
Pb       8.77211614       7.85155538       4.86117925       0.00001135      -0.00001120      -0.00002617
N        5.29255666       4.28056876       4.85154981      -0.00001178      -0.00000072       0.00005418
N       10.31868566      15.08221669       2.52962392       0.00002559      -0.00000336      -0.00006942
N        1.00150341       9.96789976       4.88060757       0.00000568       0.00000457      -0.00001713
N       14.60974367       9.39494281       2.50048565       0.00000304       0.00002176      -0.00004889
I       16.79188845       7.63549406       9.53072595       0.00001236       0.00000561       0.00000267
I       17.43327864      11.55813489       7.19247361      -0.00000062      -0.00000020       0.00002807
I        8.09733621      13.36210124       9.57208142       0.00001064       0.00001744      -0.00000234
I        7.49241851       5.96190553       7.19937878       0.00001147      -0.00001884      -0.00000921
I       15.13167943       4.12294687       7.16259192      -0.00000885       0.00001256      -0.00000738
I        0.45811592      15.20112050       9.60895485      -0.00000780       0.00000466      -0.00000404
I        9.79646526       9.84427090       7.21920172      -0.00000844      -0.00001072       0.00000107
I        5.79321914       9.47975746       9.55228696       0.00001344       0.00000797       0.00000916
I        2.09444205       7.60951807       7.22107519      -0.00001790      -0.00001387      -0.00000458
I       13.49537874      11.71457082       9.55043531       0.00000784      -0.00001932       0.00000895
I        4.20187381      13.21759984       7.22941647       0.00002333       0.00000220       0.00000595
I       11.38778774       6.10639549       9.54212527       0.00001883       0.00001813      -0.00000998
H        4.56779189       6.04062098       8.65866051       0.00001581       0.00003174      -0.00004230
H       12.25583780      14.25008701       7.23818865       0.00002083       0.00000981      -0.00000330
H        1.71000841      11.71947007      10.47613847       0.00000876       0.00001813      -0.00001057
H       13.86386885       7.60414487       8.08266927      -0.00000298      -0.00000183      -0.00000232
H        3.33394283       5.07379030       9.53317901       0.00001910       0.00001685      -0.00000481
H       11.02197982      13.28331025       8.11274660      -0.00002769      -0.00002480       0.00001514
H        2.94011403      10.75614955       9.59297716       0.00001074      -0.00001689      -0.00001567
H       12.64962847       8.56810579       7.17889293       0.00000748      -0.00002634       0.00000995
H        4.54971937       6.02821169      10.44528647       0.00000949      -0.00000104       0.00000805
H       11.03995291      13.29576193       6.32611950       0.00001025       0.00002117       0.00000888
H        1.72587566      11.72014241       8.68923549      -0.00000744      -0.00001933      -0.00002608
H       13.87954439       7.60451482       6.29576393       0.00002142       0.00000735      -0.00002429
H        6.27417855       4.54088932       9.55833931       0.00001441       0.00000076       0.00002043
H       10.46602112      15.67636897       8.05691696       0.00001887       0.00000902      -0.00000382
H        1.16332319       9.33081306       8.74939635       0.00000859       0.00000113      -0.00002891
H       15.59101360       9.09482215       7.20374109      -0.00003290      -0.00000563       0.00001418
H        5.12382097       3.64756148       8.71461596      -0.00003625      -0.00000254      -0.00003661
H        9.31563371      14.78315877       7.21310873      -0.00002281       0.00000668      -0.00000106
H       -0.00122015      10.22916307       9.56771801      -0.00003018       0.00002323      -0.00000456
H       14.42663631       9.99335644       8.02211498       0.00001230       0.00000457      -0.00002344
H        5.10905758       3.63733732      10.36843831      -0.00001610      -0.00000473      -0.00000375
H       10.48081237      15.68670621       6.40309252      -0.00000486       0.00000820       0.00000699
H        1.15049937       9.32870141      10.40290940      -0.00001745       0.00000779      -0.00003606
H       14.43926658       9.99529352       6.36859871      -0.00002131       0.00000844      -0.00001789
C        4.36800360       5.43319296       9.54583145      -0.00002798      -0.00001005       0.00004160
C       11.22175576      13.89074862       7.22557866      -0.00000550      -0.00001528       0.00001176
C        1.90702947      11.11832012       9.58417616      -0.00002444       0.00000475       0.00000387
C       13.68267960       8.20583420       7.18764602      -0.00002284       0.00001017      -0.00000114
Pb      -0.54211630       5.90417248       7.22546022      -0.00000471      -0.00000714       0.00000449
Pb      16.13193325      13.41989410       9.54606071       0.00000285       0.00001891      -0.00000716
Pb       6.82828188      11.49184508       7.21509040       0.00000093       0.00001746       0.00000895
Pb       8.76140050       7.83217089       9.55639366      -0.00000030      -0.00003462       0.00000625
N        5.28189051       4.26115753       9.54666483      -0.00001002      -0.00002601       0.00002001
N       10.30793640      15.06283764       7.22482205       0.00001657       0.00001376      -0.00005400
N        0.99080525       9.94849298       9.57584533       0.00002865      -0.00000084       0.00006733
N       14.59901035       9.37557917       7.19570714       0.00004424      -0.00003086       0.00002460
