40
Lattice="15.888193639036098 -0.003934781409303412 -0.002331490436779179 0.01130182222743824 14.232682535670198 0.07338734714926219 0.018323133683090746 -0.03830970994407146 8.479236214375048" Properties=species:S:1:pos:R:3:forces:R:3 energy=-123.46120869008833 stress="0.000576411363286669 2.2746407454264822e-05 3.3634002267439956e-05 2.2746407454264822e-05 0.0019231237210069671 2.230013330446188e-05 3.3634002267439956e-05 2.230013330446188e-05 0.0012295654368222522" free_energy=-123.46120869008833 pbc="T T T"
Cs       4.95445011       1.61000489       4.45378787      -0.00000294       0.00000414      -0.00000670
Cs       8.79994499       4.17503041       8.71844617      -0.00000221       0.00000397       0.00002558
Cs       4.81343868       8.74436275       0.26128272      -0.00000256       0.00001337       0.00000842
Cs       8.93385293      11.31165574       4.50512365       0.00002885      -0.00000708      -0.00000696
Cs      12.89854793       1.60801683       4.45258921      -0.00000200       0.00001008      -0.00000595
Cs      16.74401757       4.17309205       8.71732188      -0.00001403      -0.00000164       0.00000275
Cs      12.75754714       8.74243529       0.26016722      -0.00000647       0.00000089      -0.00001434
Cs      16.87798417      11.30967397       4.50392209       0.00000703       0.00001287       0.00000878
Pb       7.57520741      13.55273370       8.75874307      -0.00000810      -0.00000259       0.00002888
Pb      11.54733436      13.56017845       8.75830522      -0.00001204      -0.00002801       0.00002873
Pb       6.19046396       6.46502141       4.48688433       0.00002735      -0.00003422      -0.00001407
Pb       2.21834115       6.45757172       4.48729553      -0.00003440       0.00000594       0.00003405
Pb      15.51930709      13.55077695       8.75756997      -0.00001876      -0.00005245       0.00000142
Pb      19.49144111      13.55823119       8.75718773      -0.00002632      -0.00001407       0.00001067
Pb      14.13456770       6.46307410       4.48574721      -0.00002513       0.00000562       0.00002187
Pb      10.16244067       6.45559651       4.48613132      -0.00001901       0.00000456      -0.00002161
I        9.60360031       0.66681895       2.40400441       0.00000402       0.00000171      -0.00000666
I        4.13241926       5.15651692       2.28901368       0.00003673      -0.00000150      -0.00002696
I        9.62082019       0.65016436       6.50189311       0.00002772       0.00000823       0.00000283
I        4.13351842       5.13491239       6.67033237      -0.00000412      -0.00001900       0.00002717
I        8.08288861       3.91517038       4.47470323       0.00001177       0.00001166       0.00001551
I        5.67147600       1.86990331       8.69745174       0.00000211       0.00000507      -0.00000195
I        8.10715096       7.76567648       6.68267585       0.00000552       0.00001411      -0.00000675
I        5.65850064      12.25199382       6.56301396      -0.00001998      -0.00000813      -0.00001639
I        8.10507205       7.78588030       2.30138322      -0.00001331       0.00001027      -0.00001598
I        5.64228119      12.27022978       2.46506421      -0.00000725       0.00001062      -0.00002984
I        9.65277589      11.01153899       8.74415078       0.00000207      -0.00001861      -0.00001267
I        4.11289533       9.00621169       4.50143637      -0.00001639       0.00001786       0.00001253
I       17.54766850       0.66487524       2.40286236      -0.00000383      -0.00001363      -0.00000618
I       12.07658644       5.15460762       2.28782676      -0.00000884      -0.00000328      -0.00001398
I       17.56493608       0.64822233       6.50077168       0.00004044       0.00001259      -0.00002471
I       12.07759969       5.13290953       6.66914984       0.00001334      -0.00001240       0.00002423
I       16.02696248       3.91322531       4.47365838       0.00004225      -0.00001341      -0.00001702
I       13.61555502       1.86791774       8.69626923       0.00000749       0.00002513       0.00000492
I       16.05126391       7.76376512       6.68151272       0.00000808       0.00000954       0.00001379
I       13.60261020      12.25002179       6.56181240       0.00002149       0.00002798       0.00001370
I       16.04917041       7.78393470       2.30024008      -0.00000961       0.00000371      -0.00003943
I       13.58636263      12.26822962       2.46385019      -0.00000121       0.00000497      -0.00000183
I       17.59690713      11.00958146       8.74294449      -0.00001788       0.00000538       0.00001926
I       12.05695985       9.00425683       4.50038112      -0.00000986      -0.00000027      -0.00001512
