320
Lattice="35.81623740541413 -0.1329439104750467 -0.13785697378851416 0.08207128056522095 20.946974158443254 0.0191518666311567 0.05660661425602334 -0.01212509216802617 19.253753256199264" Properties=species:S:1:pos:R:3:forces:R:3 energy=-995.5496691913083 stress="0.0014328591611815703 7.710169350379161e-06 -3.908452324167891e-05 7.710169350379161e-06 0.001510690289387877 1.964323646933843e-05 -3.908452324167891e-05 1.964323646933843e-05 0.0014155209198023664" free_energy=-995.5496691913083 pbc="T T T"
Cs      35.48002964       6.61563939       3.67110791      -0.00001714       0.00000321      -0.00000673
Cs       5.85495996      15.46865482       1.38551243      -0.00000520      -0.00001176      -0.00001824
Cs      32.71059061      11.86273017       3.68608340       0.00000167       0.00001247       0.00000458
Cs       8.62435744      10.22150294       1.37050173       0.00000391       0.00000434       0.00000205
Cs      35.49415520       6.61259366       8.48454523      -0.00000056       0.00000501      -0.00000067
Cs       5.86911485      15.46559628       6.19891860      -0.00000082      -0.00000122       0.00000021
Cs      32.72475210      11.85974159       8.49949878      -0.00000309      -0.00000734       0.00001234
Cs       8.63852665      10.21849262       6.18394786       0.00000180       0.00000097       0.00000160
Pb      30.69378625       7.45730177       1.28357577       0.00000565      -0.00001152      -0.00000002
Pb      10.64119277      14.62695705       3.77299721       0.00001772       0.00001599       0.00000670
Pb       1.67259973      12.80189204       1.39930537      -0.00000377       0.00000844      -0.00000369
Pb       3.84609554       9.41533185       3.79514369       0.00000224      -0.00000667       0.00000112
Pb      30.70792662       7.45423084       6.09703052       0.00000881       0.00000402      -0.00000416
Pb      10.65535333      14.62397518       8.58644984       0.00000892       0.00000091      -0.00001489
Pb       1.68677545      12.79889508       6.21274016      -0.00001212      -0.00000321       0.00000418
Pb       3.86024551       9.41230507       8.60858883       0.00000443       0.00000106       0.00000206
I       29.58489996       9.31956101       3.69531244      -0.00000989       0.00000033      -0.00000410
I       29.65821980      12.69821496       1.29237597      -0.00000297       0.00000320       0.00000067
I        2.81020360      14.65552379       3.80360249      -0.00000181       0.00000692       0.00000403
I        2.70850608       7.56171865       1.39081632       0.00000314       0.00000002       0.00000674
I        9.67969667       6.19161686       1.36087993       0.00000354       0.00000572      -0.00001461
I       31.65523933      15.89265960       3.69574953      -0.00000425       0.00000334      -0.00001194
I        4.76832889      11.44629403       1.38706467      -0.00000515      -0.00000691      -0.00000626
I        0.75037737      10.77094805       3.80741757       0.00000280      -0.00000043      -0.00001282
I       33.44701849       8.89498253       1.27382595      -0.00000899       0.00000738       0.00000463
I        7.88797086      13.18926440       3.78273038      -0.00000863       0.00001315       0.00001737
I       34.74666746      14.12731786       1.27409513       0.00001341       0.00000530      -0.00001286
I        6.58825856       7.95695996       3.78250804       0.00000356       0.00000355      -0.00000540
I       29.59906720       9.31654062       8.50873267      -0.00001588      -0.00000012       0.00000485
I       29.67234177      12.69517615       6.10583880       0.00001576       0.00000821      -0.00000262
I        2.82437144      14.65249372       8.61706925      -0.00001279      -0.00000264      -0.00000235
I        2.72267003       7.55868109       6.20427350      -0.00000143      -0.00000579       0.00000330
I        9.69385350       6.18858862       6.17428811       0.00000989      -0.00000167      -0.00000193
I       31.66939105      15.88964386       8.50917068      -0.00001548       0.00000524      -0.00000169
I        4.78248358      11.44325240       6.20049112       0.00000399       0.00000888       0.00000666
I        0.76453046      10.76793347       8.62082119       0.00000459      -0.00000974       0.00000105
I       33.46114953       8.89192648       6.08728457      -0.00000079       0.00001057      -0.00000251
I        7.90213385      13.18627529       8.59618657      -0.00001022      -0.00001491       0.00000420
I       34.76084149      14.12431783       6.08751561       0.00000453      -0.00001474      -0.00000531
I        6.60241626       7.95393803       8.59593799      -0.00000118      -0.00000645       0.00001114
Cs      35.50829119       6.60957313      13.29796801       0.00000696      -0.00000369       0.00000186
Cs       5.88326988      15.46255952      11.01237048       0.00000158       0.00000540      -0.00000014
Cs      32.73888546      11.85670043      13.31295376      -0.00000083       0.00000062      -0.00000300
Cs       8.65266893      10.21545091      10.99738044       0.00000003       0.00001022       0.00001376
Cs      35.52244770       6.60653031      18.11141658       0.00000580       0.00001028      -0.00000822
Cs       5.89740721      15.45954425      15.82580024      -0.00000289      -0.00001172       0.00001076
Cs      32.75305062      11.85366710      18.12637814      -0.00000023      -0.00000325      -0.00000286
Cs       8.66682858      10.21245594      15.81082716      -0.00000078      -0.00000678       0.00000372
Pb      30.72207681       7.45122492      10.91045935      -0.00000278      -0.00000566       0.00000515
Pb      10.66951066      14.62092182      13.39989429      -0.00000012       0.00000099      -0.00001787
Pb       1.70090643      12.79584953      11.02618661      -0.00000507       0.00000556      -0.00000715
Pb       3.87437912       9.40925325      13.42203752       0.00000997       0.00000918       0.00000226
Pb      30.73622637       7.44817015      15.72388378      -0.00000336       0.00000721       0.00000973
Pb      10.68364484      14.61791559      18.21332979       0.00000753      -0.00000916       0.00000218
Pb       1.71507123      12.79286149      15.83961538      -0.00000494      -0.00001785       0.00000211
Pb       3.88854602       9.40625307      18.23545092       0.00000120      -0.00000837       0.00001307
I       29.61318959       9.31350794      13.32218071       0.00000107      -0.00000219      -0.00000289
I       29.68652028      12.69218386      10.91925612      -0.00001293      -0.00000632       0.00000250
I        2.83849659      14.64949075      13.43048105       0.00000218      -0.00000713       0.00000016
I        2.73680197       7.55564981      11.01770029       0.00001078      -0.00000075       0.00000824
I        9.70802538       6.18555372      10.98779074      -0.00000572       0.00000415      -0.00000788
I       31.68351714      15.88660973      13.32259681       0.00001206       0.00000408       0.00000495
I        4.79662226      11.44021574      11.01395693       0.00000396       0.00000811      -0.00000382
I        0.77868168      10.76490449      13.43429497      -0.00000578       0.00000422      -0.00001325
I       33.47529755       8.88892405      10.90070859       0.00000235       0.00000485       0.00000088
I        7.91628437      13.18323229      13.40962715      -0.00001041      -0.00000572       0.00000506
I       34.77497970      14.12128754      10.90095678       0.00001199      -0.00001407       0.00000047
I        6.61655848       7.95091455      13.40940406       0.00000674      -0.00000945      -0.00000439
I       29.62735335       9.31047059      18.13559299      -0.00000008       0.00000525      -0.00000175
I       29.70064364      12.68914991      15.73271778       0.00000686      -0.00000932      -0.00001089
I        2.85266191      14.64643960      18.24396929      -0.00000883       0.00000560      -0.00002201
I        2.75096006       7.55260136      15.83116704       0.00000133       0.00000377      -0.00001731
I        9.72216207       6.18252092      15.80112848      -0.00000114      -0.00000577       0.00002160
I       31.69769820      15.88357898      18.13604520      -0.00000037       0.00000154       0.00001019
I        4.81077554      11.43720018      15.82736164       0.00000329       0.00000915      -0.00000173
I        0.79283094      10.76187378      18.24767778       0.00000096      -0.00000897       0.00000236
I       33.48944692       8.88587537      15.71413693      -0.00000749       0.00000218       0.00000602
I        7.93042240      13.18021481      18.22308377       0.00000110       0.00000259      -0.00000654
I       34.78913297      14.11826712      15.71437881      -0.00000048      -0.00000093       0.00000404
I        6.63070863       7.94787524      18.22279565       0.00001151      -0.00000684       0.00000888
Cs      35.52104797      17.08914449       3.68067420      -0.00000179      -0.00000508       0.00000394
Cs       5.81389131       4.99515747       1.37588883       0.00000805       0.00000067       0.00001123
Cs      32.66952841       1.38927987       3.67650438       0.00000854      -0.00000340      -0.00000347
Cs       8.58333160      -0.25195927       1.36092343       0.00000218       0.00000527       0.00001034
Cs      35.53519955      17.08612159       8.49410964      -0.00000288      -0.00000191       0.00000554
Cs       5.82806659       4.99212834       6.18933043      -0.00000059      -0.00001166       0.00001805
Cs      32.68368203       1.38621976       8.48991933       0.00000552       0.00001040       0.00000867
Cs       8.67955351      20.69198429       6.19352477       0.00000274       0.00000865       0.00000521
Pb      30.73481477      17.93076836       1.29318279      -0.00001264       0.00001181      -0.00000403
Pb      10.60015041       4.15350198       3.76342419      -0.00000509       0.00000358       0.00001351
Pb       1.63155667       2.32839994       1.38972968       0.00000270       0.00000205      -0.00001405
Pb       3.88714890      19.88882435       3.80473362      -0.00001185       0.00000461       0.00000011
Pb      30.74893801      17.92774655       6.10660569      -0.00000671      -0.00001453      -0.00000380
Pb      10.61429450       4.15051145       8.57688480       0.00000629      -0.00001400      -0.00001571
Pb       1.64574572       2.32538634       6.20317637      -0.00001688      -0.00001104      -0.00001173
Pb       3.90130922      19.88576939       8.61817084      -0.00000754       0.00000803      -0.00000468
I       29.62590000      19.79305631       3.70488225       0.00000630       0.00000067      -0.00000946
I       29.61713090       2.22474898       1.28282899       0.00000817       0.00000894      -0.00000593
I        2.76916166       4.18202550       3.79403480       0.00000115       0.00000687      -0.00000117
I        2.74954570      18.03521339       1.40041653       0.00000998      -0.00000152      -0.00000154
I        9.72076451      16.66510068       1.37045681      -0.00001315       0.00000578       0.00000367
I       31.61421199       5.41918106       3.68613827      -0.00000466      -0.00000126       0.00000103
I        4.72728644       0.97281007       1.37748279       0.00000844      -0.00001040      -0.00000444
I        0.70935234       0.29745387       3.79783255      -0.00000441       0.00000033       0.00000017
I       33.48803126      19.36848891       1.28343477      -0.00001651      -0.00000916      -0.00001289
I        7.84692707       2.71581613       3.77315959      -0.00001015      -0.00000919       0.00000265
I       34.70563216       3.65383198       1.26450942       0.00000286      -0.00000442       0.00000029
I        6.62931519      18.43045897       3.79208652       0.00000491      -0.00000443       0.00000412
I       29.64003265      19.79003560       8.51830379       0.00000073      -0.00000880       0.00000382
I       29.63131765       2.22174090       6.09622236      -0.00001238      -0.00001186       0.00000694
I        2.78332241       4.17900974       8.60748549       0.00000271      -0.00000250       0.00000066
I        2.76372216      18.03215780       6.21384481       0.00000192      -0.00000009       0.00000101
I        9.73490410      16.66204948       6.18384469       0.00000246       0.00000837       0.00001617
I       31.62836619       5.41612730       8.49960625       0.00000415       0.00001603      -0.00000111
I        4.74146457       0.96976774       6.19093628      -0.00000349       0.00000394      -0.00000670
I        0.72350313       0.29440942       8.61124916       0.00001106       0.00000570      -0.00000554
I       33.50216264      19.36543844       6.09683538       0.00000276       0.00000325       0.00000618
I        7.86108153       2.71279367       8.58661883      -0.00000009       0.00000069       0.00000122
I       34.71980719       3.65079437       6.07793829      -0.00000281       0.00000004       0.00000381
I        6.64347347      18.42740199       8.60552904       0.00000644       0.00000108      -0.00000086
Cs      35.54933060      17.08312195      13.30753991       0.00000046      -0.00001691       0.00000614
Cs       5.84223996       4.98910190      11.00279826      -0.00001276      -0.00000146      -0.00000716
Cs      32.69782669       1.38318263      13.30336327       0.00000522       0.00000328       0.00000924
Cs       8.61164502      -0.25802357      10.98781216       0.00000675      -0.00000276      -0.00000023
Cs      35.56349135      17.08005811      18.12100028      -0.00000128      -0.00000728      -0.00000220
Cs       5.85637160       4.98603755      15.81621495      -0.00001018       0.00000947       0.00000008
Cs      32.71197448       1.38017999      18.11682420       0.00000487      -0.00000457      -0.00000692
Cs       8.70785952      20.68591945      15.82041271       0.00000361       0.00000325      -0.00000051
Pb      30.76306015      17.92470881      10.92003376       0.00000408      -0.00000344      -0.00000617
Pb      10.62848766       4.14740913      13.39031416      -0.00000669       0.00001259      -0.00001242
Pb       1.65988813       2.32233779      11.01659151      -0.00001196       0.00000518      -0.00000175
Pb       3.91546749      19.88275169      13.43160112      -0.00001804       0.00000255      -0.00000397
Pb      30.77722963      17.92166919      15.73348048       0.00000322       0.00001282      -0.00000268
Pb      10.64259367       4.14444569      18.20373166       0.00000630      -0.00001191       0.00001637
Pb       1.67401737       2.31932886      15.83001953      -0.00000946      -0.00001394       0.00000430
Pb       3.92958371      19.87972616      18.24503805      -0.00001410       0.00000719       0.00000514
I       29.65416680      19.78698053      13.33175883       0.00002170      -0.00000302      -0.00000107
I       29.64544002       2.21866072      10.90969451       0.00000524       0.00000776      -0.00000647
I        2.79746534       4.17597505      13.42090348      -0.00000385       0.00000060      -0.00000048
I        2.77788874      18.02912172      11.02728525      -0.00001250       0.00000852       0.00000463
I        9.74907085      16.65903606      10.99733461      -0.00001030       0.00000108      -0.00000474
I       31.64249116       5.41308893      13.31301413       0.00001049       0.00001568      -0.00000284
I        4.75561698       0.96674038      11.00435353      -0.00000376      -0.00001022       0.00000826
I        0.73766356       0.29137548      13.42467265      -0.00001009       0.00001078       0.00000960
I       33.51628418      19.36240730      10.91027432       0.00001678       0.00000577      -0.00000168
I        7.87525387       2.70972954      13.40004184      -0.00000691       0.00000353       0.00001339
I       34.73394381       3.64773441      10.89137955       0.00000843       0.00001147      -0.00000595
I        6.65762741      18.42438154      13.41897763       0.00000724      -0.00000042      -0.00001259
I       29.66835735      19.78395540      18.14520334       0.00000425      -0.00000680       0.00000949
I       29.65960507       2.21565141      15.72310881       0.00000020       0.00000241       0.00001940
I        2.81159816       4.17292218      18.23435361       0.00000434       0.00001168      -0.00000065
I        2.79201181      18.02610322      15.84071482       0.00000029       0.00000121       0.00001143
I        9.76320414      16.65601037      15.81074222      -0.00000466      -0.00001238       0.00000910
I       31.65666298       5.41007648      18.12647258      -0.00000800       0.00000541      -0.00000254
I        4.76974170       0.96371307      15.81779839       0.00000988      -0.00000105       0.00000135
I        0.75178777       0.28836830      18.23810770       0.00000096      -0.00000678       0.00000732
I       33.53044724      19.35938202      15.72373586       0.00000424      -0.00000099      -0.00000402
I        7.88937802       2.70672742      18.21348145       0.00000871      -0.00000152       0.00000530
I       34.74807679       3.64473287      15.70480582       0.00000753      -0.00000617      -0.00000440
I        6.67174253      18.42135206      18.23240228       0.00002505       0.00000007       0.00000205
Cs      17.57187655       6.68210899       3.74001804       0.00000804       0.00000869       0.00000122
Cs      23.76307143      15.40216852       1.31660979       0.00000702      -0.00000478      -0.00001155
Cs      14.80246764      11.92924573       3.75497948      -0.00000475      -0.00001257      -0.00000125
Cs      26.53252213      10.15503894       1.30159578      -0.00001160       0.00000379       0.00000921
Cs      17.58604990       6.67910867       8.55346577      -0.00001572      -0.00000044       0.00000117
Cs      23.77720987      15.39911633       6.13000602       0.00000484      -0.00000114       0.00000605
Cs      14.81662050      11.92619129       8.56843362      -0.00000273       0.00000381      -0.00000302
Cs      26.54665248      10.15201713       6.11505944       0.00000095      -0.00000194      -0.00000723
Pb      12.78563787       7.52374663       1.35250395      -0.00000620       0.00000672      -0.00000448
Pb      28.54932102      14.56047955       3.70410128      -0.00000176       0.00002045       0.00000789
Pb      19.58073110      12.73540426       1.33035395      -0.00000350       0.00000793       0.00000744
Pb      21.75423655       9.34887869       3.72623525       0.00000608      -0.00000636      -0.00000736
Pb      12.79978776       7.52073929       6.16593378      -0.00000451      -0.00001092      -0.00000089
Pb      28.56345504      14.55748836       8.51752617       0.00001633       0.00001088       0.00001178
Pb      19.59488568      12.73240106       6.14380899      -0.00001341       0.00000377       0.00000118
Pb      21.76837721       9.34581070       8.53965541       0.00000210       0.00001543       0.00001006
I       11.67675056       9.38605033       3.76420077       0.00000667       0.00000009       0.00000162
I       11.75007765      12.76469265       1.36126781      -0.00000161       0.00000512       0.00000441
I       20.71831653      14.58902910       3.73466895      -0.00000691       0.00000185       0.00000700
I       20.61663849       7.49525449       1.32193941      -0.00000643      -0.00001433      -0.00002097
I       27.58785292       6.12516922       1.29192820      -0.00001226      -0.00001352       0.00001242
I       13.74710750      15.95914603       3.76462323       0.00000700      -0.00000383       0.00000704
I       22.67645687      11.37980063       1.31810693      -0.00000028       0.00000423       0.00001267
I       18.65850184      10.70446770       3.73847168      -0.00000048      -0.00000828      -0.00000059
I       15.53885962       8.96144582       1.34274855       0.00000653       0.00000413       0.00000963
I       25.79608871      13.12279534       3.71384536       0.00000312       0.00000160      -0.00000493
I       16.83857124      14.19378723       1.34296748      -0.00000285       0.00000057       0.00001060
I       24.49640394       7.89050321       3.71360666      -0.00000681      -0.00000073       0.00000235
I       11.69089753       9.38300285       8.57764970       0.00000237       0.00001229       0.00000303
I       11.76425106      12.76167991       6.17474405      -0.00001227      -0.00000286      -0.00000075
I       20.73243730      14.58603888       8.54813419       0.00001486      -0.00000731       0.00000157
I       20.63079684       7.49218927       6.13532809       0.00000196       0.00001640       0.00000109
I       27.60198360       6.12211984       6.10542475       0.00000063      -0.00000380      -0.00001420
I       13.76128320      15.95612792       8.57807996      -0.00001247      -0.00000174       0.00000165
I       22.69061193      11.37680245       6.13159715      -0.00000515      -0.00001846      -0.00000047
I       18.67265696      10.70144156       8.55189467       0.00000118      -0.00000435      -0.00000431
I       15.55301148       8.95842882       6.15617776       0.00000573       0.00000435       0.00000626
I       25.81023685      13.11979800       8.52728735      -0.00000901      -0.00000605       0.00000010
I       16.85270803      14.19075386       6.15644055       0.00000401       0.00000853      -0.00000208
I       24.51055264       7.88746110       8.52705005      -0.00001115      -0.00000468      -0.00000653
Cs      17.60020171       6.67603804      13.36688860      -0.00000981       0.00001449      -0.00000560
Cs      23.79135198      15.39611000      10.94346258       0.00000966      -0.00000508      -0.00001234
Cs      14.83077633      11.92319286      13.38185650      -0.00000448      -0.00000716       0.00001186
Cs      26.56083105      10.14899477      10.92846853      -0.00001304      -0.00000131       0.00000807
Cs      17.61435112       6.67303351      18.18033686      -0.00000482      -0.00000074      -0.00000898
Cs      23.80553104      15.39303918      15.75690601      -0.00000283       0.00000384      -0.00000416
Cs      14.84492061      11.92010229      18.19530721      -0.00000340       0.00001220      -0.00000850
Cs      26.57494144      10.14596792      15.74192416       0.00000406       0.00000041       0.00000077
Pb      12.81395064       7.51770546      10.97938992       0.00000480       0.00000233      -0.00001682
Pb      28.57760166      14.55444164      13.33098345       0.00000313       0.00001003      -0.00001577
Pb      19.60902793      12.72937095      10.95724708       0.00000517      -0.00000198       0.00000266
Pb      21.78252971       9.34283689      13.35309738      -0.00000134      -0.00000042       0.00000674
Pb      12.82808595       7.51468155      15.79281541       0.00001334      -0.00001481      -0.00002338
Pb      28.59176701      14.55143680      18.14443885       0.00000208      -0.00000887      -0.00000741
Pb      19.62317354      12.72638216      15.77069232       0.00001011      -0.00002134       0.00000127
Pb      21.79666046       9.33974205      18.16652983       0.00000846       0.00001567       0.00000938
I       11.70507026       9.38000998      13.39108751      -0.00000355      -0.00000723       0.00000290
I       11.77838236      12.75864352      10.98815489      -0.00000136       0.00000811       0.00001333
I       20.74662543      14.58299680      13.36155577      -0.00001161      -0.00000015       0.00000366
I       20.64494097       7.48919889      10.94880361       0.00000190      -0.00001121      -0.00000145
I       27.61614066       6.11907989      10.91881970       0.00000227      -0.00000020       0.00000410
I       13.77541984      15.95308550      13.39150426       0.00000959       0.00000922       0.00000187
I       22.70475557      11.37376352      10.94497502       0.00000016       0.00000268       0.00001356
I       18.68679509      10.69843400      13.36537212       0.00000862      -0.00000274      -0.00002867
I       15.56717602       8.95540297      10.96962853       0.00000070      -0.00000373       0.00001179
I       25.82437797      13.11674147      13.34070716      -0.00000160       0.00000253       0.00000484
I       16.86687243      14.18775425      10.96987516      -0.00001139      -0.00000873      -0.00000118
I       24.52468894       7.88446019      13.34046572       0.00001113      -0.00001046      -0.00000004
I       11.71919474       9.37693864      18.20453093       0.00000340       0.00000590      -0.00000292
I       11.79255512      12.75562727      15.80163041      -0.00000853      -0.00000629      -0.00000551
I       20.76077877      14.57996480      18.17503637      -0.00000771       0.00001404      -0.00000596
I       20.65909990       7.48613675      15.76217963      -0.00000353      -0.00000113       0.00001399
I       27.63028821       6.11604444      15.73227231       0.00000230      -0.00000311      -0.00000478
I       13.78958327      15.95005535      18.20498234      -0.00000899       0.00000670      -0.00000824
I       22.71888551      11.37074140      15.75848561       0.00001296      -0.00001160      -0.00001371
I       18.70094799      10.69537559      18.17873826       0.00000184      -0.00000428       0.00001244
I       15.58131599       8.95235589      15.78303696       0.00000533       0.00000524       0.00001665
I       25.83854924      13.11373456      18.15418648      -0.00000151      -0.00000531      -0.00000070
I       16.88099800      14.18472528      15.78334705      -0.00000201       0.00000898      -0.00001048
I       24.53884119       7.88140478      18.15390820       0.00000616      -0.00000557      -0.00000275
Cs      17.61290968      17.15558061       3.74959964      -0.00000182       0.00001192      -0.00000390
Cs      23.72205138       4.92870081       1.30699322      -0.00000646      -0.00000110       0.00000607
Cs      14.76140914       1.45578810       3.74543226       0.00000113      -0.00000729      -0.00001186
Cs      26.49144862      -0.31841914       1.29203762       0.00000325      -0.00001224       0.00000875
Cs      17.62705193      17.15259061       8.56303638       0.00000379      -0.00000147      -0.00000632
Cs      23.73616863       4.92565163       6.12044411       0.00001346       0.00000104       0.00000525
Cs      14.77557351       1.45270260       8.55883114      -0.00000266       0.00000622       0.00001372
Cs      26.58765974      20.62554037       6.12462232       0.00001377      -0.00001115      -0.00000239
Pb      12.82668057      17.99727090       1.36207773       0.00000260       0.00000022       0.00000994
Pb      28.50826253       4.08707306       3.69452275       0.00001174      -0.00000579      -0.00000014
Pb      19.53972367       2.26191785       1.32078419      -0.00000946       0.00001350      -0.00000279
Pb      21.79524570      19.82236238       3.73583989       0.00001358      -0.00000737      -0.00001444
Pb      12.84082520      17.99422211       6.17549897      -0.00000883      -0.00001321      -0.00000723
Pb      28.52244036       4.08399381       8.50796795      -0.00001037       0.00000298       0.00000479
Pb      19.55384261       2.25894887       6.13423336       0.00000869      -0.00000596      -0.00000563
Pb      21.80941001      19.81927441       8.54924431       0.00000294       0.00000322      -0.00000420
I       11.71779550      19.85956228       3.77379563      -0.00000785      -0.00000737      -0.00001038
I       11.70902664       2.29123438       1.35168969       0.00000589       0.00000261       0.00000391
I       20.67730092       4.11555475       3.72507946      -0.00000660       0.00000580       0.00002504
I       20.65767571      17.96873599       1.33151993       0.00000295       0.00000112      -0.00000576
I       27.62888507      16.59861936       1.30157070      -0.00000436       0.00000423      -0.00001059
I       13.70608363       5.48564915       3.75506781      -0.00000067       0.00000528      -0.00000311
I       22.63544457       0.90630476       1.30856582      -0.00000792       0.00002582      -0.00000006
I       18.61745584       0.23101059       3.72890233       0.00000455      -0.00001291       0.00000432
I       15.57990092      19.43498095       1.35236542       0.00000451      -0.00001441      -0.00001014
I       25.75504097       2.64937408       3.70427374      -0.00000053      -0.00001225      -0.00000251
I       16.79756139       3.72029669       1.33341492      -0.00001288       0.00000544      -0.00000065
I       24.53741359      18.36399345       3.72320752       0.00000154      -0.00000034      -0.00001039
I       11.73192691      19.85649827       8.58720731       0.00000863      -0.00000319       0.00000952
I       11.72316537       2.28821072       6.16518200       0.00001401      -0.00000613      -0.00000941
I       20.69141811       4.11254899       8.53858712      -0.00000525      -0.00001900      -0.00000945
I       20.67181097      17.96567006       6.14490558       0.00000684       0.00000408       0.00000993
I       27.64301485      16.59557050       6.11494517       0.00000659       0.00001043       0.00000748
I       13.72023013       5.48263861       8.56849934       0.00000363       0.00000246       0.00001088
I       22.64955260       0.90331234       6.12204977       0.00000346      -0.00001222      -0.00001885
I       18.63162202       0.22793629       8.54226563      -0.00000198       0.00000890       0.00002030
I       15.59404253      19.43192217       6.16574843       0.00000932      -0.00000390      -0.00000266
I       25.76921439       2.64631094       8.51771435      -0.00002262      -0.00000243       0.00000263
I       16.81166965       3.71730509       6.14688470       0.00000652      -0.00000326      -0.00001313
I       24.55159188      18.36092008       8.53659639      -0.00003061       0.00001120       0.00000824