320
Lattice="24.772921629 0.806361034658 -0.0668401918405 -0.61464283816 24.5281142353 -0.192582655364 -0.0772040178408 -0.209844727589 24.6676812644" Properties=species:S:1:pos:R:3:Z:I:1:forces:R:3 energy=-101584.456328 stress="845.1929 -956.469253 555.531097 -956.469253 3817.479353 577.824374 555.531097 577.824374 2073.33657" pbc="T T T"
Cs       3.58224203       9.43231397       3.48639455       55      -0.35959400       0.14221600      -0.31896600 
Cs       3.52119556       8.43045649      15.45389726       55      -0.82568600       0.06062300      -0.88003000 
Cs       2.73662508      21.36461492       3.30382723       55       0.31170200      -0.00759400      -0.21780700 
Cs       1.90043199      20.50091209      15.00979290       55       0.15888400       0.27882200       0.24677800 
Cs      15.16585628      10.22864322       2.94263347       55       0.16757800       0.06070100       0.21897600 
Cs      15.10966161      10.24616376      14.70329237       55      -0.22429000      -0.12471900       0.24544600 
Cs      14.78283130      22.48683063       2.66298345       55       0.29410400      -0.42585200       0.06464000 
Cs      14.56210582      20.65743432      15.40474895       55       0.01182500       0.54633100       0.51116300 
Cs       9.43600898       3.21399611       2.60221286       55      -0.12570700       0.13017300       0.29956200 
Cs       9.35426583       3.35738399      15.82297086       55      -0.14607300      -0.03068300      -0.02957400 
Cs       8.73033078      15.96254660       2.40544827       55      -0.10062300      -0.03092200      -0.05137100 
Cs       9.10991147      15.45920986      15.54427629       55      -0.11318600      -0.04925400       0.05460300 
Cs      21.17439912       3.61402082       3.40033491       55       0.02095500       0.08710700      -0.39467300 
Cs      21.18691296       4.04219707      15.67180092       55      -0.05411400      -0.04754500      -0.19647100 
Cs      21.43146963      16.41933615       2.69940398       55      -0.08636500      -0.07143300      -0.03801700 
Cs      20.72416028      16.15194441      15.16961517       55       0.13559100      -0.26401200       0.00065400 
Cs       9.61367318       2.99056205       9.46379170       55      -0.41457300      -0.08829100      -0.36294400 
Cs       8.88128485       3.50975333      21.24783456       55      -0.06270700       0.40209100       0.12205600 
Cs       9.37931384      15.20195058       9.26316561       55      -0.29885400       0.12051900      -0.03497700 
Cs       8.01207388      15.21351284      21.59040131       55       0.20750600      -0.12025400      -0.14306800 
Cs      21.78992480       4.27699591       9.25766424       55       0.19994500      -0.03231300       0.07001700 
Cs      21.87081124       4.18928383      21.84566740       55      -0.28356200      -0.20400800       0.10212000 
Cs      21.48568756      15.75537560       9.15620020       55       0.06279600       0.04681600      -0.12876400 
Cs      21.16166747      15.41962191      21.36581528       55      -0.06998100      -0.03966000      -0.00306700 
Cs       2.32388711       8.70998647       9.09210827       55       0.21400600       0.09350000       0.37984800 
Cs       2.45335459       8.25249025      20.82022654       55       0.45713200       0.24407300       0.46935100 
Cs       2.76712509      21.44872686       9.70636486       55       0.12911800      -0.00894800      -0.11983600 
Cs       2.43293961      21.83013327      21.85758977       55       0.10424000      -0.28573200      -0.34742700 
Cs      16.28850374       9.92723458       9.81799428       55      -0.36444000      -0.24881600      -0.04181400 
Cs      15.19751406       9.80815804      20.90087194       55      -0.29358400       0.22688100      -0.03762600 
Cs      15.74591786      22.43547810       8.52051509       55      -0.08868400      -0.21093300       0.21535600 
Cs      14.83390311      21.99897187      21.42091026       55      -0.24405400       0.17362800      -0.04613900 
Cs       2.52083078       3.48018458       8.92840609       55       0.28718400      -0.30621900       0.25618700 
Cs       3.60516229       3.48756588      21.14026509       55      -0.23136800      -0.48636600       0.21980000 
Cs       2.72382567      15.07695351       9.58147330       55      -0.11266400       0.26333500       0.06496300 
Cs       2.26485125      15.91711072      21.71391535       55       0.15733900      -0.14689700      -0.02258100 
Cs      15.20378405       3.71480046       8.66829303       55       0.08443300      -0.50127000       0.51536100 
Cs      14.93047275       3.04446634      21.55559063       55      -0.01708200      -0.09078200      -0.39307500 
Cs      15.37118123      15.78789784       8.92935283       55      -0.28372100       0.11970300      -0.17756700 
Cs      14.49331309      15.43785589      21.43031863       55      -0.14956900       0.46323500      -0.69146800 
Cs       8.04355839       8.38216005       8.82178724       55       0.62729800       0.21405200       0.31385800 
Cs       8.78166880       9.22305104      20.99558875       55       0.06679700      -0.23288600       0.51355800 
Cs       9.29057176      22.24786632       8.37934499       55      -0.18190800      -0.21482900       0.12397100 
Cs       9.01804941      21.78918135      21.36027520       55       0.12218300      -0.06911500      -0.01816300 
Cs      21.03172274      10.29208463       9.01379004       55       0.11709400      -0.22780500       0.32192000 
Cs      20.68938639       9.63108918      21.44187702       55       0.02373500       0.26427700       0.21950200 
Cs      21.50931061      22.07864342       8.69668755       55      -0.20534600      -0.28738200      -0.32715400 
Cs      21.99589544      22.09850661      22.10325775       55      -0.24820000       0.06521500      -0.35077000 
Cs       9.39566498      10.63366592       3.15807927       55      -0.27331000      -0.76151200      -0.06732400 
Cs       8.68611850       9.21817987      15.93575128       55       0.12012800       0.24473100      -0.23357800 
Cs       8.22380919      21.67342905       2.09810556       55       0.05473800      -0.10306400       0.37702400 
Cs       8.47369008      21.11521224      14.80637401       55       0.46914900      -0.04654300       0.20208000 
Cs      22.33086309      10.15481572       3.29653693       55      -0.10680000       0.25656900      -0.09431400 
Cs      22.74112191       9.66571206      15.63738616       55      -0.44808300       0.31250600      -0.24632400 
Cs      21.11795663      22.10541841       3.42996562       55       0.02974100      -0.21323700      -0.31297800 
Cs      21.06090041      22.08371401      15.08891073       55       0.02099300       0.03614500      -0.07077800 
Cs       2.97298730       3.08505040       3.58158473       55       0.08324100      -0.26925700      -0.44024100 
Cs       2.82235752       2.62053203      15.20421676       55       0.06254500       0.07807200      -0.15469900 
Cs       2.34422755      15.93303109       2.89191790       55       0.08982100      -0.08026700       0.01768800 
Cs       3.13299738      14.85059210      15.77998509       55       0.00229100       0.13127600      -0.48561700 
Cs      15.11328498       4.03687189       3.16428150       55       0.48710600      -0.39547200       0.26758600 
Cs      14.84248768       3.26344451      16.15862872       55      -0.17050300      -0.64332700      -0.08095700 
Cs      14.94527019      16.59501104       3.08339506       55       0.01514900      -0.56244900      -0.53163300 
Cs      14.81731576      15.61044467      15.61796149       55      -0.08141900      -0.03072100      -0.22967300 
Pb       0.25797272       0.48419183       6.00578489       82       0.11399900      -0.52043800      -0.06377600 
Pb       0.22630333      -0.01721077      17.98359625       82       0.11809200      -0.92033500       0.57366600 
Pb       0.17306602      12.72610748       6.42713357       82      -0.64404800      -0.63251100      -0.36055800 
Pb      -0.39409838      11.89195017      18.24489806       82      -0.17816200       0.64587500       1.75035800 
Pb      12.72036023      -0.33311772       6.25742664       82       0.02943200       0.62918100       0.07494500 
Pb      11.91621891       0.11890617      18.31395216       82       0.28295800      -0.46794000       0.11050000 
Pb      11.87797846      12.06594260       6.30401352       82       0.03963400       1.02893600      -0.31388000 
Pb      11.78009229      12.11032719      18.31593471       82      -0.01158400       0.64127300      -0.38308500 
Pb       5.95722225       6.11306976       6.35285206       82       0.33582000      -0.29579300      -1.28380500 
Pb       5.69385658       6.06529122      18.27490728       82       0.36799000      -0.72959300       0.09468100 
Pb       5.92409305      18.31770331       5.89766364       82       0.12013200       0.05402300       0.28663900 
Pb       5.43303298      18.94025406      18.27957613       82       0.45070900      -0.61221100       0.20609900 
Pb      18.44835567       7.21612411       6.60608139       82       0.28687300      -0.05403100      -0.13092700 
Pb      17.68159034       6.51636353      18.33540584       82       0.25991900       0.23522900       0.04455000 
Pb      18.14012526      18.83996715       5.88817202       82       0.12892400       0.70700400       0.12446800 
Pb      18.43040726      19.18878163      18.49728036       82      -0.48663500      -0.13272400      -0.11033600 
Pb      -0.19848576       6.31888647       5.68844330       82      -0.06789900      -0.21147000       0.28685200 
Pb      -0.71075169       5.72390257      18.63428596       82       0.38728800       0.30817300      -0.40192500 
Pb       0.15533832      18.97786335       6.00071140       82      -0.94039000      -0.85877300       0.29258100 
Pb      -0.29540970      18.05695038      18.62765683       82      -0.62746200       0.12773400      -0.07262200 
Pb      12.45174972       6.49654390       6.28446300       82      -0.25609500       0.13071400      -0.48237600 
Pb      11.90280189       6.21387747      18.25618637       82       0.72971700      -0.34827700       0.72164700 
Pb      11.39670914      18.31295508       5.95099195       82       0.52385900      -0.19127400      -0.59623600 
Pb      11.65935943      18.34312305      18.43941970       82       0.49795900       0.04486200      -0.09663100 
Pb       6.54049094       0.04911346       5.77076147       82      -0.14897500      -0.31676300       0.42139300 
Pb       6.12828443      -0.14834714      18.40479682       82       0.07648700       0.63701200      -0.19011900 
Pb       5.57774513      12.17201355       6.22379600       82       0.22147900       0.99084000       0.21518700 
Pb       5.48610669      12.29395162      18.38923075       82      -0.03932200      -0.19552200       0.14906300 
Pb      18.76648234       1.01656781       6.06159525       82       0.19988200      -0.40122900      -0.25877500 
Pb      18.63797322       0.75367454      18.29230874       82      -0.50336600      -0.42138200       0.38930000 
Pb      18.20687252      13.22553624       5.84929267       82       0.06659600      -0.90212000      -0.45649900 
Pb      18.20413684      12.66964757      18.06781275       82      -0.10345400       0.43693500       0.04340100 
Pb       0.00344428       0.20332595      -0.31682756       82      -0.37758900       0.20925700       0.21406800 
Pb      -0.02381182      -0.14191452      11.81092337       82       0.18264000       0.16750200       0.34655600 
Pb      -0.38287203      12.26911851       0.11618985       82      -0.10146200       0.10169800      -0.46936700 
Pb      -0.14079837      12.01094056      12.47284039       82       0.04096300       0.71005500      -0.23876300 
Pb      12.73919440       0.55013175       0.03235767       82      -0.05476000      -0.32730800      -0.20389700 
Pb      12.13940902       0.40182236      12.52403030       82       0.65713700      -1.02703400      -0.12386400 
Pb      12.38341488      11.95301698       0.12109394       82      -0.44212600       0.70070700      -0.33472300 
Pb      11.83026188      12.67376561      11.84811639       82       0.06382800      -1.31513700       0.93069300 
Pb       5.58180218       5.91288993       0.06783534       82       0.87273900       1.28049900       0.03431400 
Pb       6.49930281       6.06482947      12.28146101       82       0.14944400      -0.45886100       0.16029300 
Pb       5.69765032      18.25643612      -0.45826097       82      -0.31193200       0.31375400       0.61540300 
Pb       6.04924791      18.63604586      12.13877980       82       0.00888700      -0.57980700      -0.39752100 
Pb      17.29723237       6.75731426       0.16742913       82       0.50086000       0.18090200      -0.38922200 
Pb      18.72622934       6.80883523      12.86352449       82      -0.24683700      -0.38710500      -0.49458700 
Pb      17.50048766      19.51212603      -1.03474758       82       0.49523000      -0.38532800       1.12235300 
Pb      18.44120380      19.08556834      12.20725307       82      -1.34216400       0.16237600      -0.51667700 
Pb      -0.30848016       6.30423520       0.09893843       82       0.38220900       0.14931600      -0.12508200 
Pb       0.05320246       5.86850437      12.35892833       82      -0.04504900       0.10340700      -0.03376600 
Pb      -0.48450354      18.74891340      -0.09956185       82      -0.23619300      -0.26602500      -0.01820100 
Pb      -0.40477294      18.17963771      12.39339923       82       0.26783300      -0.73193500      -0.33609800 
Pb      12.20942632       6.33678164       0.02800827       82      -0.96590600       0.68106300      -0.05323200 
Pb      12.34270400       6.26931126      12.28841637       82       0.31302600       0.55677000      -0.11719300 
Pb      11.57063768      18.42957281      -0.42208051       82       0.78128100       1.70260400       0.24829100 
Pb      12.30136292      18.82362569      11.79565642       82      -0.46188500      -0.53691600       0.32401700 
Pb       6.15818425       0.08960653      -0.28246992       82       0.03414800      -0.10628100       0.18830400 
Pb       6.38932390      -0.17784620      12.44501798       82      -0.39529800       1.91032000      -0.44144800 
Pb       5.21470435      11.66593822      -0.36452962       82       0.29169600      -0.24974800       0.11006900 
Pb       6.16215708      12.33437693      12.17035626       82      -0.54257900       0.14056500       0.51425900 
Pb      18.78020720       0.71663350      -0.28479612       82       0.25750400       0.46021800       0.49714300 
Pb      18.09550157       0.79809398      12.42604635       82       0.64872800      -0.10651900      -0.14857700 
Pb      17.73137658      13.39922471       0.03188624       82       0.93135600      -0.30113500       0.18815100 
Pb      18.17688751      12.93451757      12.06239474       82       0.30013500       0.31827700      -0.30770300 
I      12.80388845       3.69193441       5.83942932       53      -0.38658600      -0.58471800       0.13895100 
I      11.51123977       3.01312801      18.91062432       53       0.17025100       0.50679300      -0.16010300 
I      10.39448670      15.54127344       5.51226020       53       0.48363600       0.42294100       0.14815700 
I      11.15177784      15.17261610      19.08126250       53       0.08953200       0.31936000      -0.22323500 
I      24.19716492       3.95971143       5.39410716       53      -0.00184500       0.78898300       0.13453300 
I      24.39639219       3.66736461      17.52144377       53      -0.18998400       0.29174300       0.00868000 
I      24.28061763      16.24645600       6.43271528       53      -0.05655700       0.36443700       0.05682500 
I      24.33184626      15.84595017      19.32458299       53      -0.32707700       0.45810100      -0.13106000 
I       5.58043338       9.16091068       6.61562529       53      -0.41065500      -0.12057400      -0.13810200 
I       5.59899553       8.87184841      17.89522203       53       0.24888000       1.15243700       0.60857100 
I       5.65354065      21.39321466       6.25020701       53      -0.26963500       0.16516100      -0.06365200 
I       5.52896081      21.55020058      17.17960111       53      -0.20940000      -0.27182100      -0.17639500 
I      17.55396020       9.94188295       5.80337664       53       0.10670800      -0.15155800       0.36802000 
I      17.64730530       9.69847340      17.82537124       53       0.04530800      -0.32847700      -0.01986200 
I      18.18150603      22.12243363       5.79812987       53      -0.05173900       0.28510300      -0.10057800 
I      16.76758336      21.81198448      18.42493300       53       0.57208100      -0.21749300      -0.11510800 
I       0.60920052       9.15700851       6.04099054       53      -0.09922700       0.24749700      -0.23375700 
I       0.48235643       9.14893506      18.27146977       53      -0.01374200      -0.92892200      -0.58692500 
I       0.41052793      21.79738451       5.75953222       53      -0.22597100       0.38001800       0.39601300 
I       0.45330848      21.33221271      18.39667691       53      -0.21111900       0.24823600      -0.27000700 
I      12.57300726       9.48005476       7.01700816       53       0.18925100      -0.28939200       0.23108200 
I      11.90246501       9.12777470      18.16189840       53       0.23904800       0.18617800      -0.01169000 
I      12.66781894      21.45620399       6.67232914       53      -0.07426800      -0.08404500      -0.09374200 
I      11.31260494      21.55181237      18.32363352       53       0.12496000      -0.32444800      -0.08828100 
I       6.82867907       2.88450950       5.50094769       53       0.06226300       0.90907900       0.14876000 
I       6.15088039       3.09282376      18.22323045       53       0.43130900      -0.71658100       0.08228000 
I       6.42300682      15.24439232       6.41733604       53      -0.26255300      -0.18093200      -0.07515000 
I       5.91696247      15.17372450      18.49436269       53       0.07445600       0.13776900       0.31594000 
I      19.54219816       3.92013316       6.62086722       53      -0.42582200       0.01069000      -0.20779400 
I      18.37449816       3.67405570      19.20249874       53       0.34075300      -0.11438500      -0.06798800 
I      18.84462633      15.95562319       5.66058023       53       0.28268300       0.38071300      -0.01397100 
I      18.19717955      15.92585115      18.30496586       53       0.35129300      -0.39386100      -0.30163800 
I       3.01811050       5.56968137       5.99132820       53      -0.27407800       0.27951300       0.16247900 
I       2.94244857       5.01895621      18.00519708       53      -0.60841400       0.51678000       0.05414700 
I       2.93004509      18.05325247       6.34434687       53      -0.12798500      -0.10896800       0.02646800 
I       2.54951475      17.86522250      18.11440253       53       0.15465800      -0.15195300      -0.05728800 
I      15.76469685       6.22280763       6.49155366       53      -0.72015700       0.15152900      -0.15693900 
I      15.05736621       5.56985368      18.91724184       53      -0.44984000       0.21674400       0.14116900 
I      15.04948250      18.42313051       5.76929876       53       0.05513600       0.34955200       0.64100200 
I      15.00017446      17.75411969      18.39971074       53      -0.60421500       0.41715300      -0.16617000 
I       8.86139552      12.55458935       6.45831314       53      -0.07889700      -0.79648000       0.12165100 
I       8.46328172      11.84278831      18.79858058       53       0.51973600       0.22223100      -0.13136500 
I       9.18136631      24.71436301       5.17939126       53      -0.22671600      -0.20293900       0.09285800 
I       8.41065622      24.06251940      16.98793422       53      -0.14093200       0.39540200       0.27505900 
I      21.64263476      12.68050606       6.71373024       53      -0.05519800       0.30054000      -0.58298800 
I      21.23334398      13.01698966      17.72109311       53      -0.02319200      -0.15054400      -0.02715900 
I      21.53079915      25.07700109       5.27401707       53      -0.52036600      -0.02595000       0.45002600 
I      20.90310230      24.64059650      18.13848347       53       0.22103000       0.01409000      -0.29611100 
I       8.93371869       6.75648852       5.10373029       53       0.40725500      -0.01172400       0.43086200 
I       9.11119993       6.48726331      18.47047052       53      -0.99550000      -0.20967200      -0.02191500 
I       8.78245484      19.44098968       5.73400696       53      -0.09720500       0.27950500       0.03093000 
I       8.68862476      18.28095461      18.50501500       53      -0.49652700       0.11200500       0.13303800 
I      21.34420768       7.34668257       5.70246341       53       0.70017900       0.16416300      -0.12372400 
I      21.10635081       7.13633930      18.64601956       53       0.24807200      -0.16649000      -0.10332300 
I      21.42483178      19.12565774       5.88045578       53       0.28933900       0.15263000       0.23377500 
I      21.21434718      19.43441476      19.53270267       53       0.06863700      -0.00858700      -0.11824400 
I       3.42523578       0.77563257       6.64703041       53       0.12993900      -0.16255900      -0.17138700 
I       3.01724121       0.26193684      19.36237910       53      -0.00164100       0.00512300      -0.21869100 
I       2.86918351      13.29738991       5.22425890       53       0.61317400      -0.31805500       0.25839600 
I       2.54985453      13.08175921      18.66633677       53      -0.15501300      -0.36080600       0.26035700 
I      15.69123914       0.72425293       6.43198828       53      -0.14442700       0.06385800      -0.18799000 
I      15.17919876       0.18279094      18.61328919       53      -0.09474200       0.39778100      -0.00857600 
I      15.17209045      13.40711036       5.71976130       53      -0.22545800       0.05463200      -0.18163600 
I      14.82866989      12.58627714      17.49881489       53      -0.06143900      -0.03313400       0.51815100 
I       0.57807710       9.37790340       0.51555533       53      -0.24463300      -0.06351300       0.02752300 
I       0.35797793       9.26612587      12.77849581       53      -0.08102800      -1.46088300      -0.04750700 
I      -0.13847024      21.61195470       0.80456339       53      -0.04928000      -0.08273100      -0.31010600 
I      -0.43144629      21.06215402      11.83898972       53       0.15641400       0.69287300       0.10283000 
I      13.42720588       9.35702377      -0.25855064       53       0.25834300      -0.43340300       0.05364000 
I      12.93952233       9.37315324      11.91907172       53      -0.03668300      -0.40711100      -0.01759300 
I      11.74057597      21.88548575      -0.21099476       53       0.19768300       0.71302400       0.05764600 
I      11.59327818      21.52431909      11.28203427       53       0.23788500       0.47228400       0.03581000 
I       6.08796754       3.21084417       0.65094721       53       0.15687700      -0.79017300      -0.09624900 
I       7.49908192       2.95512698      12.80462803       53      -0.49280900       0.46306500      -0.40872900 
I       5.76866083      15.33135417       0.00501638       53       0.28119900       0.19584500      -0.27934300 
I       6.10952673      15.43726055      12.41424983       53       0.04399000      -0.04512200      -0.10924400 
I      18.49539559       4.00946477      -0.84012817       53       0.33823000       0.36001800       0.05236200 
I      19.68111854       3.41348185      11.98696998       53      -0.26906300       0.13043500       0.52371500 
I      17.90394794      16.48888492       0.39837904       53       0.24785000      -0.28383700      -0.07077100 
I      18.23987491      15.89025442      10.97009046       53       0.21753300       0.15498600       0.70877600 
I      11.35361688       3.02780348      12.39637305       53       0.18638400       1.38054400       0.44285100 
I      11.18604739       3.35414590      24.12783396       53       0.14831400      -0.57522400       0.08030600 
I      11.44297657      15.33831631      12.42458074       53      -0.12110700       1.02759900       0.17829600 
I      11.49145886      15.53866360      24.32169056       53      -0.15695000      -1.38195200      -0.02554600 
I      23.95016589       3.77454589      12.68089618       53       0.12571900      -0.21947200       0.00460700 
I      24.05995797       3.71274144      24.94042239       53      -0.09909000       0.12850300      -0.16083400 
I      24.04512858      15.81509490      11.96637011       53       0.18546400       0.71251000       0.03073200 
I      24.05957947      16.00234075      23.61925916       53       0.00948100       0.10402800       0.32373800 
I       6.23472709       9.06065087      11.89646607       53      -0.37114600      -0.03151900       0.12982800 
I       4.17694036       8.61632095      24.03468441       53       0.29987700       0.70910000       0.44408000 
I       5.67466617      21.66658889      12.73631835       53      -0.44795300      -1.70512100       0.04515400 
I       4.46304721      21.45136573      24.95682097       53       0.62886400       0.14134800      -0.45984000 
I      18.39333524       9.66667042      13.47485857       53       0.13783800       0.03151800      -0.28574300 
I      17.70450285       9.97382243      25.08568924       53      -0.14961800      -0.28323700      -0.50043400 
I      17.45351840      22.05945301      12.66422365       53       0.10062800      -0.23244300      -0.17926400 
I      17.06217410      22.27159683      24.48365898       53      -0.07586700      -0.28937400      -0.01231700 
I       9.35169471       6.82640321      13.23356903       53       0.07500400      -0.12308300      -0.18903600 
I       9.09620791       7.00251565      24.18728995       53      -0.13099600      -0.12064100       0.19009400 
I       8.95461962      18.67136863      11.85725178       53      -0.10440000      -0.05304900       0.07714900 
I       8.63295283      18.98681577      24.15900869       53      -0.43431600      -0.14807000      -0.18715500 
I      21.82846922       7.49469767      12.57045454       53      -0.22930900      -0.02445200       0.08131900 
I      21.70082165       7.20950369      25.38809786       53      -0.68924900       0.03395100       0.03127500 
I      21.19664465      18.89985489      12.04640080       53       0.84063400       0.02405500      -0.09759300 
I      20.99327417      19.39810265      24.41257103       53       0.22065800      -0.00827700      -0.02975100 
I       3.38546583       0.25049462      12.28918402       53      -0.39389100      -0.03372200      -0.44335900 
I       2.82401868       0.06066797      23.99971400       53       0.66225200       0.59574900       0.12924900 
I       3.03691757      11.67577834      12.58285222       53       0.05481000       0.33791200       0.28015100 
I       2.79106275      12.85895051      25.20242119       53      -0.56001500      -0.10890100      -0.07695500 
I      15.48315431       1.79854878      12.49027574       53      -0.58791800       0.16277800      -0.15275800 
I      15.76264073       1.34483953      24.50865568       53      -1.01596200      -0.54909100       0.18426100 
I      15.16061338      12.96948411      12.12801907       53      -0.14026700       0.02762000      -0.18277900 
I      14.86024442      13.44530531      24.02263135       53      -0.09579500      -0.36152600       0.55748300 
I       2.84774435       5.68438335      -0.43979950       53      -0.64431500      -0.69149500      -0.18592900 
I       3.17669369       5.84010695      12.46546296       53      -0.18769200      -0.09916600      -0.15807900 
I       2.67268029      18.23351683       0.21244682       53      -0.09439200       0.07650200      -0.19177200 
I       2.80661140      18.00099095      12.60663403       53      -0.29280200      -0.06801400      -0.22791300 
I      14.85563849       5.10455894      -0.08222911       53       0.30960900       0.09183000      -0.11077300 
I      15.60973122       5.92875803      11.55440560       53      -0.06311300       0.26456000       0.16710100 
I      14.88882190      18.77238544       0.20049831       53      -0.28947800       0.29592100      -0.23840500 
I      14.96581682      18.31792790      13.02874359       53       0.45910500      -0.29012100      -0.51667200 
I       9.52401244      12.15277377      -0.57467638       53      -0.29904500      -0.12214700       0.12742900 
I       8.94324710      11.58136355      11.66776975       53       0.61372100       0.07829900      -0.26227900 
I       8.54621750      24.72624763       0.35915604       53       0.07008800      -0.02395900      -0.34147500 
I       8.67494636      24.34713256      12.46455398       53       0.67060800      -0.56549900       0.14450000 
I      21.32012384      12.97230594      -0.02903440       53       0.06890500      -0.01070800      -0.06676300 
I      21.48620933      12.93350210      12.19046727       53      -0.34744400      -0.19586400      -0.00220700 
I      21.23662079      24.65343754      -0.16153861       53      -0.26034800       0.14717800       0.29657800 
I      21.39169871      24.47647032      11.20592994       53      -0.36046100       0.18204200       0.40183700 
I      12.53480457      12.95803221       9.05575647       53       0.19193700       0.27686400      -0.72307800 
I      12.03016969      12.14654831      21.17950262       53       0.27085400      -0.20176800       0.46172300 
I      11.85071171      25.08455469       9.23628316       53       0.06125700      -0.03246400      -0.66815500 