320
Lattice="26.0882537705 0.519719093948 -0.13636851862 -1.00082184799 25.9731931479 -0.145510699919 -0.173312286983 -0.172454325328 25.8824367341" Properties=species:S:1:pos:R:3:Z:I:1:forces:R:3 energy=-101582.391135 stress="-2481.356194 1708.628647 1576.008004 1708.628647 -1924.617368 -20.750378 1576.008004 -20.750378 -1586.075828" pbc="T T T"
Cs       3.54511873       9.51051099       3.23274507       55      -0.37659400       0.07325400       0.14691800 
Cs       2.84869482      10.19898439      16.21355167       55      -0.21648900      -0.06328400       0.28035500 
Cs       2.53970059      23.09368833       2.86785428       55      -0.10698400       0.08868100       0.09067400 
Cs       2.47738091      23.38812242      15.66012607       55      -0.12300500      -0.07457900       0.21671900 
Cs      15.94146188      10.50941326       2.84639516       55       0.01406100      -0.10419400      -0.09519400 
Cs      16.61860131       9.37950801      16.98712558       55      -0.29103900       0.27541100      -0.24862000 
Cs      15.13703361      22.50295199       3.85552542       55      -0.15527400      -0.04009400      -0.26944500 
Cs      14.70601525      23.00505313      14.81866329       55       0.12623200      -0.16919800       0.10374500 
Cs       9.44525146       2.88861373       2.91418724       55       0.08607700       0.09838200       0.08776900 
Cs       9.76350584       3.48212257      17.09657165       55      -0.31713900      -0.06397900      -0.57856900 
Cs       8.96936705      15.87152339       2.58135861       55      -0.09353800       0.26519900       0.10051800 
Cs       8.82763602      16.75903179      16.93834275       55       0.04574000      -0.01929000      -0.39495700 
Cs      22.75690158       3.86809139       3.49744187       55       0.02395500      -0.07538300      -0.06019000 
Cs      23.12722041       3.82561472      17.41873978       55      -0.28716500      -0.37183000      -0.73287200 
Cs      22.44874010      17.10752452       2.93612726       55       0.11026600      -0.01073000       0.08418800 
Cs      22.09337763      15.20641760      15.13570382       55      -0.07180600      -0.09250300       0.64406900 
Cs       9.35372984       3.33435455       9.36294864       55       0.24842500       0.09411600       0.03604700 
Cs       9.07797230       3.49358760      22.18062961       55       0.07273800      -0.02843000       0.12229600 
Cs       8.29950568      15.50797146       9.04937626       55       0.44475600       0.60413800       0.13604200 
Cs       9.63340820      17.23486983      22.30883086       55      -0.35166700      -0.27176100       0.28191000 
Cs      23.14640105       3.67314859      10.02771770       55      -0.16460300      -0.05280300      -0.22805500 
Cs      23.00560863       2.95822053      22.46177084       55      -0.62015600      -0.14512500      -0.47592600 
Cs      22.11344748      16.74805270       8.39896168       55       0.02281900      -0.05192700       0.15661400 
Cs      22.33640359      16.66245918      22.30996909       55       0.08501200       0.10346100      -0.08999400 
Cs       2.89420308       9.71786147       9.79552767       55      -0.10428200      -0.03193200      -0.35072300 
Cs       2.91211543       9.46043970      22.84934972       55      -0.10686100      -0.01406800      -0.17745700 
Cs       1.74676355      23.56540190       9.66587363       55      -0.09059800       0.02273300      -0.16379700 
Cs       2.70888941      22.32571788      21.79751595       55      -0.28948100       0.01511200       0.22353300 
Cs      15.40013345      10.64780419       9.15589961       55      -0.04267400      -0.12740600       0.25022400 
Cs      16.04635198       9.80188929      22.58979465       55      -0.08109300       0.32930800       0.00063900 
Cs      14.69921003      22.10238068       8.91087746       55       0.26641700       0.07190700       0.19727600 
Cs      16.05694796      22.35193360      21.80270607       55       0.14702800      -0.01436100       0.10921600 
Cs       3.29881316       3.83048928       9.31726698       55       0.04830500      -0.11756100       0.10699300 
Cs       2.16510001       3.12537687      23.11597920       55       0.20831200       0.08227100       0.04585300 
Cs       2.20978257      16.27072357       9.28961057       55       0.02197100      -0.20499100      -0.01598100 
Cs       2.69911208      16.67289183      22.61344757       55      -0.03821700      -0.07811000      -0.27128700 
Cs      17.26557497       3.22618484       9.56286984       55      -0.08964900      -0.01703300       0.15326500 
Cs      15.58567799       3.87220073      22.60605055       55       0.04517700      -0.27579500      -0.17533800 
Cs      16.07299718      15.95217481      10.09877124       55      -0.17995400       0.08159900      -0.09398900 
Cs      15.47740746      16.18876151      22.86628816       55       0.60660100       0.66484900      -0.25417600 
Cs       9.54291190       9.99775256       9.22925382       55      -0.10571800      -0.10666300       0.14006900 
Cs       9.05380318      10.16700087      22.89126886       55       0.05082400      -0.05493400      -0.11511900 
Cs       8.62363976      23.63577895       9.45483120       55      -0.07352900      -0.15588200      -0.17322100 
Cs      10.13535912      22.95282030      23.36194300       55      -0.75812600      -0.00077800      -0.56554800 
Cs      22.98712465       9.61853956       9.65926400       55      -0.20558900      -0.03288400      -0.00762000 
Cs      22.37018872      10.14572624      23.37327192       55       0.07483500      -0.14187000      -0.24509900 
Cs      21.50150507      22.47426018       8.53032055       55       0.17966500       0.40665200       0.31867700 
Cs      21.10475477      22.70999598      22.45115470       55       0.04860300       0.02806600       0.00562700 
Cs       9.27062249       9.81650891       2.59824664       55      -0.03934100      -0.00255900       0.19642300 
Cs      10.21530381      10.53295327      16.32273258       55       0.12268800      -0.53323800       0.47712200 
Cs       9.18913126      22.72456117       3.84387388       55      -0.40695600       0.21606200      -0.35011900 
Cs       8.75989335      23.17412299      15.57802791       55       0.20806600       0.29376000       0.35055300 
Cs      21.82861127      10.60782076       3.11992160       55       0.10499000      -0.25981500       0.06114800 
Cs      21.73217275       9.63415728      16.26146041       55       0.16368100      -0.35086700      -0.42564600 
Cs      21.61498184      22.86588388       2.51335582       55      -0.03514500       0.13424200       0.09979600 
Cs      22.43968059      23.01051041      14.80235496       55      -0.06764000      -0.16426000       0.25246100 
Cs       3.82600691       2.99003871       3.09626061       55      -0.12861300       0.01564600      -0.02826700 
Cs       3.49778163       3.21321359      16.05123056       55       0.05987100      -0.17225200       0.12961300 
Cs       2.88496008      16.86434835       3.06799224       55      -0.21867100      -0.21452600       0.09200400 
Cs       1.55265048      16.65773182      16.21258684       55       0.24700700      -0.15815800       0.04209500 
Cs      15.78025683       2.67886378       3.83272240       55       0.49584800       0.16418000      -0.01258400 
Cs      15.88674792       4.10732255      16.25816769       55      -0.24170100      -0.14256000      -0.00630700 
Cs      15.10153658      16.28659939       3.06476304       55       0.28522100       0.12665800       0.24040000 
Cs      15.42594488      16.22698668      15.66826713       55       0.20818700      -0.01298800       0.05129400 
Pb      -0.33444374       0.20882746       6.42379079       82       0.03761800      -0.51926100       0.32656200 
Pb       0.01470532      -0.20962191      20.18950728       82       0.19813800       0.41499700      -0.32589800 
Pb      -0.63462950      12.88535811       5.64551371       82       0.69457300      -0.26824100      -0.09139600 
Pb      -0.31460073      12.84647863      19.29832305       82       0.22481700       0.07440000      -0.13578200 
Pb      13.15978687       0.29662487       6.56247611       82      -1.60374800      -0.46380800      -0.15910400 
Pb      13.13764622      -0.26535413      19.55517621       82      -0.41657000       1.29485900      -0.38136100 
Pb      12.28941451      13.66177207       5.63631003       82       0.41851300      -0.37642800       1.42818400 
Pb      12.81575836      13.54134087      19.63596474       82       0.16721500      -0.78631300      -1.05641000 
Pb       6.60074059       6.35218678       6.16791154       82       0.07594200      -0.03774400       0.18159300 
Pb       6.06238427       6.38331637      19.19062316       82       0.46493900       0.01317500       0.11999600 
Pb       5.35979433      19.61444613       6.83537647       82       0.18551800       0.34304700       0.39823600 
Pb       5.74548187      19.83127049      19.55369821       82      -0.21022200       0.26520600      -0.01815800 
Pb      18.89264027       6.47851382       6.55959271       82       0.28935800       0.33033600      -0.22085900 
Pb      19.00855482       6.66702645      19.79630880       82      -0.00623500      -0.25510000       0.20394200 
Pb      18.84424761      19.47021683       6.08337157       82      -0.71753500      -0.32266500       0.20389100 
Pb      18.91893866      19.07924340      18.85681659       82       0.22731000       0.26551900      -0.20045800 
Pb      -0.04330438       6.29463782       6.11562125       82      -0.15007800       0.62083000      -0.10260000 
Pb      -0.65054363       6.45462297      19.66358183       82       0.98335100       0.49134900      -0.19963200 
Pb      -0.59809404      19.56600407       6.12258072       82      -0.22298600       0.20443800       0.87656400 
Pb      -1.08031688      19.30280341      19.51671009       82       0.65507100      -0.04308800      -0.66088700 
Pb      13.07787926       6.79161942       5.93043461       82      -0.87392600       0.01675800       0.50619500 
Pb      12.39397897       6.81883525      19.53260405       82      -0.43018800      -0.06270800       0.09797700 
Pb      11.82215206      19.47095885       6.98682334       82      -0.06316900       0.86196300       0.22423100 
Pb      12.48738589      19.67379167      18.94882517       82      -0.23066300       0.08045100       0.17757100 
Pb       6.62241244      -0.14675379       6.27761066       82      -0.14059700       0.59608600       0.02553400 
Pb       6.29586478       0.14593111      19.69361956       82       0.61590300      -0.54783900      -0.09595900 
Pb       5.66659073      13.10382781       6.11681897       82      -0.08773000      -0.73946600       0.44991600 
Pb       6.40641782      13.18100403      18.81980124       82      -0.44124200      -0.41881500       0.22979600 
Pb      19.26825911      -0.16844882       6.58269819       82       0.39815000       0.36396700      -1.15037900 
Pb      19.34713311       0.22685071      19.29857611       82       0.01848400      -0.52047700      -0.12247200 
Pb      18.85000835      12.81931724       5.86459840       82      -0.01342400       0.36507200       0.27411600 
Pb      19.50911345      12.98155265      19.42007094       82       0.02941900       0.52292100      -0.47282900 
Pb      -0.11822228      -0.17100255       0.05780403       82       0.09121700      -0.16338800       0.19136900 
Pb      -0.06883252       0.25359875      13.34319105       82      -0.10511700      -0.20033900      -0.26291700 
Pb      -0.35823276      12.87036848      -0.34345082       82      -0.24178700      -0.48164900       0.38411400 
Pb      -0.74721705      13.06395628      12.28094378       82      -0.09444000       0.22849400       0.98058000 
Pb      13.39024787       0.59027762      -0.15653717       82      -0.23958900      -0.05693400       0.27177900 
Pb      13.03875580       0.08691020      12.82667192       82      -0.11821000       0.23529300       0.13150700 
Pb      12.82755206      13.39871760      -0.49101821       82      -0.18642700       0.01450400      -0.03101200 
Pb      11.87176866      13.10522011      13.29346355       82       0.51607100       0.13225200      -0.30140000 
Pb       6.45599107       6.67326104      -0.19786048       82      -0.34345900      -0.15296700       0.16540300 
Pb       6.60876067       6.79235136      12.94029387       82       0.23001600      -0.14080700      -0.25202000 
Pb       5.31125044      19.48998624       0.53201386       82       1.05588600       0.07225000      -0.76624800 
Pb       5.48854000      19.66267245      13.03717901       82       0.39883000      -0.15472800       0.03294100 
Pb      19.17002603       6.70536756       0.17961745       82      -0.90922900      -0.10109000      -0.06242700 
Pb      19.13859499       6.84264545      12.83639078       82       0.36925900      -0.51048100      -0.15380600 
Pb      18.89930535      19.25124506      -0.33789171       82      -0.04787900       0.28319400      -0.04962700 
Pb      18.67655290      19.50130206      12.91582835       82       0.02899000       0.83975700       0.06987800 
Pb      -0.75792897       6.35972999      -0.06954329       82       0.22121800       0.51185700       0.51911100 
Pb      -0.13854518       6.87575713      13.18316154       82      -0.23772100      -0.16519300       0.02633800 
Pb      -0.60445969      19.34240877      -0.04063068       82      -0.52417100       0.06475100      -0.25601700 
Pb      -0.80532959      19.08602443      12.79340801       82      -0.06079000       0.25214600      -0.20714600 
Pb      12.81231442       6.77317879       0.28730726       82       0.31428600      -0.54043600      -0.99139900 
Pb      12.78626202       6.76467176      12.46971148       82      -0.45064700       0.03041500      -0.05294400 
Pb      12.47815700      19.73198890      -0.10717968       82      -0.19567500       0.78450300       0.31494800 
Pb      11.67927372      19.56583772      12.76837892       82       0.07951500       0.01172800      -0.60633700 
Pb       6.57307007      -0.01633454      -0.17313686       82      -0.54918000      -0.28188200      -0.20314200 
Pb       6.24581768       0.04623617      12.67105320       82       0.08073300       0.66440600       0.31665400 
Pb       5.50542702      13.00863137      -0.46789962       82       0.41281500       0.14179200      -0.01032700 
Pb       5.74913148      13.06618033      12.90994158       82       0.04308400       0.97662500      -0.13335700 
Pb      19.47927433       0.30245921      -0.31211153       82      -0.25355200       0.01107700       0.40467100 
Pb      19.31974084      -0.23007991      13.07196729       82       0.31954200       0.34797200       0.08948900 
Pb      19.55857075      13.44376613      -0.37269612       82      -0.26233900      -0.20699500       0.28561700 
Pb      18.74014288      13.10613049      12.82138603       82      -0.28106300      -0.36086700      -0.40085700 
I      12.53959553       3.25663996       6.60274788       53       0.09763600       0.70621600      -0.14490600 
I      12.54302032       3.43798442      19.19703519       53       0.46832600       0.33706700       0.50332600 
I      11.80285145      16.79415781       5.91092430       53      -0.06613000      -1.06987200      -0.57917100 
I      12.69715499      16.60636502      18.50736609       53      -0.23806600       0.02818300       0.03543600 
I      25.70506854       3.89129466       6.78109603       53       0.05154800      -0.64507900       0.15421900 
I      26.14331454       3.94210898      19.39865416       53       0.29319100      -0.19258100       0.32805400 
I      25.44664464      16.80826024       5.94599789       53      -0.04558200      -0.23331500      -0.08587800 
I      24.89233285      16.74616942      18.65516637       53      -0.09854500      -0.05418500       0.37523700 
I       6.33235486       9.39957282       6.08959607       53       0.13870200       0.70041000       0.05583200 
I       6.17150974      10.32804763      17.53308963       53       0.52168500       0.46174900       0.57600000 
I       5.91229442      22.73341097       5.99772663       53      -0.05471100      -0.55592500       0.20978700 
I       6.04377931      23.17414920      20.56958530       53       0.04754900      -0.31089000      -0.18792900 
I      19.56220020       9.68710692       6.52491130       53      -0.08036500       0.29555600      -0.17707400 
I      19.64654257       9.94921370      19.57281029       53      -0.39422800      -0.73412300       0.19216400 
I      18.24236482      22.64296911       6.14037006       53       0.04247400      -0.50866700       0.51294800 
I      19.00455436      22.99559135      19.15569474       53      -0.19581900       0.42513300       0.39167800 
I      -0.05175293       9.60120187       5.18073642       53      -0.26430500       0.29499800       0.10098400 
I       0.02163051       9.80414257      19.85798626       53       0.06545000      -0.04175200      -0.08002600 
I      -0.96379541      22.77289536       6.59972031       53      -0.08362600      -0.28113200      -0.02480000 
I      -0.25521486      23.00853538      19.46175215       53       0.00820300      -0.76902500      -0.22775000 
I      12.20879838      10.06497199       6.60336186       53       0.34759200      -0.09681600      -0.31362300 
I      12.90418890      10.07930428      19.70494546       53      -0.16136100       0.26971600       0.08653200 
I      11.29343798      22.95895004       6.75088187       53       0.47507500      -0.10396300       0.35942200 
I      13.14796394      22.97343759      19.76687900       53      -0.13095900      -0.90655300      -0.24775100 
I       6.64486966       3.10418290       5.73394526       53      -0.18900900      -0.14190800       0.05254700 
I       6.26674550       3.18053745      19.04969363       53       0.16923100       0.95636800      -0.06395900 
I       4.97515530      15.98337699       6.46269043       53       0.08769000       0.77061900       0.08637900 
I       6.09505336      16.74577825      19.55459146       53      -0.22944800      -0.32741900       0.05353100 
I      20.03881958       3.67431102       6.36109607       53      -0.27584600      -0.65776800      -0.01727300 
I      18.80613334       3.57614045      19.55831064       53       0.08984300       0.22752400      -0.02185500 
I      18.87259260      16.05427930       5.33401717       53       0.03490100       0.58393200       0.40592600 
I      19.99003271      16.07300121      18.22750424       53      -0.15912500       0.33682200       0.22355600 
I       3.27973435       6.44518942       6.58071712       53      -0.11638400       0.03848500       0.11637800 
I       3.19606142       7.07434450      19.22167814       53      -0.48852700       0.03776700       0.02674900 
I       2.44502033      19.78174362       5.63803704       53       0.00287000       0.08050100      -0.02558800 
I       2.40810580      19.75965640      18.88394371       53       0.21814800      -0.11040500       0.06163200 
I      15.85886770       6.48988408       7.40547233       53       0.20213400      -0.02281300       0.15353600 
I      15.60422145       7.14018676      19.91394432       53       0.83504300      -0.33888600      -0.08837900 
I      15.30712576      19.22357655       5.93645244       53       0.04061900       0.05755100       0.23968300 
I      15.89373865      18.99929771      18.69407205       53      -0.63414600      -0.04335600       0.27616300 
I       9.37220173      13.24080729       5.99937097       53      -0.60476100      -0.10974800      -0.08580000 
I       9.57181744      13.59033441      19.22496985       53      -0.21855000      -0.08118900      -0.04987100 
I       8.64079294      26.45496231       5.82894712       53      -0.03461600      -0.32837900       0.26024800 
I       9.04501689      25.93294960      20.02729204       53      -0.19140000      -0.07223900      -0.12352200 
I      22.00149205      13.42631352       5.84698045       53       0.39325100      -0.00670800      -0.08224000 
I      22.51787205      12.20311829      18.58119213       53      -0.02729200       0.71472800       0.28397400 
I      21.37228757      26.25352683       5.61573105       53       0.15151400      -0.09294400       0.01864600 
I      22.15313753      26.29227625      19.30174784       53      -0.60713100       0.12449100      -0.19293100 
I       9.68959108       6.30414698       4.91677862       53       0.22342600       0.13712700       0.16157900 
I       9.14675340       7.69087917      19.50238687       53       0.37815700      -0.10661600       0.04907700 
I       8.59070048      19.38357682       7.17682605       53       0.14352200      -0.03509700       0.06039000 
I       8.99139681      19.50975868      19.53015821       53       0.62853800       0.41919600      -0.14852200 
I      22.81586099       6.73371558       6.09850335       53       0.15894900       0.26814400      -0.11721300 
I      22.55209777       6.57354492      19.72676148       53      -0.95167200       0.07872900       0.14240900 
I      21.88124333      19.80768108       5.85835575       53       0.51460900      -0.01247700      -0.02079300 
I      22.08809375      20.03122697      19.74511742       53      -0.61951700       0.06226800       0.06635800 
I       2.88301127      -0.04213993       6.39468764       53       0.11701400       0.14676600       0.01960600 
I       3.38632626       0.35067645      19.04985796       53      -0.47124300      -0.16436100      -0.23794600 
I       2.61622048      12.59458371       6.67640354       53       0.13870900      -0.20382800       0.54481200 
I       2.79485193      13.20880058      20.03319695       53      -0.26067100       0.04457800      -0.18098000 
I      15.96960423       0.62092933       6.85579314       53       1.43296800      -0.11046300       0.21924500 
I      16.19569175       0.61945840      20.33326173       53       0.19199400      -0.17896600      -0.34970800 
I      15.63540347      13.19400351       6.27414756       53      -0.09911300       0.01539800      -0.12370300 
I      15.87766926      13.04530696      20.00752263       53       0.45935300       0.10691300       0.06341700 
I       0.15225845       9.66305476       0.45596881       53      -0.10853400       0.21323100      -0.09778300 
I       0.34504677       9.91980709      13.61357801       53      -0.11686900      -0.18339700      -0.65072800 
I       0.16194505      22.98580192      -0.34002906       53      -0.40589100      -0.67564200       0.00962400 
I      -0.32387700      22.52644360      12.66797724       53      -0.08837300      -0.33932000       0.22555600 
I      12.78463684      10.34529962      -0.52156810       53       0.04679000       0.07645900      -0.07915400 
I      13.41917862       9.80434017      12.76564876       53      -0.00672000       0.04495500       0.03045600 
I      12.92005464      23.19914099      -0.29374752       53      -0.02435600      -0.30281500       0.46555700 
I      11.99329777      22.70137805      11.73956897       53      -0.27601900      -0.38210700       0.17823500 
I       6.88562520       3.67807556      -0.19643289       53       0.01828600      -0.22028100       0.06629800 
I       6.27473331       3.67759668      12.31090691       53       0.11740100       0.09692700       0.47764700 
I       4.92984968      16.41596004      -0.16444534       53       0.47536600       0.31779500       0.34097900 
I       7.48304578      17.08647371      13.00891769       53      -0.35015700       0.09210200      -0.04566100 
I      19.40862002       3.47842859       0.07756437       53      -0.02651800      -0.08155000       0.07811200 
I      19.15276195       2.99858808      12.86243611       53      -0.00080300       0.05963700      -0.04305200 
I      19.57382553      16.37220501       0.72517722       53       0.09558200       0.07459400      -0.33298900 
I      18.58095218      16.29335319      13.10933046       53       0.09848500      -0.06177400       0.03122900 
I      12.11831417       3.34313984      13.16452230       53       0.09770400      -0.17699400      -0.01362500 
I      13.39798062       3.71089587      27.27655486       53      -0.47132400       0.04382200      -0.59193100 
I      12.55424540      16.21832439      13.28643653       53      -0.22158500       0.13018300       0.26704500 
I      11.80916468      16.68736628      25.91607770       53      -0.01779500      -0.86654000       0.10638900 
I      24.89738485       3.59409009      13.22871416       53       0.22214600       0.02767300       0.35301600 
I      24.82129444       3.69678437      25.29022946       53       0.42938400      -0.12967900       0.39088700 
I      23.47849673      16.42309897      12.20169373       53       0.73344400      -0.05686400      -0.40597600 
I      25.55053765      16.54835835      25.96406004       53      -0.23418800       0.33906700       0.07649100 
I       4.88413273      10.33186964      12.84366984       53      -0.02949300      -0.85259000       0.24974200 
I       5.27969237       9.71927696      25.82402074       53       0.20156100       0.34648000      -0.00933300 
I       4.55504041      23.13831645      12.47840905       53      -0.29550400      -0.08265200       0.24533700 
I       4.80061505      22.73842970      24.84704639       53       0.33539500       0.41305500       0.48352400 
I      18.51300686       9.72367061      12.18574532       53      -0.03096300       0.21920600       0.10912300 
I      19.12942357      10.07454164      25.45362831       53      -0.12472200      -0.22344300       0.14790900 
I      18.18872357      22.62747439      12.45266415       53       0.06621800      -0.15068300      -0.09573700 
I      18.03342646      22.06761862      24.94542263       53       0.14571900       0.56566100       0.20897900 
I       9.66116644       8.20788122      12.91227754       53      -0.47728600      -0.32422900      -0.01475000 
I       9.58059164       7.05411032      25.52077414       53      -0.25280500       0.03351100       0.24030800 
I       8.11902119      21.20898450      12.53885653       53       0.41984800      -0.35060100      -0.25226700 
I       8.72494073      19.43840168      25.70447069       53       0.41626100       0.14618900       0.02856800 
I      22.45040864       6.92729229      13.14874528       53      -0.29675300       0.16571200      -0.04443600 
I      21.95996812       6.90137802      26.89583967       53       0.87281700       0.13827600       0.06396000 
I      21.90973552      20.05858899      12.06118966       53       0.14375200       0.12641200       0.22767000 
I      22.13810455      19.55407729      24.99115471       53      -0.25400300       0.11612300       0.25941600 
I       2.93157029       1.05601570      12.32498716       53      -0.30230900      -0.12520500       0.23580700 
I       2.73396589       0.07921577      26.01171875       53       0.52052600       0.71344200      -0.07435600 
I       2.31671121      14.23946961      12.73525111       53       0.13779800      -0.51482900      -0.10579100 
I       2.28755261      13.58447285      25.47160215       53       0.90555600      -0.20849300      -0.44389700 
I      15.98351410      -0.86593435      11.82878488       53       0.23466400       0.43486400       0.39442800 
I      16.04512805      -0.23018678      25.14478227       53       0.64908900       0.42166300      -0.07866600 
I      15.45542610      13.23915790      12.93461075       53       0.61181700       0.03302000      -0.31716000 
I      15.94775091      13.36776545      25.02723850       53      -0.19870300      -0.27438600       0.21847400 
I       3.24453474       6.36178567      -0.20410716       53      -0.15229200      -0.13183600      -0.15631500 
I       2.68150824       5.87196014      13.70004260       53       0.26945100       0.29283200      -0.33267300 
I       2.37420775      19.98130489       0.48554681       53       0.07446900      -0.05575500       0.02591300 
I       2.41428393      18.00989956      12.74438019       53      -0.18930700       0.56278100       0.19334300 
I      16.29138321       6.96206343      -1.23540127       53       0.05969500       0.11077900       0.59410600 
I      15.75928265       5.98414845      12.62100409       53       0.48274000      -0.09184800       0.02244500 
I      15.76984636      18.62862601       0.30557751       53      -0.16090400       0.21442000      -0.29244600 
I      15.32946805      19.92690649      12.49279982       53      -0.38970200      -0.36945300      -0.00401600 
I       9.28957629      13.52444175      -0.28554900       53       0.16118700      -0.28499900      -0.12433700 
I       8.78913865      12.55150718      13.76504908       53      -0.17017800       0.23782100      -0.25879600 
I       8.53439562      26.45430800      -0.24784203       53       0.53219200      -0.18845100      -0.23413800 
I       8.14960334      25.34927254      12.65949642       53       0.79457600       0.30080300      -0.27401000 
I      22.68198570      13.05493912       0.23417211       53      -0.55112900       0.08400600       0.34302600 
I      22.59062438      12.01703437      13.18152526       53      -0.27294600       0.05216100      -0.25237300 
I      21.49778892      26.43247585      -0.12921951       53       0.25112100      -0.17284800       0.12595600 
I      21.34101986      25.45410518      12.30700122       53       0.05878400       0.27586900      -0.10687700 
I      11.91330772      13.43220734      10.21601155       53      -0.09995400      -0.16029000      -0.24371900 
I      12.50132802      14.47491002      22.49595320       53      -0.69424800      -0.10939000       0.42545700 