320
Lattice="24.7708169364 0.607069938144 0.309163099904 -0.819657631259 24.7389422569 0.32582931062 0.279412695792 0.319623357717 24.7101058187" Properties=species:S:1:pos:R:3:Z:I:1:forces:R:3 energy=-101582.161339 stress="-3158.452588 487.196057 -1206.2621 487.196057 -3812.24886 -864.416179 -1206.2621 -864.416179 -2474.290174" pbc="T T T"
Cs       3.39402039       9.74598822       3.92912199       55      -0.12473800      -0.17224600      -0.17787400 
Cs       3.32049457       8.81405088      15.43871907       55       0.00699300      -0.01133100      -0.05085100 
Cs       2.79523945      21.41679142       3.61097364       55      -0.19361700       0.36257700       0.18215500 
Cs       1.83155882      20.85682957      15.47880794       55       0.30868500       0.33051300      -0.02441100 
Cs      15.27750816      10.72005525       3.34684614       55      -0.24304700      -0.29891500       0.08993200 
Cs      15.60764835      10.63473994      15.32971354       55      -0.49898600      -0.06405000       0.39404000 
Cs      14.66832545      22.65323187       3.45545751       55       0.47493400      -0.59465300       0.10544300 
Cs      14.45195338      21.28981922      16.20560165       55       0.19626600       0.23539100       0.13752900 
Cs       9.32905962       3.27853654       2.89225889       55      -0.10522500       0.09478500       0.30585800 
Cs       9.63191607       3.53643699      16.35956606       55      -0.63735100      -0.27568000      -0.27501800 
Cs       8.78073573      16.11586708       2.68513677       55      -0.27954400       0.00003700       0.20098500 
Cs       9.40445749      16.10153134      15.76030463       55      -0.39791600      -0.20044600       0.17130600 
Cs      21.32474844       3.33200402       3.76965173       55       0.04756600       0.16011000      -0.49527000 
Cs      21.38749656       4.35318969      16.12468067       55      -0.05684300      -0.08462000      -0.08824200 
Cs      21.26194086      16.13598392       3.26642098       55      -0.10629400       0.04846300      -0.03231800 
Cs      21.06583236      16.51149634      15.95434735       55      -0.10189500      -0.10349400      -0.05210500 
Cs       9.68194923       3.18394635       9.84863339       55      -0.15252900       0.03681400      -0.04874100 
Cs       9.56135752       4.31609303      21.52104491       55      -0.58032300       0.06242200       0.41663400 
Cs       9.53512392      15.57254171       9.84294916       55      -0.33633200       0.00304200      -0.10268700 
Cs       8.39640972      15.63615680      22.15420363       55       0.08047000      -0.15465900      -0.18422400 
Cs      22.09709275       4.46216933       9.99020411       55      -0.30502300      -0.11083600      -0.09705400 
Cs      21.72885754       4.65399379      22.41117765       55       0.07155200      -0.00163700      -0.03174500 
Cs      21.59045357      15.54538359       9.78768827       55      -0.07412000       0.07521000      -0.02271100 
Cs      21.29734481      15.83073946      21.96703723       55      -0.27625900       0.04011700       0.18778000 
Cs       2.25119191       8.93837038       9.77513922       55       0.37415000       0.27653100       0.04212800 
Cs       2.59609654       9.04517684      21.31801118       55       0.19248300       0.05844800       0.10441600 
Cs       2.83162353      22.18169645      10.34430691       55       0.61489700      -0.04146500      -0.48603400 
Cs       2.70334128      22.57233199      22.60343176       55      -0.00130800      -0.20443000      -0.37389700 
Cs      16.17910144       9.81794696      10.60080332       55      -0.17627400      -0.12677200      -0.11823500 
Cs      15.12817975      10.13010227      21.16688649       55       0.04542700      -0.08906500       0.02323200 
Cs      15.69161142      22.63065222       9.39674776       55       0.45885300       0.06923100       0.27636400 
Cs      14.81122636      22.13134873      22.12179477       55       0.04987500       0.30711400       0.00221600 
Cs       2.32858555       3.61333576       8.92882601       55       0.45350800       0.28396200       0.17238900 
Cs       3.36896641       3.90700172      21.19677404       55      -0.01208800      -0.01749800       0.20206800 
Cs       2.76921108      15.51741796       9.91457991       55      -0.06639800       0.17199800      -0.01093000 
Cs       2.40884575      16.44289711      22.44707263       55      -0.01094300      -0.36555800      -0.52885600 
Cs      15.59491517       3.81631099       9.17903016       55       0.03852700      -0.57211200       0.09948500 
Cs      15.15817567       2.87045222      21.38811706       55       0.55383600       0.67662300       0.30055600 
Cs      15.16847481      16.26073978       9.77814581       55       0.10643400      -0.12216700      -0.12859200 
Cs      14.50793355      15.94688410      21.77565201       55       0.40088900      -0.07830400       0.13383700 
Cs       8.60839226       8.25830497       9.38318692       55      -0.68446500       0.76825900      -0.01523100 
Cs       9.08545943       9.18609829      21.57549445       55       0.11664200       0.20165200      -0.10447300 
Cs       8.92428303      22.61930485       9.05657791       55      -0.03220700      -0.37066100       0.02998400 
Cs       9.18275315      22.51600848      22.06393967       55       0.05297500       0.04994100      -0.01044900 
Cs      21.08742229      10.36868668       9.68941152       55       0.12896200      -0.14471500       0.25031300 
Cs      21.12703547      10.17591565      22.27205536       55      -0.18793500      -0.06945300       0.15753100 
Cs      21.39790407      22.16068195       9.40377177       55      -0.07389400       0.04094000       0.06918000 
Cs      22.23815423      22.46021820      22.81216603       55      -0.34695300       0.17295700      -0.17768200 
Cs       9.08943177      10.41083940       3.53602269       55       0.27789100      -0.42965900       0.07688000 
Cs       8.68676220       9.58586773      16.30877238       55       0.28855300       0.08631300      -0.37355700 
Cs       7.82438122      21.76003787       2.33620704       55       0.34865700       0.06306500       0.49901700 
Cs       9.01709133      21.33802252      15.44614972       55      -0.97191700       0.88341200      -0.07740600 
Cs      22.56238577      10.56090147       3.55013881       55      -0.20121500      -0.22162500       0.04627600 
Cs      22.76935924       9.88552865      16.00130295       55      -0.17009800       0.23715100       0.13951500 
Cs      21.16392306      22.22332458       4.46520469       55       0.13735200      -0.14547400      -0.32089700 
Cs      21.36588074      22.36433330      15.55454147       55      -0.04855500       0.19483300      -0.04990800 
Cs       3.00686906       3.01095841       3.49988699       55       0.13757400       0.12171400      -0.20427000 
Cs       2.96321448       2.84143069      15.05729513       55       0.03249300       0.22204900       0.17351200 
Cs       2.19570757      16.16379131       3.16213105       55       0.30823800      -0.47125200       0.23506900 
Cs       3.54748322      15.25888646      15.92542556       55      -0.01527500       0.06851100      -0.19695800 
Cs      15.52671874       3.74946968       3.42962862       55      -0.01133000      -0.05742600       0.17540200 
Cs      14.71783497       3.46929550      16.00914023       55       0.09392800      -0.01891000       0.01857200 
Cs      14.58170968      16.46906070       3.66343988       55       0.02736100      -0.06727800      -0.17930500 
Cs      15.20408112      16.21493887      16.25920436       55       0.07530400      -0.39196800       0.07384300 
Pb       0.44871696       0.68843112       6.05597043       82      -0.17543800      -0.18295600      -0.31165400 
Pb       0.53601365       0.34796973      18.34882188       82      -0.28709900      -0.11944400      -0.03318200 
Pb       0.19532688      12.96415218       6.56967775       82      -0.68104400      -0.45663100       0.14750700 
Pb      -0.15370643      12.51852333      18.96124134       82      -0.08743900      -0.33297800       0.13604400 
Pb      12.74768133      -0.21417682       6.67300001       82       0.48349500      -0.30046400      -1.74398600 
Pb      12.24743703       0.38474223      18.58837204       82       0.09837800      -0.13153500       0.05371400 
Pb      11.69939892      12.71194651       6.68607365       82      -0.10908300      -0.61836500      -0.39545600 
Pb      11.86057724      12.92359338      18.71047807       82       0.16150700      -0.44862300       0.30491300 
Pb       5.93806788       6.32455076       6.60582208       82      -0.02231100      -0.30083900      -0.24738100 
Pb       6.02687793       6.42603262      18.71847072       82      -0.54349500      -0.04211100      -0.45984800 
Pb       6.00512497      18.43562562       6.31122393       82      -0.23275200       0.49210800       0.06698300 
Pb       5.31928901      19.31892328      18.63010278       82       0.53380300       0.16841900      -0.03995600 
Pb      18.51014692       7.28035095       6.95423009       82      -0.10951500      -0.83966100      -0.05476800 
Pb      17.92899890       6.89762079      18.82883809       82      -0.21495600       0.55181300      -0.05378900 
Pb      18.36312501      19.04262267       6.41465744       82      -0.24207200       0.04431000      -0.11896500 
Pb      18.48299744      19.56473118      19.18363715       82      -0.63948100       0.05353500       0.26404800 
Pb      -0.34785081       6.60539339       5.94755375       82       0.21676800      -0.07995600       0.17582900 
Pb      -0.48249150       6.37962368      18.61278634       82       0.71118100      -0.22937900      -0.04501800 
Pb       0.23686485      18.95215347       6.48062218       82      -0.72833600       0.32002100       0.44819900 
Pb      -0.34483558      18.68345422      19.16843923       82      -0.03571100       0.30773000       0.04330700 
Pb      12.31872924       6.75626777       6.40391331       82      -0.15256800      -0.06809700      -0.34634600 
Pb      12.11970334       6.34197558      18.74673940       82      -0.07165600       0.52190500      -0.18392600 
Pb      11.57369169      18.44970721       6.49401135       82       0.37612800       1.22468400      -0.41544700 
Pb      11.73932955      18.78931698      18.96395255       82       0.03316200       0.04762200      -0.08575200 
Pb       6.69819017       0.20846094       5.84258002       82      -0.20036600       0.10349300      -0.19795500 
Pb       6.42843214       0.28770936      18.69876339       82      -0.04452100       0.01958600      -0.90385100 
Pb       5.48830173      12.47739391       6.69291833       82       0.69528700      -0.01963200       0.32884300 
Pb       5.60944584      12.66353509      18.75947643       82       0.89641700       0.05189300      -0.01381900 
Pb      18.81181895       0.85562358       6.24095118       82       0.37300800      -0.00887900       0.05531400 
Pb      18.83896460       1.15432067      18.59077923       82       0.17318900      -0.57529200      -0.16760400 
Pb      18.22369295      12.92567163       6.44092557       82      -0.09983100       0.64979800       0.09162900 
Pb      18.50183012      13.22350654      18.77023974       82      -0.44585300      -0.24340000       0.08037000 
Pb       0.01251069       0.13028090      -0.16235697       82       0.41594000       0.48498000      -0.10115400 
Pb       0.31119818       0.20798717      11.67719138       82      -0.56708000      -0.31765700       0.80774800 
Pb      -0.40526954      12.39481186       0.24505698       82       0.07205400       0.09701600      -0.10994100 
Pb       0.14806631      12.54310546      13.02997882       82      -0.38720800      -0.64146600      -0.77977500 
Pb      12.70186028       0.28607899       0.21857978       82      -0.01037500       0.62016800      -0.02656700 
Pb      12.31910518       0.60184029      12.76860760       82       0.19487200       0.28939900      -0.06421900 
Pb      12.14087033      12.02286708       0.42185039       82       0.21680500      -0.18612000      -0.08020100 
Pb      12.11182962      12.84871819      12.58050230       82      -0.47752200       0.06746400       0.01945300 
Pb       5.57493284       6.37236566       0.37969384       82       0.34352100      -0.82298100       0.26289900 
Pb       6.55746245       6.17377613      12.31557304       82       0.15894300       0.45166800       0.35244800 
Pb       5.31526200      18.21820148      -0.16355098       82       0.52509400       0.11651600       0.51816100 
Pb       6.02714454      18.66488431      12.37840172       82       0.06511800       0.35978200       1.92074900 
Pb      17.17300719       6.73246629       0.53706763       82       0.13585300       0.04669800      -0.44068500 
Pb      19.00705760       6.80846836      13.12696565       82      -0.30269000       0.21383500       0.54238500 
Pb      17.53530594      19.34941502       0.02268323       82       0.18128800      -0.45476800       0.24480000 
Pb      18.23003221      19.35919723      12.79187297       82      -0.17727000       0.01020000      -0.24774600 
Pb      -0.30807651       6.45316389       0.19771201       82      -0.26058100      -0.01790200       0.37096600 
Pb       0.14856884       5.97784026      12.56472704       82      -0.04620400       0.15549700       0.18366200 
Pb      -0.57383150      18.91627863       0.59067130       82      -0.47590900       0.06149800      -0.73803200 
Pb      -0.40702842      18.42617619      12.64994836       82       0.28098900       0.35919700      -0.15636400 
Pb      12.02628702       6.19418547       0.21806190       82       0.11433500      -0.10470900      -0.24527200 
Pb      12.49599642       6.63509392      12.49007818       82       0.07565700      -1.08388900       0.04631500 
Pb      11.54118117      18.37606822       0.02868779       82       0.20348100       0.13368300       0.63305500 
Pb      12.33376988      19.20425365      12.40572671       82      -0.69607000      -0.13271000       0.14553700 
Pb       6.05587645       0.10857684      -0.30039747       82       0.40614200       0.34010800       0.68322900 
Pb       6.47527361      -0.12754955      12.32440580       82       0.06974000       0.07333500       0.83207600 
Pb       5.14863346      11.66948740      -0.02128687       82       0.23457700       1.20520300       0.29708600 
Pb       6.05718458      12.83569826      12.48681265       82       0.61209800      -0.91477700       0.31013000 
Pb      19.04505000       0.63687309      -0.06388362       82      -0.76236700       0.05888700      -0.08069400 
Pb      18.43746506       1.06244168      12.53141475       82      -0.10024300      -0.69503700       0.17840600 
Pb      17.72634878      13.27442393       0.55819242       82       0.30336600      -0.39852400      -0.31497800 
Pb      18.33547586      13.20247477      12.74633196       82       0.14612700       0.10857100       0.01104000 
I      12.80286358       3.78664210       5.95339623       53      -0.22058700      -0.16790700       0.22585000 
I      11.70283325       3.28299991      19.21912453       53       0.33858400       0.36901800      -0.48175600 
I      10.79575905      15.90856562       5.78932928       53      -0.03632200      -0.73870500       0.02481400 
I      11.71409047      15.70521925      19.87000633       53      -0.46597800       0.41923900      -0.38544400 
I      24.05300464       4.31494890       5.76124665       53       0.25792700      -0.72153900       0.35013200 
I      24.32432591       3.95464686      18.07536482       53       0.05830600      -0.12427800       0.47900000 
I      24.53432227      16.50503145       7.08870103       53      -0.20324400      -0.31001300       0.03832300 
I      24.24058535      16.28931153      20.03161333       53       0.10166000       0.23298300      -0.06641600 
I       5.23823856       9.34527125       7.10165767       53       0.07121000      -0.04265300       0.00257600 
I       5.77745060       9.47316413      18.28124211       53      -0.33587100      -0.03159300      -0.00157500 
I       5.75942735      21.64257647       6.67699921       53      -0.30311000       0.36041000       0.01128400 
I       5.30751391      22.08326147      17.56205455       53      -0.14044900      -0.60126500       0.28021300 
I      17.51603018       9.92096808       6.61543263       53      -0.18803100       0.10696000       0.10839500 
I      17.65029589      10.00701514      18.29024366       53       0.10933100      -0.05082200       0.08887100 
I      18.01804679      22.30267657       6.26935988       53      -0.10350000       0.17328300       0.12682500 
I      17.37821986      22.34649898      19.60206376       53       0.24606300      -0.40812100      -0.25065300 
I       0.54237784       9.40828118       6.41301460       53       0.01640600       0.56923800      -0.06353100 
I       0.76890999       9.62283012      18.30128606       53      -0.28461200      -0.01138900      -0.02330000 
I       0.22793618      22.14088351       6.29064867       53      -0.06417000      -0.08494000       0.10832500 
I       0.53803435      22.18649070      18.67203876       53      -0.17590500      -0.34867800       0.09591600 
I      12.53020061       9.67427594       7.56214398       53      -0.09869300       0.50196400      -0.37053800 
I      11.99254892       9.38469262      18.33580386       53       0.11702500       0.21353800       0.11585700 
I      13.08511311      21.79683914       7.47861728       53      -0.82982400       0.23728000      -0.40839700 
I      11.58871986      22.23263207      19.15804514       53       0.11491100      -0.79067100       0.07215500 
I       7.06213656       3.24402737       5.61904488       53      -0.27071200       0.07862700       0.33528800 
I       6.49280008       3.30256626      18.59393256       53       0.12760600      -0.06131600       0.10028100 
I       6.46266894      15.57695042       6.68142614       53      -0.10248300      -0.14638800      -0.04433900 
I       6.00149692      15.65856862      18.92829158       53      -0.03274800      -0.39295100       0.30736500 
I      19.45747686       3.91289311       6.65525967       53      -0.24927900       0.00059400       0.16076500 
I      18.55623842       4.08524712      19.35854125       53       0.32172600      -0.46924100       0.06777500 
I      18.85062078      15.84989342       6.26448124       53       0.07825800       0.22540900       0.07577200 
I      18.28712774      16.16134480      18.66792064       53       0.07314200       0.23993200       0.11879100 
I       3.03101195       5.82625523       6.14858980       53      -0.02811900       0.00968400       0.09792100 
I       3.18559398       5.73275834      18.09497625       53      -0.38621700       0.13413100       0.08812800 
I       2.90662532      18.14403694       6.76188870       53       0.32097000      -0.06864800       0.08871400 
I       2.57922030      18.18491317      18.51884542       53      -0.41399300      -0.09317500      -0.02135200 
I      15.74022040       6.19226547       6.82892278       53       0.08368200       0.44315900      -0.22363900 
I      15.06690855       6.04831537      19.33452111       53       0.36026200       0.03804700      -0.16630400 
I      14.95073515      18.76792270       6.33565070       53      -0.06446000      -0.17126900       0.08618800 
I      14.91541368      18.51659167      18.94137290       53      -0.07322800       0.22346300      -0.18312900 
I       8.58593153      12.72562627       7.21776970       53       0.49493700      -0.40593200      -0.03910800 
I       8.73331691      12.15142745      19.35064259       53       0.04230100       0.22434100      -0.09301300 
I       8.85014247      24.98803392       5.78434515       53       0.10567200      -0.22576500       0.15212000 
I       8.49024707      24.38535447      17.73949244       53      -0.13090100       0.34731300       0.43446300 
I      21.56048450      12.80176260       7.26546951       53       0.00441700       0.09638600      -0.40819000 
I      21.35138004      13.45394102      18.32331714       53       0.50647600      -0.11205700       0.04901900 
I      21.30239224      25.25161477       6.19321588       53      -0.12077800       0.02266600       0.41848600 
I      21.00269296      25.25945972      18.51604790       53      -0.26810200       0.09908800      -0.07273200 
I       9.00725349       7.07474795       5.50653693       53       0.36288600      -0.01645000       0.40179600 
I       8.89916479       6.68871102      18.56925356       53       0.83959300      -0.03801500       0.09223900 
I       8.69236971      19.58380650       6.12242141       53       0.60556100      -0.06783900       0.09848700 
I       8.80108561      18.45788495      19.08822314       53      -0.17313800       0.13562500       0.13446800 
I      21.46972184       7.65138369       5.99237740       53       0.07792100       0.17224100      -0.04396800 
I      21.52382229       7.66715319      19.14675148       53      -0.38928200       0.01221700      -0.05461000 
I      21.26301499      19.34807620       6.88147150       53       0.32759200      -0.00016900      -0.00788200 
I      21.13998156      19.67200277      20.44275604       53       0.41541200      -0.04622500      -0.10081600 
I       3.50316595       1.14638269       6.75287852       53      -0.17940800      -0.24788500      -0.22563300 
I       3.25042609       0.76858679      19.52546518       53       0.28141700      -0.10151400      -0.08981200 
I       2.94746128      13.34274983       5.59538918       53      -0.03791900       0.10499900      -0.15129300 
I       2.66571907      13.28025298      18.83476688       53      -0.12899100       0.09931700       0.25275500 
I      15.86217490       0.63989599       6.48370550       53      -0.32909700       0.12819300       0.03112400 
I      15.29739099       0.41678090      19.01245796       53       0.22274200      -0.05941300      -0.44173100 
I      15.27025205      13.73499847       5.64994805       53       0.00696100      -0.37531800       0.59724000 
I      14.90295957      13.29388191      18.58645396       53      -0.05638100      -0.04943100       0.00922400 
I       0.80915134       9.27388217       0.58115666       53      -0.51576100       0.32040600      -0.03737100 
I       0.23601322       9.36437054      12.86293501       53       0.13969300       0.18782700      -0.00295900 
I      -0.22879452      21.82943214       1.20356933       53       0.02120000      -0.40324400      -0.15908300 
I       0.06461633      21.57313521      11.95943612       53      -0.59911300       0.17061400       0.62815100 
I      13.59375957       9.30869631       0.13831190       53      -0.22920100       0.09128300       0.02259400 
I      12.94971670       9.29701615      12.34242330       53       0.33448300       1.49025200       0.09200200 
I      11.68213619      22.24269912       0.09990711       53       0.01742700      -0.50183700      -0.01928000 
I      11.52870693      22.01681624      11.97273706       53       0.35089100      -0.07499100       0.10976500 
I       6.02988261       3.19418507       0.80409911       53      -0.08637100       0.46153600      -0.27928400 
I       7.40929206       3.60210060      13.17405839       53       0.25039800      -1.13767300      -0.57888000 
I       5.51069245      15.20886193       0.67684783       53       0.36558900       0.71306600      -0.44217600 
I       6.19872461      15.71285992      12.79081035       53       0.04825100      -0.25069400      -0.03059700 
I      18.30366544       4.08593667      -0.56648813       53       0.53317500      -0.33616100       0.17443200 
I      19.54860203       3.63131298      12.60930421       53       0.29678700       0.59648200       0.23617700 
I      17.78726034      16.22823981       1.02677016       53       0.15991900       0.19439500       0.07282400 
I      18.23691332      16.17046240      11.86847110       53       0.18804100       0.06502000       0.31870400 
I      11.37778747       3.47283724      13.07517745       53       0.36796400      -0.55287000      -0.14047700 
I      11.17641768       3.70695924      24.58042432       53       0.60628400       0.28685500      -0.05201200 
I      11.36079423      15.88432874      12.85463547       53       0.44319000      -0.26461100      -0.10681400 
I      11.72860076      15.57409439      25.25737381       53       0.01917500       0.77207800      -0.32585800 
I      24.15165062       3.51857294      13.27160243       53       0.15787400       0.21647100      -0.15815600 
I      24.37344606       3.80105744      25.58314174       53      -0.20766900       0.73809900      -0.53330600 
I      24.50435321      16.06372212      12.83119172       53      -0.08412600       0.22763300      -0.14119700 
I      24.15415180      16.48539317      24.62732430       53       0.03474700      -0.07450000       0.17146400 
I       6.06856072       9.34121738      12.26735342       53      -0.13181500       0.22547200       0.00454200 
I       4.66006356       9.35701854      24.49750854       53      -0.20142600      -0.30915800       0.22670700 
I       5.74254919      21.49877694      13.52609253       53      -0.21887900       0.61619800      -0.28588600 
I       5.06514128      22.20362780      25.43675280       53       0.04572300      -0.29927700      -0.52237700 
I      18.47641458       9.81890025      13.69402729       53       0.19599600      -0.13742400      -0.41441100 
I      18.19785447      10.44168215      25.57453435       53      -0.01886700      -0.16818000      -0.39437300 
I      17.57227025      22.20608486      13.04384271       53      -0.00814300      -0.02295200      -0.08187200 
I      17.18044263      22.68273293      25.17850997       53       0.23128100       0.03893900      -0.13711500 
I       9.72111645       7.09283929      13.36182995       53      -0.83500000       0.13646000      -0.27395800 
I       9.27406822       7.39891332      24.65352433       53      -0.24720700      -0.07599700       0.20187500 
I       9.04119010      18.98623682      12.25868178       53       0.29780800      -0.00761000       0.12478900 
I       8.67231808      19.45374811      24.59227231       53       0.23366700      -0.26144000      -0.16551400 
I      22.03178112       7.91646448      13.20786554       53      -0.63949900      -0.55440500      -0.20546600 
I      21.77188586       7.59417690      25.70225461       53       0.30547300       0.07173700      -0.17964400 
I      21.35122276      19.36635743      12.74803234       53      -0.04956500       0.01353900       0.00387400 
I      21.18943546      19.61413521      25.03405733       53       0.35739100       0.06380100      -0.06667100 
I       3.47916116       0.36543386      12.44597189       53       0.15524200      -0.08148300      -0.48575200 
I       3.35056434       0.44489806      24.41459850       53      -0.01393700       0.50131000       0.09208400 
I       2.99224944      12.09946662      12.89923758       53       0.38203500       0.16988100       0.14332200 
I       2.78455765      13.56807550      25.37010809       53       0.27606000      -0.31194600      -0.25089700 
I      15.64819948       1.84875155      12.83353945       53      -0.12153700      -0.09459500      -0.29002400 
I      16.15191167       1.43111902      24.80261777       53      -0.25410100      -0.30198500      -0.18633800 
I      15.14652237      13.17654135      12.76845703       53      -0.00724700       0.07131200      -0.10883400 
I      15.13955302      13.76863107      24.72377311       53       0.20919400       0.05610400       0.10258300 
I       2.60231209       5.74185676      -0.41007817       53       0.58498300      -0.21311800       0.11028200 
I       3.09579036       6.31138026      12.78920012       53      -0.35235500      -0.21990500      -0.37967400 
I       2.49607339      18.20261323       0.36966035       53      -0.49591800       0.41968300       0.26963800 
I       2.99512752      18.33149009      12.79725415       53      -0.58916500      -0.06846300      -0.02434200 
I      14.88774919       4.76534226       0.03482565       53      -0.58327800       0.54861300       0.09463900 
I      15.65929078       5.86995968      11.92376460       53       0.04807500       0.44236900       0.30331800 
I      14.66593744      18.81365072       1.01497875       53      -0.19093500       0.23735900      -0.36210600 
I      15.10032058      18.55829173      13.73228822       53       0.06115900       0.29367800      -0.47970200 
I       9.34757103      11.93629542      -0.11529109       53      -0.61998300      -0.18230100       0.03975500 
I       9.17074309      11.79376950      12.17195188       53      -0.08593100       0.30340200      -0.08720400 
I       8.24136160      25.12906758       1.02590702       53       0.12540000      -0.46140500      -0.25153100 
I       8.80370283      24.48555026      13.49994237       53      -0.41450100       0.01065800      -0.15776000 
I      21.40390287      13.01538030       0.78977967       53      -0.27152900      -0.08737900      -0.04039300 
I      21.31537957      12.77768492      12.74062758       53       0.16761300       0.12156600      -0.03354000 
I      21.28125978      24.57777066       0.68480403       53      -1.04273500      -0.21109200       0.21445600 
I      21.25839145      24.98592882      12.06403486       53       0.34746900      -0.15161400       0.23985500 
I      12.26875746      13.08895311       9.36303652       53       0.36933000       0.43998500       0.91625100 
I      12.28633380      12.44076334      21.72212315       53       0.04632800      -0.07622000       0.00056300 
I      11.83673452      25.23596994       9.55247488       53      -0.17634000       0.52111600       1.50070500 