320
Lattice="24.6972728723 0.500241462367 0.265006413194 -0.931688723906 24.8323206233 0.588610354507 0.222390648563 0.575132251373 24.9445774723" Properties=species:S:1:pos:R:3:Z:I:1:forces:R:3 energy=-101584.206729 stress="3566.982491 327.664501 -563.007814 327.664501 2284.815127 -1227.282315 -563.007814 -1227.282315 2722.252936" pbc="T T T"
Cs       3.05866014       9.89540313       4.11052359       55       0.03688600      -0.12458700      -0.11431700 
Cs       2.81133510       9.01604208      15.30518335       55       0.19044200       0.17931600       0.33022900 
Cs       2.76906879      21.56691090       3.75333438       55      -0.31397100       0.11705900       0.07822700 
Cs       1.77364965      21.17076116      15.80666106       55       0.11383600       0.10139700      -0.17492700 
Cs      15.17754047      10.98240641       3.46709261       55      -0.21752400      -0.68695400      -0.00971300 
Cs      15.52004939      10.82756494      15.91740520       55      -0.43185700       0.00948700      -0.47510500 
Cs      14.87023174      22.33197772       3.83537599       55      -0.10496900       0.08504400      -0.14502300 
Cs      14.24440718      21.92126255      16.78717019       55       0.47904900       0.01342500      -0.17419400 
Cs       9.10814115       3.40433367       3.19630111       55       0.27740400      -0.02655300      -0.17354100 
Cs       9.20563010       3.36420697      16.65325065       55      -0.22832200      -0.06698800      -0.50570100 
Cs       8.63955853      16.21506239       2.78738484       55      -0.25277200       0.07411400       0.34501400 
Cs       9.22140453      16.41581175      15.86271892       55      -0.28656800      -0.17384100       0.12907100 
Cs      21.40245779       3.18162860       3.44835993       55       0.00494600       0.20565500      -0.00322700 
Cs      21.23449353       4.50378029      16.24389439       55       0.04485800      -0.02848900       0.18372100 
Cs      20.96908898      15.84099197       3.30786293       55       0.04958600       0.15204200       0.18595000 
Cs      21.11400049      16.62967808      16.30258147       55      -0.02698200       0.01460400      -0.07681300 
Cs       9.44267281       3.30092432      10.05022902       55       0.02043400      -0.05969200      -0.13553300 
Cs       9.48140070       4.91334486      22.00034493       55      -0.89791500      -0.79984400      -0.02189700 
Cs       9.32414123      15.82114083      10.09161632       55      -0.25666700      -0.02016800      -0.17193800 
Cs       8.52311107      15.66624485      22.46369439       55      -0.01617400      -0.05243700      -0.07717300 
Cs      22.00839324       4.52758551      10.33794846       55      -0.33774700      -0.22463200      -0.08566900 
Cs      21.25345788       4.93901809      22.67732028       55       0.91288700       0.15566300      -0.68445100 
Cs      21.49517694      15.27672709       9.94380399       55      -0.03945500       0.13307500       0.00174000 
Cs      20.88571281      16.04735997      22.33113375       55      -0.11345900       0.23679700       0.15328500 
Cs       2.30680178       9.20870030      10.44572948       55       0.42318800       0.26588700      -0.52455300 
Cs       2.57371417       9.62237761      21.95501427       55       0.23470000      -0.27487300      -0.20874200 
Cs       3.15848532      22.66779820      10.45281215       55      -0.25006800      -0.64451900      -0.44685000 
Cs       2.68683835      22.83157185      22.98098450       55      -0.16728100       0.21847500      -0.09585300 
Cs      15.76935633       9.50497910      10.99095214       55       0.30522600       0.10034200      -0.69231500 
Cs      14.70369842      10.16445512      21.24589823       55       0.15307000      -0.21394400       0.08992900 
Cs      15.76394698      22.70233450      10.00417024       55      -0.30717800       0.06294300      -0.39800700 
Cs      14.48242818      22.14948502      22.50722907       55       0.44537900       0.08248400      -0.10518700 
Cs       2.25118392       3.76465829       9.05267417       55      -0.09106800       0.08010100       0.18732100 
Cs       2.71917470       4.05330054      21.47400680       55      -0.01550400       0.14353600       0.13107600 
Cs       2.66045452      15.92554891      10.08753570       55       0.02727700      -0.12089300      -0.18061400 
Cs       2.23256611      16.42620214      22.81972521       55      -0.00730500       0.04587600      -0.48806000 
Cs      15.83522440       3.47043829       9.56399715       55      -0.14467200       0.15713000      -0.37592000 
Cs      15.29895729       2.89705042      21.29173896       55       0.14179100       0.53676000       0.59592400 
Cs      14.85412148      16.53763060      10.19944504       55       0.13529900      -0.31555600       0.00770000 
Cs      14.47613886      16.19859975      21.94763178       55       0.50505500       0.05187700       0.62450400 
Cs       8.75741260       8.48762567       9.81063009       55       0.03799900       0.53347900      -0.25985000 
Cs       9.11614566       9.01537528      22.05441796       55      -0.05970600       0.63729700      -0.26628600 
Cs       8.42706085      22.57572541       9.43962111       55       0.16488800      -0.22510400       0.00656700 
Cs       9.07408767      22.96380152      22.54381444       55      -0.19862300      -0.11146400       0.04327900 
Cs      21.04101860      10.24707104      10.15596584       55       0.05824200      -0.14004300      -0.17595600 
Cs      21.07588392      10.48226618      22.94744207       55      -0.03687700      -0.29942300      -0.03607200 
Cs      21.10079787      22.14430540       9.62193859       55       0.12392300       0.34266500       0.41140200 
Cs      21.89185720      22.65130636      22.94148468       55      -0.23705000      -0.04322400      -0.00725600 
Cs       8.86360498       9.82785395       3.69988727       55       0.02061900       0.29113300      -0.36898700 
Cs       8.60121515       9.82612708      16.31478828       55       0.10710800      -0.13863500      -0.08176300 
Cs       7.70618577      21.76846334       2.58816960       55       0.42790400      -0.06402300       0.52414400 
Cs       8.93973689      21.70559052      15.84566638       55      -0.09944300      -0.60159600       0.44088200 
Cs      22.57906719      10.81794065       3.35854745       55      -0.31712400      -0.87603300       0.37294500 
Cs      22.34744162      10.15721280      16.07659984       55      -0.13347100       0.17262800       0.27223600 
Cs      21.27635196      22.18237817       4.71925765       55       0.21719900       0.14790500      -0.21718300 
Cs      21.42985010      22.58098582      15.48583821       55      -0.07401400       0.07481400       0.11348300 
Cs       3.08400045       2.96357750       3.18710804       55       0.08445800       0.31107000      -0.07087400 
Cs       2.87598638       3.03732159      15.03657817       55       0.01487300       0.15485400       0.17116600 
Cs       2.23803387      16.01206537       3.38421191       55       0.05003700      -0.04434400       0.06052200 
Cs       3.74173403      15.48590246      15.80562144       55      -0.30616500      -0.07627800       0.20405700 
Cs      15.84891471       3.44036224       3.55967450       55      -0.82078700       0.57740500       0.15736600 
Cs      14.32537509       3.49311627      15.70649226       55       0.32788600       0.24217800       0.32532500 
Cs      14.15705747      16.20431183       3.63790902       55       0.05826000       0.16200400      -0.37811600 
Cs      15.38476996      16.41746658      16.60494908       55      -0.26443700       0.00296000      -0.18296500 
Pb       0.48915702       0.73401734       6.05118743       82       0.01106600      -0.30211600       0.55934900 
Pb       0.42558624       0.43840728      18.86472644       82      -0.21612600       0.45240300      -0.44427500 
Pb      -0.13306001      12.82197474       6.66019016       82       0.14596900       0.05062600       0.18853100 
Pb      -0.26940729      12.82615173      19.84842452       82      -0.17568500       0.20648000      -1.37389000 
Pb      12.79494358      -0.11469529       6.41857136       82      -0.20008300       0.78827400      -0.08692500 
Pb      12.27880699       0.39079685      18.82477592       82      -0.16595100      -0.01397700       0.19186500 
Pb      11.39854065      13.04225792       6.66009282       82       0.43565700      -1.07023000       0.68039100 
Pb      11.68502870      13.38015764      19.00479903       82      -0.05552900      -0.44761800       0.50408900 
Pb       5.81676033       6.34407189       6.59240833       82      -0.20061200       0.34706100       0.34420200 
Pb       5.84408936       6.49013302      18.98743889       82      -0.37760700       0.55968300      -0.05110700 
Pb       5.96028276      18.62002966       6.52580142       82      -0.19133900       0.31561400      -0.07598300 
Pb       5.15634690      19.41264939      18.86440618       82      -0.05125300      -0.85661800       0.61981200 
Pb      18.40057779       6.99105004       6.93644358       82      -0.02620100      -0.07198900      -0.29264500 
Pb      17.79148356       7.30909862      19.04706631       82       0.46779500      -0.61572400      -0.51103400 
Pb      18.41845190      19.18783782       6.43569885       82      -0.28854600      -0.55864900       0.09667600 
Pb      17.96762366      19.69144638      19.59643091       82       0.06097500      -0.46977400       0.07402600 
Pb      -0.48139490       6.75327824       6.27732092       82       0.27746000       0.01575000      -0.15053500 
Pb      -0.26409528       6.74633769      18.67227653       82      -0.29490600      -0.05894000       0.70533800 
Pb      -0.00401637      18.87652148       6.91228501       82       0.30179000       0.34233400      -0.81511500 
Pb      -0.69963971      19.15517051      19.67405509       82       0.16472500       0.24235200      -0.25732500 
Pb      12.01076640       6.95276799       6.17176516       82       1.05070900      -0.33292100       0.56973600 
Pb      11.99588267       6.50443172      19.06814884       82      -0.12659200       0.89523200      -0.83433800 
Pb      11.84350106      18.91221032       6.48008236       82      -0.32252000       0.02497100       0.10150900 
Pb      11.54669271      19.03533162      19.22151556       82      -0.63027900       0.37819000       0.49747100 
Pb       6.63418207       0.33411601       5.84569552       82      -0.08918100      -0.03054600       0.97412300 
Pb       6.36594874       0.52722882      18.67981087       82      -0.41960200      -0.77266700      -0.14600700 
Pb       5.64315504      12.71448381       6.97847528       82      -0.05307000      -0.39453200      -0.57720300 
Pb       5.79368519      12.81944967      19.02845823       82       0.16638500       0.19097200      -0.13649700 
Pb      18.85417057       0.68107544       6.14174070       82      -0.06476200       0.40245800       0.10037100 
Pb      18.73143183       1.17781742      18.64438291       82       0.43199900      -0.37346200      -0.21404400 
Pb      18.09469513      12.73252340       6.67117628       82      -0.22394300       0.38593700       0.09391300 
Pb      18.34222751      13.49509434      19.20744464       82       0.17669600      -0.26455100      -0.07340400 
Pb       0.11847122       0.23846002      -0.01720731       82      -0.19701200       0.05602000       0.18753500 
Pb       0.25339729       0.29233934      11.94513585       82       0.03537100      -0.48453400       0.14141300 
Pb      -0.39856092      12.51154130       0.20861760       82      -0.44313500       0.37163600       0.98531200 
Pb       0.09809540      12.69362613      13.26908448       82      -0.45249000      -0.22116100      -0.09369900 
Pb      12.60506256       0.29496273       0.16108601       82      -0.02143200       0.00468100      -0.18802700 
Pb      12.37308947       0.69480177      12.84384186       82      -0.23658800      -0.08057300      -0.34001400 
Pb      11.94045073      12.03435746       0.32507674       82      -0.05493300      -0.37522400      -0.12708400 
Pb      12.02937058      12.80591803      13.08215879       82      -0.22864400       0.23941500      -0.75704300 
Pb       5.74991688       6.55039414       0.60137007       82      -0.52724200      -0.72863400      -0.84622800 
Pb       6.48184719       6.28920454      12.43908993       82      -0.23711100       0.03889100       0.74681100 
Pb       5.16244447      18.21227761       0.06904243       82       0.20118800       1.05535200       0.09154000 
Pb       5.86388015      18.60535034      12.84826707       82      -0.23197100       0.54165600      -0.37871100 
Pb      17.09101936       6.77447564       0.36411418       82       0.06907200      -0.14773600       0.29522500 
Pb      18.89317686       6.81424607      13.24195598       82      -0.94114900       0.80206800      -0.03132400 
Pb      17.70276326      18.97759752       0.72945585       82      -0.21596600       0.23909900      -1.18189200 
Pb      17.69207209      19.42641952      12.85808800       82       0.96088200      -0.20680000       0.61348000 
Pb      -0.35180906       6.54667272       0.36619926       82       0.15529600      -0.36660900      -0.09684500 
Pb      -0.04558570       5.95627904      12.89155061       82      -0.74843700       0.05083200      -0.30711500 
Pb      -0.79868420      18.95551625       0.82997022       82      -0.13278800      -0.48496700      -0.16616600 
Pb      -0.43430428      18.61677548      12.73936855       82      -0.11655100       0.88517500       0.35693400 
Pb      11.84691098       6.07562051       0.07010054       82       0.45432300       0.49775400       0.80262600 
Pb      12.48038767       6.61770191      12.50880402       82      -0.14432000       0.01825600      -0.06331600 
Pb      11.65906929      18.42388948       0.33966553       82      -0.60424600      -0.27223000       0.10196200 
Pb      11.92293874      19.33217988      12.78600653       82       0.30682600      -0.04263500       0.17803200 
Pb       6.14828993       0.28228673      -0.12122992       82       0.43559700      -0.06760200       0.26101400 
Pb       6.36811170      -0.04092589      12.47281926       82       0.44913900       0.11045000       0.43017000 
Pb       5.23560450      12.06072182       0.24441644       82       0.60046300       0.00333800      -0.06887400 
Pb       6.02580624      12.77089306      12.80321287       82       0.70125600      -0.97734600      -0.25235200 
Pb      18.98751385       0.65957822      -0.18009320       82      -0.74989900      -0.38590900      -0.22883600 
Pb      18.58812161       1.00744002      12.51174767       82      -0.03596800      -0.09945600       0.82723500 
Pb      17.90872924      12.96545921       0.53208039       82       0.02570100      -0.26680000       0.00463200 
Pb      18.30836191      13.39763459      13.06995198       82      -0.50886100      -0.28730800      -0.06061200 
I      12.50091535       3.68066009       5.99511595       53      -0.17988200       0.16355200       0.02134100 
I      11.76753171       3.58002210      19.19017113       53       0.13928200      -0.79026200       0.10996000 
I      11.18162554      15.88973547       5.78292879       53      -0.10094900       0.90808100       0.04253500 
I      11.63063250      16.23240306      20.15371241       53      -0.52653800      -0.71719200      -0.31429100 
I      23.91665649       4.29212365       5.95698673       53       0.01734800      -0.14469300       0.10258800 
I      23.90819934       4.08507036      18.65753978       53       0.26913700      -0.12856200       0.38678100 
I      24.51776276      16.49995207       7.24399275       53      -0.33304400      -0.53044300       0.12941300 
I      23.83198274      16.68137983      20.27605010       53       0.01173400      -0.51880600       0.14007800 
I       4.81999688       9.37160468       7.46271162       53       0.39149100      -0.06772900      -0.20880700 
I       5.47689428       9.91175188      18.61148781       53      -0.06343200      -1.23511200      -0.36080100 
I       5.61687732      21.99786658       6.81240531       53      -0.14777700       0.11595600       0.04933300 
I       4.73071004      21.98650568      17.88350963       53       0.03410100       0.65929800       0.03564900 
I      17.23912372       9.88716208       7.20156583       53      -0.00260400       0.10586100      -0.06731400 
I      17.41594230      10.12001904      18.57876696       53       0.25018700       0.64314900       0.37301500 
I      17.71771124      22.48871737       6.30289680       53       0.10770000      -0.41981800       0.15573800 
I      17.92578567      22.41039816      20.25943366       53      -0.15444900       0.39645600      -0.01868900 
I       0.39298901       9.93398695       6.67491815       53      -0.00000300      -0.48706400      -0.05366900 
I       0.61385430       9.73896719      18.29022497       53      -0.25151600       0.28930800       0.33058300 
I      -0.04952127      22.30830099       6.72981178       53      -0.09539900       0.09318500       0.04638900 
I       0.27261571      22.49257410      18.88477811       53      -0.12679200      -0.50909100       0.33698100 
I      12.29134768      10.12617695       7.61839413       53      -0.11131500      -0.06068500      -0.34522000 
I      11.87858053       9.63867865      18.42021673       53       0.17105200       0.15306600       0.17807100 
I      12.93882326      22.11716424       7.63260327       53      -0.29731300      -0.49163600      -0.12664600 
I      11.68393457      22.15344785      19.75437567       53      -0.16264700       0.35244700      -0.02294800 
I       7.01987523       3.69985515       5.87762400       53      -0.21930800      -0.53308200       0.34891800 
I       6.64768938       3.31479666      19.07289139       53      -0.07650000       0.80678100       0.30276100 
I       6.37324946      15.69001892       6.66574552       53       0.26744600      -0.00093100      -0.07415600 
I       5.79493118      15.70286137      19.47023163       53      -0.05817000       0.48077700       0.08930100 
I      19.03887490       3.89360264       6.44942907       53       0.02975900      -0.11620700       0.06372900 
I      18.60966458       4.05889776      19.34078207       53       0.05905800       0.10078800      -0.02058500 
I      18.83798244      15.93465729       6.47888310       53      -0.04777500       0.73502100       0.11339900 
I      18.16218396      16.36726975      18.77553792       53       0.23097100       0.37294800       0.64013700 
I       2.91323368       6.02584031       6.30462658       53       0.01082900      -0.17615200      -0.05456400 
I       2.82691483       6.36936256      18.27837931       53       0.18440000      -0.22919900       0.30304000 
I       3.00049384      18.03364845       7.03352563       53      -0.42233000       0.14690400      -0.27351300 
I       2.16066959      18.16063426      18.80234422       53       0.53083600       0.21582400      -0.10636400 
I      15.57624060       6.40374992       6.73403062       53      -0.08347700      -0.20584500       0.23493300 
I      14.94601614       6.39363891      19.49212503       53       0.30408300      -0.07676100      -0.03554900 
I      14.78974568      18.96387703       6.60615023       53       0.73422600      -0.22469800      -0.18939500 
I      14.52512182      19.23338750      19.05535311       53       0.77277600      -0.20886900       0.14854700 
I       8.56219036      12.46764742       7.76866826       53       0.50670800      -0.14543100       0.06778600 
I       8.78565276      12.38371250      19.71300687       53       0.13177700       0.09075100      -0.09153200 
I       8.59367010      24.96208655       6.09477079       53       0.27506700      -0.05709800      -0.07426300 
I       8.26726073      24.66177093      18.52434252       53       0.28364800      -0.12713800       0.08396300 
I      21.35822614      12.94982301       7.05587655       53       0.12257300      -0.21923500      -0.05849000 
I      21.42579090      13.62503548      18.61301999       53      -0.38459800      -0.18229800       0.24636300 
I      20.88257447      25.33689871       6.82746329       53       0.09643100      -0.15464400      -0.07032900 
I      20.69064243      25.72197277      18.32187213       53      -0.04889600      -0.02201200       0.22889600 
I       9.21133148       7.31717322       6.02688382       53      -0.89723900      -0.21323200       0.23815100 
I       8.83091430       6.65089391      18.63661689       53      -0.05129200       0.21610400       0.21767000 
I       8.93161363      19.59756301       6.26410953       53      -0.20271700       0.16926500       0.17206400 
I       8.45713981      18.47085744      19.56601319       53      -0.02361300       0.34027100      -0.12273200 
I      21.54732161       8.09422490       5.81949469       53      -0.24620800      -0.00616000       0.05042500 
I      21.40809395       8.04432983      19.29182442       53       0.07359500      -0.02203100      -0.25579400 
I      21.23136103      19.48692497       7.38633635       53       0.01746700      -0.20650500      -0.32065100 
I      20.99236076      19.63630939      20.88217634       53      -0.14075800      -0.03088600      -0.16626800 
I       3.36622975       1.29556441       6.68249240       53       0.06001700      -0.08209700      -0.07830300 
I       3.31608548       1.00084115      19.70845900       53      -0.14706100      -0.15547500      -0.10030000 
I       2.98017155      13.32411829       5.70889851       53      -0.45348600      -0.02577200       0.10247900 
I       2.47059783      13.24853636      19.15482494       53       0.33180100       0.16099000       0.23898900 
I      15.66067781       0.64192605       6.31804823       53       0.11981800       0.23094400       0.19013600 
I      15.20463004       0.44382150      18.99022582       53       0.34877200      -0.28207500      -0.29923500 
I      15.25505757      13.76677556       5.63960494       53      -0.23030300      -0.24240900       1.14054700 
I      14.69079853      13.76100118      19.48073883       53       0.57726100      -0.32133200      -0.51552800 
I       0.73368832       9.34754345       0.51069999       53      -0.30580600       0.34654400       0.11940700 
I      -0.02774079       9.26035241      12.96223424       53      -0.18993800       0.71643300       0.29133800 
I      -0.23581035      21.76107891       1.24797637       53      -0.02401500       0.62845200      -0.09004000 
I       0.12679307      22.03877690      12.30985258       53      -0.29982200      -0.18347000       0.18416200 
I      13.64949874       9.27695230       0.20977987       53      -0.21007000       0.00262500      -0.12239400 
I      12.87741641       9.79285624      12.65660759       53      -0.45874600      -0.19957900       0.38101900 
I      11.71228083      22.24902207      -0.06615815       53      -0.16366000      -0.29210800       0.23493500 
I      11.56493575      22.33738706      12.40287349       53       0.21078800      -0.00622600       0.11224000 
I       5.92226742       3.41086344       0.64218693       53       0.20944800      -0.12455200      -0.01332700 
I       7.17332567       3.45732911      13.11851053       53       0.01823500      -0.28160700      -0.11607200 
I       5.53260851      15.45055821       0.80367400       53       0.12030100      -0.41284000      -0.15092500 
I       6.16709464      15.67857041      12.94395421       53       0.11990300       0.16257300      -0.30189600 
I      18.35644445       4.03112679      -0.47965927       53      -0.54077800      -0.43335400       0.67418700 
I      19.31190237       3.97966742      13.14468410       53       0.20405400      -1.36770800      -0.23892000 
I      17.78987059      16.04596505       1.23635362       53       0.01121100       0.01678100       0.04554300 
I      18.20580917      16.35020553      12.65404844       53       0.25896200      -0.23698800      -0.04822500 
I      11.38186191       3.65429379      13.57211110       53       0.11782600      -0.54726000      -0.64523400 
I      11.10651281       3.93070879      25.00471789       53       0.11707000      -0.07676000       0.08247100 
I      11.37833518      16.19266670      12.98634608       53       0.44179800      -0.42833700       0.20890900 
I      11.57599488      15.65581942      25.83104553       53       0.10379800       0.66409000      -0.47530900 
I      24.17413343       3.36201967      13.44656597       53      -0.11998100       0.85255200      -0.00478000 
I      24.07536637       4.13615009      25.64651739       53       0.03610100       0.02968100      -0.24767800 
I      24.72493774      16.27912280      13.13105415       53      -0.24245400      -0.77326300      -0.07151600 
I      23.85638661      16.66514109      25.38529470       53       0.17371000      -0.20524600      -0.19271200 
I       5.58414186       9.60760387      12.54813543       53       0.14032800      -0.19150100      -0.01689300 
I       4.67157908       9.79432125      25.17411212       53      -0.08423800       0.47728500       0.11493800 
I       5.47312808      21.35690714      13.94350264       53      -0.14561500       1.23708400      -0.34040300 
I       5.36226129      22.44069420      25.38249317       53      -0.36494800       0.10207000      -0.10428900 
I      18.41957816       9.80339556      13.33220749       53      -0.37977300       0.51307200       0.20622600 
I      18.24658905      10.50089664      25.54952587       53      -0.00393500      -0.08869400       0.04574000 
I      17.51508316      22.29916536      12.91638669       53       0.13443800       0.91721700       0.37444100 
I      17.07570245      22.78598907      25.45815005       53       0.33022400      -0.00746700       0.06245600 
I       9.35647856       7.28841617      13.14671468       53      -0.21217400      -0.07751100      -0.00286400 
I       8.87945241       7.46235048      25.25258610       53       0.48584900       0.08100900       0.10102000 
I       9.07049669      19.12357688      12.47755402       53      -0.95744500       0.17959600       0.07413200 
I       8.44141796      19.40412994      24.73532033       53       0.04924100      -0.09986800      -0.01398100 
I      21.57654980       7.87806031      13.37814362       53       0.33128900      -0.45149400      -0.05250100 
I      21.50374020       7.79655506      25.64552450       53       0.14713300       0.04588700      -0.05896500 
I      21.36866033      19.71396764      12.95521581       53      -0.39952600      -0.05599600      -0.13563100 
I      21.20256407      19.57285056      25.21904562       53      -0.45080600       0.05540400      -0.18475000 
I       3.42674104       0.32151788      12.32152984       53       0.18033400       0.32600700       0.04446200 
I       3.39338648       0.94540921      25.06886493       53      -0.78374800       0.04013200      -0.17551900 
I       3.01348133      12.47753941      13.26482378       53      -0.08569100       0.07253500       0.14500700 
I       2.61624525      13.77135847      25.38383650       53       0.65552000       0.14862200       0.03948900 
I      15.38881066       1.76656795      12.78653510       53       0.39450400      -0.26177200      -0.26121700 
I      15.83556900       1.06630233      24.89650077       53       0.05424600       0.20786800      -0.19465900 
I      14.95811781      13.30478014      13.04575156       53       0.48956700       0.17097800       0.10151300 
I      15.11787315      13.81787087      25.34127817       53       0.03330000       0.18481300      -0.03352400 
I       2.64921627       5.60215712      -0.41812101       53      -0.05260700       0.10581200       0.37432500 
I       2.71756172       6.46556074      12.83826314       53       0.91206600      -0.45199300      -0.29880100 
I       2.09459710      18.35371982       0.42929793       53       0.38180800      -0.00982400       0.26695700 
I       2.70766876      18.41252566      12.79750760       53       0.56685500       0.18835300       0.18030300 
I      14.56962604       4.80051369      -0.11743939       53       0.30812200       0.17484200       0.17591500 
I      15.49348353       5.99548099      12.27050753       53      -0.18436400       0.06922100       0.11484500 
I      14.34925136      18.99409715       1.15965226       53       0.73024100       0.11300000       0.11351100 
I      15.07187277      18.75985402      13.74645133       53      -0.82237600      -0.03333200      -0.05710000 
I       8.77973333      11.56749781       0.09262278       53      -0.00381000      -0.00726900      -0.04523600 
I       9.16376388      12.03754350      12.40717994       53      -0.44124800      -0.10869300      -0.26692000 
I       8.09369535      25.15469804       1.11467592       53       0.31623500      -0.27609800       0.17086600 
I       8.54076810      24.41753555      14.12443396       53      -0.18119800       0.95302700      -0.64570300 
I      21.26210777      13.02398860       1.06251082       53      -0.50186100      -0.11255100      -0.52323500 
I      21.09942728      12.55701214      12.88689859       53       0.78956100       0.33578100       0.17463500 
I      20.75827922      24.35754213       1.07859479       53       0.14884500       0.02305500       0.09487100 
I      21.10525910      25.24628607      12.57958888       53      -0.51998600      -0.33147700       0.11053200 
I      12.10228336      13.42896734       9.87909916       53       0.21516900       0.21590800      -0.16002900 
I      12.21960107      12.42496255      22.18658144       53      -0.33462100       0.24392700       0.10994300 
I      11.62407547      25.47966187      10.09416573       53      -0.12791200       0.15115600      -0.17246800 