320
Lattice="25.4125399945 0.599608963562 -0.12299160056 -0.873002508893 25.6710752812 0.00493259286882 -0.164606820757 -0.0164733729679 25.5027682722" Properties=species:S:1:pos:R:3:Z:I:1:forces:R:3 energy=-101583.06892 stress="-1090.704185 368.009517 739.574389 368.009517 -1110.285898 2.241082 739.574389 2.241082 -863.176332" pbc="T T T"
Cs       2.64527767       8.94453587       3.48670266       55       0.02939400       0.01478400      -0.03673600 
Cs       3.50784986      10.24916355      16.33079377       55      -0.40237800      -0.06608300       0.16053700 
Cs       1.74441766      22.77083263       3.18945024       55       0.23826500       0.14260000      -0.42781300 
Cs       2.66402648      21.73032918      16.17616318       55       0.18948100       0.24998300      -0.04007700 
Cs      14.66320657      10.06066613       3.50618219       55       0.45144200      -0.39331400      -0.08367400 
Cs      14.94531419       9.23626874      15.70089720       55       0.67882600       0.45752200      -0.02817500 
Cs      15.24052120      22.24634581       3.00706923       55       0.11262100       0.15250600      -0.02920200 
Cs      15.24086128      22.56904744      16.09313004       55      -0.12688500      -0.09257700      -0.04905700 
Cs       9.37296453       3.46295582       2.92310907       55      -0.10176500       0.05772300      -0.03028000 
Cs       9.34127695       3.30018522      15.97989952       55       0.04214800      -0.14748200      -0.13759900 
Cs       9.52215687      16.17150027       3.61651959       55      -0.05020000      -0.01818000      -0.17226900 
Cs       8.66590237      17.05016014      15.86792520       55       0.08212100      -0.01472400      -0.04025900 
Cs      22.86312813       3.24822890       2.84243762       55      -0.42375900       0.10335300       0.14939900 
Cs      21.52957215       4.54822639      15.22209462       55       0.25293400      -0.07030700       0.34159600 
Cs      22.18724492      16.45518236       2.91327263       55       0.59815800      -0.00077800       0.45235900 
Cs      21.17230272      16.51938439      15.35069004       55       0.08230200      -0.04649700       0.36026900 
Cs       9.00682733       3.77688983       9.19494403       55       0.11516400      -0.14446200      -0.08601500 
Cs       9.10613951       3.53768039      22.17131290       55       0.33276800       0.18927800      -0.19138900 
Cs       9.49960476      16.76614987       9.74623440       55      -0.22926100      -0.00150700      -0.21690600 
Cs       9.26199556      16.13199590      22.46757186       55      -0.00180800       0.05245500      -0.27125300 
Cs      22.04800105       3.39377063       9.74164188       55       0.15017900       0.32679800       0.02321800 
Cs      22.19357252       4.26155302      22.67033464       55       0.10524900      -0.30129100      -0.17522700 
Cs      22.04674881      15.84552280       9.01765028       55      -0.06437100       0.40068800       0.07146300 
Cs      22.06359300      16.34228795      22.48940912       55      -0.02156500       0.05479400      -0.10721000 
Cs       3.26857994      10.51860309       9.56765967       55      -0.04963500      -0.29704300       0.31751400 
Cs       2.55117669       9.71951214      22.67296503       55      -0.05533000      -0.08850500      -0.01112500 
Cs       1.63552287      23.19100526       9.66004738       55       0.24851600       0.09976100      -0.18309900 
Cs       0.80151511      22.67285200      22.54036007       55       0.14548400      -0.11974000      -0.21032300 
Cs      14.93719996       8.92962704       9.49815423       55       0.42999000       0.00440300       0.30940700 
Cs      15.63436619      10.27348049      22.94281008       55      -0.12056000      -0.06227000      -0.26954900 
Cs      14.83948802      22.60751373       9.53727688       55       0.17788500       0.04750100      -0.16928700 
Cs      15.32174490      22.12299431      22.11745394       55       0.13910500      -0.00424000      -0.24766900 
Cs       3.21037435       3.41710403       9.95248024       55      -0.06372200       0.05628700      -0.15969500 
Cs       3.67644241       3.19969219      21.71977392       55      -0.36498500       0.43159200       0.49464300 
Cs       3.36352665      16.21022831       9.97094846       55      -0.45812300       0.02535800      -0.21591400 
Cs       2.64367148      15.81641406      22.10149018       55      -0.07067100       0.18665800      -0.14710200 
Cs      15.99906971       3.04771281       9.16666713       55       0.21104200      -0.52562100       0.51282300 
Cs      15.65483917       4.08168243      21.80492485       55      -0.08124300      -0.11120600      -0.05917100 
Cs      14.77073412      16.81190648       9.25720773       55       0.09292000       0.06978100       0.09070000 
Cs      14.77509959      15.74471647      22.30938088       55       0.16205600       0.15822700       0.00512100 
Cs       8.46162957      10.17692263       9.64144630       55       0.32819000      -0.19263900       0.00980800 
Cs       9.53523146       9.68197288      21.47900291       55       0.15844300      -0.01748200       0.16750000 
Cs       9.31576628      22.14237270       9.31011189       55      -0.14588200       0.41771500       0.00274600 
Cs       7.72731373      23.38092942      22.58312640       55       0.00350100      -0.09166200      -0.11336100 
Cs      21.08265842      10.08458251       9.64106458       55       0.04621400      -0.08588100       0.10069500 
Cs      20.79947801       9.62800585      21.67827768       55       0.01756900       0.48273500       0.46465000 
Cs      21.31116487      23.41467331       9.79909098       55       0.05428600       0.15745300      -0.19446200 
Cs      21.50741861      22.53293491      22.44704236       55      -0.19002900       0.15898900      -0.21035900 
Cs       8.86705301       9.85390373       2.76914574       55      -0.15069900      -0.13975200       0.10565800 
Cs       9.74255603       9.66142256      15.66243487       55       0.02688000      -0.05701700       0.51554300 
Cs       8.89714332      23.56359499       3.58517209       55      -0.15015800      -0.04031300      -0.15564000 
Cs       8.24943191      22.79808929      15.73409974       55       0.26869100       0.31350300      -0.03927600 
Cs      20.46682395       9.35673109       3.60510373       55       0.17664500      -0.00954700      -0.07360200 
Cs      22.33608827      10.37695191      15.85448376       55      -0.01321500       0.12610900      -0.07009900 
Cs      21.09853393      22.54077649       2.45449093       55       0.02092100       0.27977600       0.05142300 
Cs      20.89793158      23.34014308      16.11514081       55       0.01237700      -0.10276700      -0.08043600 
Cs       3.16125762       3.41283771       3.36081397       55       0.06663500       0.03028900       0.09422800 
Cs       2.64297150       3.34408083      17.45906862       55       0.09978400      -0.05562400      -0.49016600 
Cs       3.74911363      15.79989706       3.21820701       55      -0.28131800       0.03011400      -0.40294200 
Cs       1.48944872      16.22634773      15.30756976       55       0.11323700      -0.42042800       0.14159800 
Cs      15.01471949       3.76912261       2.53723456       55       0.38135100       0.08860700      -0.06817500 
Cs      15.77775245       4.13384100      16.38634121       55      -0.00495800      -0.24349900      -0.16272400 
Cs      15.49816218      16.21829892       3.58222047       55       0.09071000      -0.10207500       0.05773800 
Cs      14.79174548      15.99458824      15.91897035       55       0.13963000       0.52993800      -0.38132800 
Pb      -0.46198714      -0.07893537       6.04182047       82       0.16961100      -0.05580000       0.34728300 
Pb      -0.48248095       0.36435750      18.77651311       82       0.19056400      -0.64874000       0.45979300 
Pb      -0.41737866      12.26592479       6.30932465       82      -0.32901300      -0.22538300      -0.03760300 
Pb      -0.41662216      12.93976754      19.19160543       82      -0.16345400       0.04476400      -1.10190800 
Pb      12.90627846       0.15162939       6.27499975       82      -0.07798800       0.02819300      -0.85656500 
Pb      12.85007962      -0.01631275      19.12579224       82      -0.33934800       0.94397300      -0.04709400 
Pb      12.65649592      13.27200023       6.54062310       82      -0.09131500       0.14896100       0.18899200 
Pb      12.10094022      13.32257641      18.42442017       82       0.12950600      -0.32567100       0.51604700 
Pb       5.49454260       6.80005964       6.97020782       82       0.33035900      -0.19160500      -0.62704200 
Pb       6.13203190       6.66811005      18.83908218       82       0.13170500      -0.00411800      -0.09553100 
Pb       5.52710465      19.51144367       5.93583467       82      -0.47958900       0.41551000       1.01931300 
Pb       5.68114532      19.57240060      19.64713409       82       0.36798500       0.36430700      -0.42365200 
Pb      18.06766630       6.57959703       6.83230045       82       0.59653700      -0.29666900      -0.27979600 
Pb      18.99773717       7.14397588      19.12551760       82      -0.39301700      -0.47174800      -0.58750600 
Pb      18.67642758      19.74158110       6.49815323       82       0.25045600       0.16948200       0.25178700 
Pb      18.69432471      19.17212887      18.98291659       82       0.08965500       0.92999800       0.32867700 
Pb      -0.68369505       6.12483279       6.72112328       82      -0.37947600      -0.27978000       0.33126500 
Pb      -0.36098747       6.58306224      19.17419610       82       0.39397800       0.09948700      -0.06284300 
Pb      -0.46069525      19.10966093       5.97918596       82      -0.31655400       0.17761200       0.46520500 
Pb      -0.37087150      19.30775485      18.53778355       82      -0.35624400      -0.14996700       0.62875900 
Pb      12.15198338       6.89949774       6.65784530       82      -0.49995300       0.37699800      -0.58121400 
Pb      12.43149632       6.85824936      19.27196455       82       0.13729400      -0.28673800      -0.81588900 
Pb      11.78163340      19.75781156       5.54634920       82       0.26433200      -1.13916500       0.31906500 
Pb      11.93156341      19.40256870      18.98340440       82       0.18843900       0.48164900      -0.29133000 
Pb       6.07122467       0.21562123       6.60797406       82      -0.49845400       0.06861600      -0.26055300 
Pb       5.85244361       0.41244012      19.44374371       82      -0.16743400      -1.08322900      -0.78880900 
Pb       6.16986067      13.35334389       6.66193514       82      -0.04631200      -0.48094400      -0.28587500 
Pb       6.30006526      13.15320753      18.95370771       82      -0.43564300       0.34759100       0.23670800 
Pb      19.01197179       0.43945189       6.04238958       82       0.41078600       0.41627300      -0.07645200 
Pb      19.10536189       0.14751378      18.77456486       82      -0.32587400       0.12223900       0.11795500 
Pb      18.91825749      13.14525093       6.54704985       82      -0.08643200       0.01295000      -0.70919600 
Pb      17.92933558      13.54321153      19.04116580       82       1.08892200      -0.82536700       0.04949000 
Pb      -0.18929755       0.21460497      -0.26820019       82       0.79992100      -0.57839400      -0.34814500 
Pb       0.03146251       0.63508794      12.69286028       82       0.13175600      -0.19435500       0.08800300 
Pb      -0.04091920      12.59886836       0.56593051       82      -0.43938000      -0.15156900      -0.36675200 
Pb      -0.85704074      12.42680267      12.50925381       82       0.49842200       0.71618800       0.44199100 
Pb      13.11463515       0.41484147      -0.37994350       82       0.36775800      -0.38822800      -0.11012900 
Pb      12.70295946       0.01060086      13.02560556       82      -0.16318500       0.28519700      -0.34208100 
Pb      12.12944317      13.18004976      -0.27616670       82       0.31588900      -0.63481300      -0.38575300 
Pb      12.15344184      13.30182977      12.43867956       82       0.34625000      -0.43983900       0.18138300 
Pb       5.59198982       6.39447955      -0.27893292       82       0.31868500       0.31317200       0.27810600 
Pb       6.02532132       7.00364039      13.01917683       82       0.53123600      -0.13834700      -0.19900800 
Pb       6.55467529      18.90357670       0.14594427       82      -0.30444500       0.80500300      -0.63061400 
Pb       5.65554342      19.67006693      12.42202772       82       0.22773300       0.33639700       0.42213200 
Pb      18.66194906       6.82026394       0.11860333       82      -0.47646300      -0.70276400      -0.05341000 
Pb      18.87399800       6.88206065      12.62921744       82      -0.56844400      -0.12922000       0.28678500 
Pb      18.91571336      19.03627783       0.10690193       82       0.28072200       0.62998900      -0.46598000 
Pb      18.83981588      19.26885231      12.27163569       82      -0.41263500       1.05888500      -0.03213200 
Pb      -0.79277922       6.36654372       0.26414407       82       0.38826900       0.14511400      -0.07300700 
Pb       0.17187632       6.51103944      12.71918794       82      -1.35276200       0.21941500       0.40605100 
Pb      -0.16504406      18.86183061       0.10114542       82       0.38800600       0.42294200      -0.12422500 
Pb      -0.13884332      20.05324859      12.49885124       82      -0.12785800      -0.33599600      -0.24673600 
Pb      12.24722060       6.44933791      -0.14120204       82      -0.12235300       0.37219400       0.10046900 
Pb      12.28426313       6.52497166      12.44965718       82       0.29697000       0.28232400       0.48586000 
Pb      12.68900443      19.37375939      -0.44396211       82      -0.25573100       0.71798900      -0.46352900 
Pb      11.98453697      19.45443678      12.93350340       82       0.25204700       0.21849200      -0.58919500 
Pb       6.46075376       0.24961597       0.20632813       82      -0.56558700      -0.59848600       0.12994600 
Pb       6.29895084       0.34272944      12.52269525       82       0.10625400      -0.25912800       0.59498800 
Pb       6.24746151      12.79636443      -0.35654268       82      -0.18940900      -0.39821700       0.28296800 
Pb       6.08133971      13.20913173      13.46562259       82      -0.09332400       0.15332200      -0.07035300 
Pb      19.18946582       0.45504384      -0.35002670       82      -0.20592600      -0.05166200      -0.04014900 
Pb      18.83310358       0.07746501      12.35868728       82      -0.02221900      -0.02011000       0.61182600 
Pb      18.53563998      13.12701075       0.39143371       82       0.56568800      -0.32037300      -0.33673600 
Pb      18.02373698      13.41137498      12.57787584       82       0.30254600      -0.65198100       0.19847000 
I      12.92521168       2.95043216       5.27951427       53      -0.62310000       0.27999100       0.31084400 
I      12.41267017       3.43843365      18.83909606       53       0.03340300       0.40363700       0.06453600 
I      12.40152797      16.49333039       6.24572246       53      -0.14649800      -0.28500300      -0.01864600 
I      11.40225009      16.43590707      18.53036830       53      -0.05691700      -0.30063900      -0.09377000 
I      24.56200731       3.51891572       6.73944477       53      -0.03865300       0.26239700      -0.11258100 
I      24.81843174       4.07362272      19.10850983       53      -0.02307300       0.09303400       0.03927100 
I      25.02524073      16.65792333       6.25209666       53      -0.05752100      -0.14804200      -0.12432000 
I      24.45722416      16.76854726      19.15631285       53       0.06621900       0.37995100      -0.03031200 
I       5.80882263       9.90434606       6.70640879       53       0.06028600       0.34305000      -0.05887800 
I       6.66939798       9.86659661      19.00617959       53      -0.18740100      -0.26889200      -0.36065100 
I       4.87834724      22.44215141       6.67481640       53       0.17768300       0.21084300      -0.32879300 
I       4.11902934      22.92703768      19.62470195       53       0.42084700      -0.29989200       0.03993600 
I      17.96645544       9.55423310       7.25727382       53      -0.07023600       0.44128600      -0.06686300 
I      17.68200893      10.16053254      19.45710186       53       0.19107100      -0.04771800      -0.00732500 
I      17.76243745      23.16153562       6.64954070       53      -0.13500900      -0.97265800       0.18075500 
I      17.73485459      22.63495779      18.99492436       53       0.17266800       0.25210700       0.03803800 
I      -0.30726236       9.09180178       6.00364667       53      -0.22892400       0.76132300      -0.10854400 
I      -0.17906651       9.65262420      18.70332037       53       0.10422500       0.70144600       0.19315900 
I      -0.21518498      22.75815363       6.18250893       53      -0.17952000      -0.35714000       0.22913100 
I      -1.45884979      22.61917052      19.06187873       53       0.27873400       0.12461100       0.02307000 
I      12.79588951      10.10873487       6.91656500       53      -0.23533300      -0.45256400      -0.30650700 
I      13.02841937      10.08860989      19.61670371       53      -0.26274500      -0.09872900      -0.26716100 
I      12.26624801      22.46067614       6.18603462       53       0.10699600       0.85823300       0.13295200 
I      12.52820092      22.88578732      19.53339098       53       0.23180200      -1.03038500      -0.00954700 
I       5.77028892       3.42943303       7.08877645       53       0.20753000       0.05990900      -0.09035700 
I       6.36018737       3.39499015      18.90453943       53      -0.11815400       0.65732800      -0.09481700 
I       5.17839166      16.24974656       6.40897393       53       0.09459900       0.09207700       0.38827800 
I       6.69336989      16.43955372      19.36488766       53      -0.04566800      -0.32114100       0.33693100 
I      19.40511977       3.65401027       6.62342027       53      -0.18942400      -0.45805100      -0.31354800 
I      19.59125054       3.83013011      18.52937881       53      -0.50859200       0.66273600       0.08231700 
I      19.39150582      16.15514091       5.58669633       53      -0.02058500       0.05174900       0.14657200 
I      17.90685882      16.48843150      18.20655027       53       0.13112800      -0.52593200      -0.16693900 
I       2.58153866       6.88068646       7.52162015       53      -0.07693400      -0.09132200       0.05494900 
I       3.07563079       7.04845708      18.61504530       53       0.02482100      -0.06292100       0.31244600 
I       2.36467511      19.69258038       5.19456461       53       0.57447200      -0.35733300       0.04629600 
I       2.99353261      18.72602914      18.70421568       53      -1.06507600      -0.28729100      -0.38208700 
I      15.15357273       5.70620090       7.23048711       53      -0.20404000       0.52404000      -0.30229400 
I      15.63771341       6.80352981      19.02839064       53       0.08801300      -0.15191300       0.03436500 
I      15.22200440      19.18311938       6.21603965       53       0.20014800       0.25513700      -0.14638600 
I      15.00221996      19.07721190      18.63595851       53      -0.02365000       0.12068000       0.14530200 
I       9.09398699      13.73082754       6.26349367       53       0.11697500      -0.09582700       0.11354800 
I       9.05792007      13.00554007      17.95318751       53       0.03789900      -0.13022100      -0.14703800 
I       8.19064631      25.60817307       6.75172221       53       0.82892200       0.00766600       0.00719700 
I       7.96024118      25.83930991      18.30468061       53       0.18462100      -0.06873200       0.49358700 
I      21.53385731      11.63083883       6.19546653       53       0.29795000       0.34212200       0.17003800 
I      21.03382327      13.69815345      18.97583150       53       0.19515300      -0.06205500       0.07660800 
I      21.08178096      24.99647009       5.55999092       53       0.42476200       0.16683700      -0.04270300 
I      21.10563290      26.89767381      17.86518014       53       0.14353000      -0.40151800      -0.19417800 
I       9.06350902       7.61641318       6.40937746       53       0.35477300      -0.15258500      -0.11797600 
I       9.45802821       6.22802561      18.19729088       53      -0.33746700       0.42857100       0.38212700 
I       8.83147588      19.55411382       6.52695759       53       0.03774600      -0.02260700       0.14276700 
I       8.78236411      19.84660319      19.36167924       53       0.33518100       0.23278800       0.07278600 
I      21.60730387       6.67484416       6.82866174       53       0.31705100       0.41651900      -0.16248300 
I      22.09344931       7.72539622      19.00385161       53      -0.26614900      -0.11753800      -0.30800200 
I      21.71147428      20.13068386       7.62022540       53      -0.27101700      -0.07344100      -0.44209800 
I      21.70481454      20.27351787      19.03960621       53      -0.07673200      -0.36390100      -0.01698000 
I       2.96661503       0.51899899       7.12066529       53      -0.57709600       0.02182700      -0.31692100 
I       2.54765199       0.09823544      20.71327612       53       0.29364500       0.19030800      -0.89964900 
I       2.45149667      11.86448014       6.35144057       53       0.56664600       0.28712900       0.32131500 
I       2.54567598      13.45016548      18.42508843       53       0.04485800      -0.04271900       0.22556000 
I      15.97941469       0.51504796       5.86094849       53      -0.37025300      -0.00160600       0.10618800 
I      15.71539852       1.05392605      18.85502413       53       0.41860400      -0.07411600       0.26412000 
I      15.68442878      13.17013599       6.77682837       53      -0.38282500       0.18222900      -0.02980700 
I      14.95685398      14.10265382      18.92566480       53      -0.26152400       0.04377000       0.53270300 
I       0.12547426       9.34755994       0.34292476       53       0.08511900       0.34226500       0.06266800 
I      -0.96167814       9.44120881      11.90563829       53       0.16496300      -0.03866700       0.13434200 
I      -1.47712368      22.58214484       0.10747500       53       0.68713300       0.05792900      -0.09218700 
I      -0.49748892      23.16021299      12.79968190       53       0.06575300      -0.63143100       0.11609200 
I      12.51874918       9.83383428      -0.85218548       53       0.08111800      -0.04712000       0.32743600 
I      12.93903385      10.31286390      12.12579949       53      -0.20777200      -0.16582400       0.33124800 
I      12.60734747      22.69404579      -1.18846834       53      -0.10088500      -0.08194100       0.29475900 
I      12.41400371      22.88685812      12.18640148       53      -0.21257300      -0.26576200       0.24518300 
I       5.93785530       3.32169430       0.26280657       53       0.00075000       0.30598300      -0.16285700 
I       6.68940795       4.10561368      11.90142551       53      -0.18740300      -0.74294900       0.55633800 
I       7.28339425      15.84365288       0.06769699       53       0.03540200       0.22189900       0.03464400 
I       5.83600692      16.09638407      12.45171549       53       0.37239100       0.43060600       0.22446800 
I      19.05707205       3.82817491       0.69226338       53       0.19088700      -0.42619300      -0.11645400 
I      19.00674275       3.64974890      12.85076374       53      -0.17606300       0.22293100       0.08378000 
I      19.54719728      16.25717172       0.80960258       53      -0.48887300      -0.35864500      -0.40895200 
I      18.63878818      16.44149900      12.78204256       53       0.08144800      -0.06749800       0.19045000 
I      11.92897466       3.65180820      12.17839432       53      -0.15642000      -0.47416400       0.07946100 
I      11.62964113       3.31502761      25.04490468       53       0.27395000       0.43811100       0.24366400 
I      11.53093375      16.41457844      12.75013686       53      -0.03750000       0.02370200       0.25486700 
I      12.34513678      16.25591552      25.56343371       53      -0.13507900      -0.04874100       0.05750300 
I      25.17520643       4.14532428      13.41600517       53      -0.17974600      -0.10237300       0.14462200 
I      24.98650575       3.84676509      25.33084932       53      -0.07707800       0.36850100       0.03114700 
I      25.24886219      16.54575864      11.59450620       53      -0.15251900      -0.06755800       0.15806300 
I      25.14424363      16.51021820      25.88282381       53      -0.25854000      -0.47461700       0.00763400 
I       6.06741840      10.13501592      13.85374577       53       0.24176700      -0.31288300      -0.07532000 
I       5.14221766       9.79823632      25.83873783       53       0.09018000      -0.04077200      -0.09685200 
I       4.61081431      22.66494498      12.87898114       53       0.08818300      -0.10936400      -0.28130800 
I       5.09919256      22.40326869      26.29840096       53       0.35284500       0.21912700      -0.07582200 
I      17.75397719      10.43367921      12.60137581       53      -0.01294600      -0.59022500      -0.30173000 
I      18.33005050       9.86343578      25.51616708       53       0.06977900       0.64969300      -0.02228500 
I      18.05446579      22.75295136      13.35287790       53      -0.14729200      -0.07513400      -0.47068700 
I      17.61867344      23.03343396      24.94735237       53       0.24760400       0.03631200       0.04095700 
I       9.22954753       7.32361248      13.16176793       53      -0.36573700      -0.21630000      -0.33611900 
I       8.63378847       7.06323999      25.47415824       53       0.32242900      -0.14834000      -0.08532000 
I       8.78180294      19.94185330      12.15386520       53      -0.02566200      -0.10444400       0.13606100 
I       8.90559763      20.00387111      23.86699059       53      -0.30027100      -0.41344800       0.65165100 
I      21.73408191       7.39013457      12.56267453       53       0.24487800      -0.00477200       0.03769400 
I      21.39951728       6.78659341      26.36030574       53       0.79976200       0.11731500       0.06087100 
I      21.44853089      20.85527927      12.40234891       53       0.42361300      -0.40039500       0.15214400 
I      21.86482785      19.99297280      25.16740748       53      -0.54843500      -0.54315400       0.15072700 
I       3.14028394       1.19762463      13.00549942       53      -0.14359800      -0.08817600      -0.13562900 
I       2.91564424      -0.46430521      24.72929111       53       0.05942700       0.35127700       0.47151500 
I       2.66100546      12.34441300      12.91038317       53       0.23384600       0.19223100       0.08748100 
I       2.63964510      13.05865542      24.75337208       53       0.42631800       0.03462100      -0.07880800 
I      15.63723552       0.63076114      12.53420629       53       0.12877100       0.19047600      -0.21878600 
I      15.89017690       1.89821641      24.99086626       53      -0.62279700      -0.53060600      -0.19069100 
I      15.23818925      13.97561502      11.66452919       53      -0.29845100       0.09855500       0.03379600 
I      15.35669938      13.41243883      25.70990346       53      -0.29609800       0.03224700      -0.06294000 
I       2.63149318       5.96271755       0.34462812       53      -0.18351500       0.09426600      -0.01336100 
I       2.91703727       6.63148493      12.34253614       53       1.06763100       0.09182900      -0.26756400 
I       2.87298698      18.77325215       0.92195663       53       0.18368500       0.04988400      -0.09178400 
I       2.79169587      18.87022544      13.22960769       53      -0.61518700       0.22648700      -0.04897000 
I      15.45416741       6.65387940      -0.41345539       53      -0.36947800      -0.10601000      -0.03727500 
I      15.38518548       6.10875303      12.32429893       53       0.06211800       0.09544600      -0.00669000 
I      15.77652203      19.63434703      -0.36153179       53      -0.28124200      -0.24755700       0.13375300 
I      14.96362378      19.05903022      13.43584361       53       0.29669600       0.01607600      -0.24178800 
I       9.38477697      11.94864555      -0.71647622       53      -0.42760000       0.13525800       0.46318600 
I       9.47616528      12.62534771      13.79805258       53      -0.58700900       0.40192100      -0.26063000 
I       8.56121639      26.25268400      -0.12767732       53       0.05171800      -0.32893600       0.16199600 
I       8.66558014      25.45475704      12.32626205       53      -0.33367900      -0.01800000      -0.01000000 
I      22.00073045      12.69096657       1.11035888       53       0.11138600       0.19873700      -0.04630200 
I      21.59220765      13.14425946      12.69311212       53      -0.34663400      -0.02315700      -0.11826200 
I      21.44040575      25.85817671      -0.09376289       53      -0.86786700       0.20253600       0.28221200 
I      20.85497786      26.15679439      13.16381037       53       0.51878300       0.01528000      -0.02237400 
I      11.35036318      13.21518667       9.53594136       53      -0.14836800       0.16304800      -0.03418700 
I      12.09577959      13.04471131      22.01050144       53      -0.05150000       0.30181400       0.53777600 
I      12.02170245      26.06778563       9.08339703       53       0.03766200       0.08237800       0.80766700 