320
Lattice="24.9327270901 0.904773910182 -0.146801816561 -0.557949496261 25.4307096063 0.1251933423 -0.177194598949 0.0885977908218 25.0581611926" Properties=species:S:1:pos:R:3:Z:I:1:forces:R:3 energy=-101583.126492 stress="1591.963977 -560.495053 906.357137 -560.495053 1016.912794 -48.813379 906.357137 -48.813379 921.755818" pbc="T T T"
Cs       2.67254148       9.83358533       3.63206623       55      -0.02356300      -0.00236200      -0.03214000 
Cs       2.31281822       9.30096676      15.94983306       55       0.08185300       0.01645800      -0.17696700 
Cs       2.01314055      21.66694263       3.03724701       55       0.42311300       0.37153500       0.18826600 
Cs       2.44717912      22.22621582      15.34933780       55       0.24842800      -0.27259700      -0.08435100 
Cs      15.38303637      10.14376997       3.40968143       55      -0.42978500       0.03947800      -0.78316400 
Cs      14.81880450      11.34148321      15.60626727       55       0.70948000      -0.47231900      -0.03374500 
Cs      16.30446990      22.41826679       2.83503005       55      -0.07918200       0.08345300       0.22785000 
Cs      15.16160478      22.24037350      15.59313453       55       0.02622200       0.13194500       0.23982100 
Cs       8.82602155       3.83487870       3.05793273       55       0.57084000       0.03875500       0.43267500 
Cs       9.14620315       3.23087718      15.79975986       55      -0.03132800      -0.07381300       0.08260900 
Cs       9.17335009      16.88576233       2.85951193       55      -0.00839400      -0.13785800      -0.05481700 
Cs       9.20615834      16.25255414      15.01698651       55      -0.09497400      -0.02198900       0.04249100 
Cs      21.63838257       3.82569050       2.38772314       55       0.10497500      -0.06247300       0.20190700 
Cs      21.80310186       4.92815016      16.30637240       55      -0.05215500       0.04190300      -0.24812100 
Cs      21.82859984      16.80460157       3.44915235       55       0.09655900      -0.07260600      -0.06125900 
Cs      22.01724480      16.99612386      16.17024854       55      -0.11945100       0.10218600       0.18177800 
Cs       9.26648203       3.75283450       9.16282641       55       0.05335100      -0.20461700       0.28416400 
Cs       8.56187813       3.86806135      22.40897149       55      -0.10043400       0.35563700       0.04443000 
Cs       9.05172196      17.03978695       8.74106956       55       0.25231200       0.02676500       0.34277500 
Cs       8.99993100      15.25526149      22.11879746       55       0.13121700       0.05563000      -0.16366000 
Cs      21.15555026       3.92402778      10.03033752       55       0.37702100       0.19772100      -0.14766800 
Cs      20.85739282       4.85982045      21.77518252       55       0.41897600      -0.18167900       0.14709100 
Cs      21.60168286      15.80306073       9.26121282       55       0.33131600       0.54037900       0.20523200 
Cs      20.64050620      16.46316036      22.42841901       55       0.28714800       0.16699200      -0.04012100 
Cs       2.50920583      10.52066484       9.72419470       55       0.43869900      -0.14402800       0.40704000 
Cs       3.28384246      10.33221937      22.24666078       55      -0.31452300      -0.29840600       0.12959700 
Cs       2.86655097      22.23426507       8.97380017       55       0.84232900       0.72309200       0.32794000 
Cs       2.11382647      23.08048708      21.86296075       55       0.09121400      -0.15808100      -0.06782500 
Cs      14.73120317       9.08064660       9.05981347       55       0.72668900      -0.21962100       0.73417700 
Cs      14.77492325       9.62388319      21.22040418       55      -0.02235000       0.09328900       0.04414900 
Cs      15.12335339      23.16964796       8.66028911       55      -0.04552300       0.02139100       0.15491100 
Cs      15.37122241      22.68098826      21.84285580       55      -0.00824800      -0.64623500      -0.33945200 
Cs       2.04966141       3.22649829       8.88762570       55      -0.06329300       0.41822000       0.35436200 
Cs       2.02127038       3.81242707      22.33305340       55      -0.14010000       0.24125100      -0.53282000 
Cs       2.63775507      16.14484097       8.95312722       55       0.19978000      -0.01374600       0.24876800 
Cs       2.27716605      16.16534784      21.01298091       55      -0.10107900      -0.12998600       0.40068400 
Cs      16.36026534       3.41019243       8.97329015       55      -0.23781900       0.21725600       0.03445000 
Cs      16.46706854       3.73942563      21.27880671       55      -0.44369800      -0.09363100       0.05729000 
Cs      15.16312206      16.66654869       9.48826051       55      -0.17356200       0.15358600       0.13613200 
Cs      15.54275767      16.30693745      22.94357903       55      -0.43333800      -0.00767300      -0.55071000 
Cs       9.45259459       9.30799106       9.72938235       55      -0.17736400       0.30077600       0.02533200 
Cs       8.64858325       9.85922875      21.55681203       55       0.19796700      -0.15462500       0.26365300 
Cs       8.75352128      22.40792098       9.17543340       55      -0.03253900       0.33333900       0.04407800 
Cs       8.59084895      22.84338446      21.91689595       55      -0.25989800      -0.13095600       0.13273200 
Cs      21.13686629      10.01161817      10.00891478       55       0.03456600      -0.01749700      -0.02121500 
Cs      21.56837245      10.82766162      21.94919614       55      -0.36419900       0.05182200       0.10521600 
Cs      21.62194307      23.83549537       9.55275673       55       0.02347000      -0.33580400      -0.06735000 
Cs      21.22043661      23.19861681      22.65576740       55       0.22397100       0.28294400      -0.64241200 
Cs       8.45779700       9.62605003       3.34036804       55      -0.04671300      -0.12583700       0.03057300 
Cs       9.25260540       9.28412140      15.19930587       55      -0.25462200       0.28972100       0.13883100 
Cs       8.38657423      22.56976393       3.70841375       55       0.18331400       0.06379500      -0.26900300 
Cs       8.55273219      22.31789239      16.30128401       55       0.07134300      -0.02548000      -0.61674200 
Cs      21.64306905      10.68632163       2.72588608       55       0.25941000      -0.15152600      -0.12401100 
Cs      21.25133843      11.43546715      15.69408283       55       0.53794700      -0.33277700      -0.15890300 
Cs      22.53786664      23.43191935       3.38087472       55      -0.33447200      -0.06172900      -0.03726300 
Cs      21.49692957      23.13534307      15.20254679       55      -0.20489900      -0.19230500      -0.25057800 
Cs       3.60216676       3.77962570       3.35734507       55      -0.07465800      -0.39262900      -0.18112700 
Cs       2.43292906       3.47551117      15.18067299       55       0.08502500      -0.13444300       0.30841500 
Cs       3.31152497      15.71572668       2.65243063       55      -0.10925300       0.02002000      -0.10154500 
Cs       3.51565130      16.15333047      15.06288524       55       0.20720800      -0.53245600      -0.24576900 
Cs      15.09194450       3.86145174       3.19319870       55       0.12571600       0.01710500       0.02756900 
Cs      15.44251986       3.47488322      15.70365428       55       0.10051400      -0.01073300       0.00600300 
Cs      15.06444183      16.26742035       2.49557683       55      -0.13046500      -0.12284200       0.16395300 
Cs      15.87555510      17.12513497      15.54177006       55      -0.13370100      -0.08441500       0.14714600 
Pb       0.03355313       0.23905130       6.70634314       82       0.31397000      -0.35832200      -0.90981100 
Pb      -0.60630397       0.08465325      19.04602898       82       0.95934100       0.28785000       0.64280500 
Pb      -0.21816118      12.51574936       6.46560062       82      -0.47070900       0.39532100      -0.18039000 
Pb      -0.24416033      12.99655929      18.78849712       82      -0.11924200       0.49836700       0.76471800 
Pb      12.13655990       1.30093255       5.90676768       82       0.76335300      -1.78299000      -0.19651600 
Pb      12.83197561       0.52062184      18.76164401       82      -0.58970100       0.09877600      -0.10705300 
Pb      11.97941030      13.00382435       6.38215313       82      -0.43759800       0.78624600      -0.13542700 
Pb      12.33596339      13.34428974      18.82392425       82      -0.45961100      -0.04836800       0.39114400 
Pb       5.59653784       6.89637959       6.81271690       82      -0.05379100      -0.37679200      -0.45078100 
Pb       5.62138920       6.18797855      18.90514201       82      -0.34611200       1.49363400      -0.05010900 
Pb       5.97793836      19.17939638       5.89191425       82      -0.13848200       0.58166500       0.07403000 
Pb       5.23664064      18.48026117      18.53653813       82      -0.00620800       1.17379200       0.09580400 
Pb      18.44758460       7.26913339       5.61591265       82      -0.39818500      -0.52673300      -0.09052700 
Pb      18.37796068       7.41772764      18.67852769       82       0.21371400       0.21622700      -0.09602400 
Pb      19.03095936      19.73150572       6.61694937       82      -0.40077700      -0.08890100      -0.72261100 
Pb      18.28277982      20.07693471      18.79735513       82      -0.83514200      -0.84526800       0.82461800 
Pb      -0.86265267       6.38575471       6.13247497       82       0.10603100       0.03195400       0.49342100 
Pb      -0.80393273       7.21740631      19.10874947       82       0.52239300      -0.58193200      -0.03464300 
Pb       0.06703649      18.99631249       6.42021585       82      -0.29645400      -0.01112800       0.32269600 
Pb      -0.68021932      19.14552584      19.06698790       82      -0.15449100      -0.23131500      -0.11169000 
Pb      12.19272286       7.16916680       6.15184880       82       0.12022300      -0.37454800      -0.54358000 
Pb      11.93037777       7.16365290      18.13556723       82       0.03424700      -0.32357900       0.80428900 
Pb      12.86705781      19.84351327       5.75730571       82      -0.18170100      -0.03265400      -0.47077000 
Pb      11.60140400      19.47616036      19.12329827       82       0.18894300       0.22694100       0.10530200 
Pb       6.29239576       0.48160689       6.51856197       82      -0.01027000       0.08760600       0.01262600 
Pb       5.84014196      -0.26813906      19.04726128       82      -0.49792600      -0.34152700      -1.12506600 
Pb       5.83590065      13.06088452       6.50492905       82       0.03013100       0.10123800       0.30690100 
Pb       5.89067114      12.69986213      18.87337836       82       0.21718400       0.77685000      -0.15511300 
Pb      18.99510083       0.79274180       6.12996222       82      -0.34702900      -0.00331900      -0.67525800 
Pb      19.44513276       0.60300114      18.12870999       82      -0.95950200       0.13570800       0.08670100 
Pb      17.91913560      13.43667189       6.58574881       82       1.21707100      -0.17528900      -0.57303400 
Pb      18.38120161      13.78172844      18.96894837       82       0.45208200      -0.49785500       0.31016000 
Pb      -0.01234854      -0.00624699       0.22798223       82       0.27886700       0.58314900       0.09232900 
Pb       0.26674560       0.28830003      12.94966509       82       0.10332300      -0.36550900      -0.44083300 
Pb      -0.02537907      12.95833639       0.06464068       82      -0.06671800       0.18916200      -0.19607400 
Pb      -0.10741050      13.21337319      12.68029864       82      -0.06565100      -1.67673200       0.92524000 
Pb      11.99578495       0.34735507      -0.68906554       82       0.50459200       0.50865000       0.14529400 
Pb      12.67525938       0.05416613      12.10662505       82      -0.53648700       0.55835400      -0.01239100 
Pb      12.03517430      12.41087913       0.38290307       82       0.93293600       0.54583300      -0.34287900 
Pb      12.28046669      13.48902987      12.53760646       82      -0.06806200      -0.56232800      -0.48497600 
Pb       5.68763757       7.06974168       0.15603816       82       0.06870100       0.08880300      -0.02349800 
Pb       5.30552852       5.99211079      12.53533152       82       0.74218700      -0.02006300       0.40913400 
Pb       6.01370550      19.43749918      -0.61253426       82      -0.35402100      -0.01811600       0.46300700 
Pb       5.78935728      19.09503302      12.35822340       82      -0.26421300       0.76622900       0.43381800 
Pb      17.97767866       6.18920594      -0.50733187       82      -0.00814200       0.81105900       0.62806600 
Pb      17.94981828       7.09028885      12.38991628       82      -0.15717900       0.15964200       0.45395900 
Pb      18.67461853      19.75354953       0.38732618       82      -0.04793600      -0.68332500      -0.71448600 
Pb      18.42214853      19.62887407      12.54880033       82       0.16797800       0.56931700      -0.28191300 
Pb      -0.36407759       6.61437274       0.07999332       82      -0.43566900      -0.14776400       0.21658500 
Pb      -0.72063756       6.48562303      12.52588979       82       0.45583700       0.41000900       0.29419200 
Pb      -0.26052220      19.37407017       0.06205521       82      -0.04958600      -0.76813700       0.15899100 
Pb      -0.68177001      18.96991731      12.66379330       82       0.61054200       0.82819400       0.27072200 
Pb      12.02552227       6.89050996      -0.25636835       82      -0.03660200       0.09481400      -0.25610900 
Pb      11.75721418       6.27483108      12.08210485       82       0.89516500      -0.58573500       0.98128500 
Pb      11.90837032      19.75423250      -0.33362486       82       0.20087400      -1.13502800       0.25144400 
Pb      12.12645878      19.70914352      12.54956094       82      -0.15299700       0.13198700      -0.01352300 
Pb       6.52020504       0.26805357      -0.17535205       82      -0.22474200       0.09631700       1.02094800 
Pb       6.06190275       0.24111594      12.82430371       82      -0.11659200      -1.03393300      -0.28868200 
Pb       6.36579618      12.84620601       0.34927919       82       0.07213300       0.21323900       0.03106100 
Pb       6.06577948      12.32381532      12.71153458       82      -0.09124000       0.31117400      -0.01815300 
Pb      18.33661871       0.11680801      -0.35892040       82       0.34241600       0.86517300       0.29831000 
Pb      18.91186560       1.17211699      12.26078627       82      -0.19924500      -1.27020900       0.25201300 
Pb      18.32478412      12.99599522       0.35925845       82       0.02578900       0.05401000      -0.43279100 
Pb      18.51332491      13.64095152      12.67947416       82      -0.16623600       0.08648300       0.11477500 
I      11.45890246       4.04362467       5.80173432       53      -0.04485100       1.30899500      -0.15363600 
I      12.68884023       3.82673216      18.15063391       53      -0.12278100      -0.28120100       0.11857700 
I      12.52580429      16.80668292       5.71540656       53      -0.18185100      -0.07802100      -0.00548200 
I      10.73412284      15.92293081      18.63484789       53       0.09285300       0.33565900       0.04526500 
I      23.93733988       4.22462722       6.12751826       53      -0.14874000       0.20770700      -0.14658600 
I      23.89215263       4.22872309      19.36146711       53      -0.16197500      -0.10284200      -0.00738500 
I      24.12946653      16.93076876       6.94830125       53       0.25811500       0.22972600      -0.33305300 
I      23.63906059      16.76132861      19.95558567       53       0.07522800       0.11396500      -0.56816200 
I       5.55549068      10.02087221       7.20979435       53       0.05302400      -0.23155800      -0.14581500 
I       5.33192861      10.08345217      18.08149053       53      -0.04065300      -1.24948900      -0.05001900 
I       5.17272421      22.41759660       5.47459427       53      -0.12074100       0.06662200       0.46721300 
I       4.69635606      22.07363281      18.80380849       53      -0.24031100       0.49667000       0.04506600 
I      17.48346281      10.16201468       6.01921056       53       0.14328000       0.18956000       0.98605300 
I      17.83062625      10.34065679      19.16296376       53      -0.08029300       0.27590600      -0.29912500 
I      18.31658059      22.82859589       6.74974975       53      -0.15743600       0.30907200      -0.17077500 
I      18.51945201      22.95519055      18.56265324       53      -0.01567100       0.92275000       0.15045000 
I       0.72156817       9.71209970       6.84295146       53      -0.33787800      -0.60913300      -0.30880500 
I      -0.54547713      10.02040837      18.19436776       53       0.30130300      -0.24495900      -0.12028100 
I       0.03477560      22.50734905       7.07378154       53      -0.40818100       0.09749000      -0.47925800 
I      -1.01800294      22.21064305      19.27368397       53       0.04972200       0.20185900      -0.13403400 
I      12.99561197      10.23479305       6.47406555       53      -0.27797100      -0.10684500      -0.08507600 
I      12.19571026      10.22713983      17.91931249       53       0.01515400      -0.08655000       0.17417800 
I      12.37966874      23.65177764       6.05579825       53       0.00854700      -0.61002600      -0.05623100 
I      11.59762751      22.64111149      19.98631551       53       0.28424100      -0.11850900      -0.29378500 
I       7.00136382       3.74864527       6.39842263       53      -0.48619400      -0.24338700      -0.13655800 
I       5.62893630       3.49541073      19.10770683       53       0.24857300      -1.48886600       0.31177900 
I       6.78344635      16.18317393       6.14984017       53      -0.63471100       0.32057900      -0.35309200 
I       5.83431360      15.99777972      19.81445203       53       0.28239800      -0.47935600       0.03797300 
I      18.75357314       4.06819696       5.46673566       53       0.19769800      -0.25362000       0.05943700 
I      18.88690024       3.99325764      18.59344401       53       0.14644600      -0.25273400      -0.18279600 
I      19.41098804      16.45449889       6.46365587       53      -0.28287000      -0.00603000      -0.24020400 
I      18.69520205      16.68512063      19.08119275       53      -0.00395800       0.27397800      -0.23376500 
I       2.73135871       5.79412532       6.26225553       53      -0.02399500       0.31039600       0.33203000 
I       2.32513630       5.95051922      19.40853917       53       0.23346000       0.38099200      -0.35339500 
I       2.81049905      18.60388809       5.13022757       53       0.08586800      -0.16504900       0.17827500 
I       1.89447033      17.84811331      17.59485027       53       0.31498600       0.13999700       0.51569200 
I      15.47351209       6.49045002       6.19485447       53      -0.58224400      -0.04966000       0.08683100 
I      15.55840217       6.72816486      18.56980038       53      -0.66921300      -0.15173700       0.08915000 
I      15.75070275      19.26200268       4.89569863       53       0.14120500       0.14307400       0.15751900 
I      14.89156027      19.86476109      19.05992330       53      -0.26192400      -0.01178900      -0.32507200 
I       8.94058017      13.63381716       6.86907247       53       0.72597200      -0.72745000      -0.03105700 
I       8.85307809      12.26365082      19.00425561       53       0.22322600       0.16494700      -0.18620300 
I       8.76784701      25.44420495       5.89810916       53      -0.23411600       0.16656600       0.12812000 
I       8.13103135      24.72796397      18.79942469       53       0.12512900       0.39997300       0.05294100 
I      21.80820696      13.09691011       5.78848072       53      -0.27985000      -0.10755800       0.10749100 
I      21.44996265      13.16098671      19.08789767       53      -0.14547100       0.22454900      -0.28664900 
I      21.54487033      25.62283625       6.16559965       53      -0.29910300       0.12127400       0.04426500 
I      21.43155875      26.17431962      17.00542605       53       0.10249000       0.38437600      -0.36305100 
I       9.20165563       6.97672471       6.69763941       53      -0.22241500       0.46813600       0.05365100 
I       8.85573726       7.22346069      18.96268075       53       0.01632100      -0.20843800      -0.47205200 
I       8.86928469      20.12254648       6.34302026       53       0.12670600      -0.32995500      -0.04964300 
I       7.99776124      20.09166235      19.00677033       53       0.35052200      -0.46937100       0.40876000 
I      21.09657187       8.41529938       6.34154917       53       0.95685700       0.19619500      -0.13100500 
I      21.34887285       8.54597026      17.95798938       53       0.00144800      -0.25048100       0.25885600 
I      21.70848900      20.68781214       7.02798502       53       0.66402000       0.04041100       0.12054800 
I      21.07709781      19.96189457      19.27467748       53       0.88603200      -0.10461500       0.11540400 
I       3.13882620       1.21902003       6.27047577       53       0.27782100      -0.22063400      -0.03261700 
I       2.41362501       0.80833028      19.21091042       53      -0.07149200      -0.09572000       0.09544500 
I       2.72120256      13.23002692       6.92738165       53       0.72799000       0.09930300      -0.28573800 
I       2.82777187      12.69967935      19.68662212       53      -0.30602400       0.34355500      -0.34058300 
I      15.62596931       1.13984038       6.28532527       53       0.27202100       0.00987100      -0.10096900 
I      15.71887327       0.31711952      19.44344645       53       0.22766400       0.11767800      -0.28914500 
I      15.20647266      13.99366621       7.02300865       53      -0.45215100      -0.00584000      -0.11957000 
I      15.33725066      13.95126588      19.06927266       53      -0.58445000       0.07675500      -0.03047800 
I       0.38984974       9.91657390       0.35057339       53       0.05525600      -0.42391000       0.18827100 
I      -0.67073042       9.63583472      12.89076827       53      -0.03377100      -0.28033200      -0.14166800 
I      -0.08201275      22.41723005      -0.12334882       53       0.18929600      -0.29706200       0.27695000 
I      -0.17830897      22.12286680      12.10112982       53      -0.09880600      -0.04482700       0.19920500 
I      13.56895046       9.53162093      -0.39921383       53      -0.02244400       0.29476300       0.33350900 
I      12.44261820      10.14438809      13.02969772       53      -0.04511600       0.24431400      -0.55298300 
I      11.75163051      22.56819162      -0.65514783       53       0.17711100       0.93012000      -0.19092400 
I      13.12340159      22.70351851      12.70672723       53      -0.37675300      -0.06970700      -0.26607600 
I       6.58840405       3.26694895       0.69074988       53      -0.51328800       0.27968500      -0.98385600 
I       6.85991376       2.99563185      12.63907951       53      -0.03976400       1.32888500      -0.06003700 
I       6.55287079      15.70099019      -0.37417477       53       0.01624900       0.81585500       0.33817500 
I       6.43572965      16.26856912      12.12220567       53       0.11493900      -0.59293500       0.11657500 
I      18.73741370       3.45686159       0.21427462       53       0.01601000      -0.22782100      -0.08481400 
I      18.80014402       3.81503612      13.29542623       53      -0.04610100       0.88200300       0.15708400 
I      18.26597279      16.42105484       0.16598697       53       0.41841600       0.34723900       0.59669000 
I      19.35477889      16.65103980      13.49299111       53      -0.50565600       0.15625800      -0.12906600 
I      11.10935303       3.14599004      12.66800808       53       0.42212200       0.64553900      -0.13606400 
I      11.74446470       3.99419218      25.40445495       53      -0.39150600      -0.52451800      -0.09260300 
I      12.30078784      16.64009454      12.82169269       53      -0.10721900       0.00666800      -0.20515700 
I      11.50580648      16.04541487      24.74008453       53       0.12720300      -0.29944700       0.47345000 
I      24.12415113       4.00802066      12.73924264       53       0.07161800       0.08256900       0.15495100 
I      23.89655019       4.21481697      24.48058925       53      -0.01540600       0.22528300       0.05003500 
I      24.90534135      16.83094074      12.15116765       53       0.11474400       1.38845200      -0.10848900 
I      23.91362549      16.99481982      25.12793252       53       0.05092500       0.18894900      -0.01449900 
I       5.52133123       9.42542406      13.00068071       53       0.15623100      -0.63527400       0.02260700 
I       4.74494442      10.28065247      25.69546427       53      -0.03279800      -1.13974200       0.02611300 
I       5.02432060      22.24846501      12.26516712       53       0.01859800       0.37053000       0.22319200 
I       6.05278334      22.68283770      24.88760961       53      -0.23041100      -0.52959800      -0.02337700 
I      17.71795539      10.27861043      12.51610608       53       0.03346500      -0.06982800      -0.26923400 
I      18.19543005      10.19948582      25.05523768       53       0.11284300      -0.08584800      -0.16696600 
I      18.62677505      22.76097765      11.72710048       53      -0.16669300      -0.16993700       0.29861800 
I      18.29019916      22.80352833      24.61445487       53      -0.32985300      -0.15575000      -0.01280600 
I       8.95085032       6.65607437      12.40469699       53      -0.74395300       0.18663800       0.07162800 
I       8.66732716       6.78227105      25.23455883       53      -0.01869300       0.21713500       0.16148500 
I       9.20893936      20.36564059      12.20470486       53      -0.08438100      -0.18789400       0.14525500 
I       8.69757746      19.14042664      23.81298969       53       0.06452000       0.04932500      -0.16451900 
I      21.37730908       6.91679409      12.54205020       53      -0.69964700       0.06217200       0.11394500 
I      21.30314118       7.43502307      25.63289905       53       0.12956100      -0.01089400      -0.18005900 
I      21.52947347      20.08683143      11.53241294       53      -0.22399100      -0.12540100      -0.13195800 
I      21.21663850      20.10387627      24.08674879       53      -0.00241700      -0.56999200       0.22074600 
I       3.15474487       0.99763267      11.56868813       53      -0.12065400      -0.12990000       0.44660000 
I       2.48194981       1.00619980      24.05089026       53       0.69196500      -0.61847000       0.58872400 
I       2.88938093      12.17763064      13.30007438       53       0.01248600       0.34210700      -0.06289500 
I       2.94140184      13.58167538      24.41786876       53      -0.13344500       0.09412600       0.26739900 
I      15.77773177       0.24236298      11.92847822       53       0.04285700       0.40164700      -0.07147900 
I      15.44601039       0.06464952      23.58048805       53      -0.48018700       0.45735400       0.36856800 
I      15.46254915      14.35312808      13.08991922       53       0.29822800      -0.06955300      -0.35846600 
I      15.04101340      13.04633081      25.08747596       53       0.30547400       0.36476800       0.19370800 
I       2.76067446       5.96881404       0.09358104       53       0.22189100       0.07848000       0.14649500 
I       2.45820299       5.73347733      12.16342480       53      -0.03626200      -0.02697800      -0.17799800 
I       2.72850300      18.97082827       0.60743997       53       0.00648400      -0.02720700      -0.00734700 
I       2.65882110      18.90716046      13.04965330       53       0.10049300       0.09241300      -0.16996900 
I      15.13717303       5.29281245      -0.48790302       53       0.15640500       0.17552000      -0.26121500 
I      15.04630128       6.17163339      13.22871305       53       0.50996100       0.15018300      -0.47985500 
I      14.92582389      19.15101222       0.37113825       53       0.17093900       0.37057900      -0.20815800 
I      15.43920818      19.83292768      12.07802470       53      -0.07432600      -0.29451900       0.27006900 
I       9.49799214      11.27490270       0.02395318       53      -1.29934100      -0.45209000      -0.18378200 
I       9.33108144      12.92559300      11.93560570       53      -0.14889200      -0.04993600       0.16788100 
I       9.01267164      24.95719521       0.78740773       53      -0.49977500       0.38200000      -0.08256300 
I       8.76810644      25.27181278      13.18806782       53      -0.05734400      -0.30186400      -0.06373600 
I      21.83190759      13.34507590      -0.37676417       53      -0.14903700      -0.04952600       0.34009400 
I      21.67187969      13.97731613      12.60413587       53       0.04010600      -0.40232800      -0.06403100 
I      21.46617613      25.66554613       0.18426902       53      -0.60723600       0.07729000       0.35704100 
I      21.33431816      26.01676810      12.60833493       53       0.21096900       0.05502500       0.11156800 
I      12.15070284      14.14822345       9.18020045       53      -0.02037100       0.01621100       0.40978000 
I      11.72085939      12.41971060      22.00858923       53       0.20488200       0.14732700      -0.36004300 
I      11.58036844      26.38181757       9.17300516       53       0.04985800      -0.09511200       0.47291500 