320
Lattice="24.9424701297 0.963885962532 -0.0407701392521 -0.49559323984 25.3627213629 0.0172424832727 -0.0684914905515 -0.0151871331799 24.878216273" Properties=species:S:1:pos:R:3:Z:I:1:forces:R:3 energy=-101583.835236 stress="-983.173032 -716.618031 290.456662 -716.618031 -1735.859607 196.000605 290.456662 196.000605 -68.009831" pbc="T T T"
Cs       2.72896887       9.89389196       3.56963831       55       0.07861000       0.01316500       0.19134700 
Cs       2.31404397       9.23518008      15.32117520       55       0.18110100      -0.14840300       0.18613200 
Cs       2.24118987      21.76312767       2.97549762       55       0.31755500       0.02779100       0.05059800 
Cs       2.34939404      21.83452497      14.94322317       55       0.01716300       0.11128600       0.28513600 
Cs      15.43751485      10.58975050       3.31430426       55      -0.08848900      -0.10991900      -0.04747600 
Cs      14.89349347      11.24849558      15.62090969       55       0.36838600      -0.08486900      -0.20290100 
Cs      16.12816716      22.32816441       2.85409136       55      -0.00309000       0.15204100       0.15171000 
Cs      15.54787885      22.64956355      15.71440127       55      -0.50968100      -0.24129200       0.06453500 
Cs       9.12754320       3.83605952       3.40870488       55      -0.32877800      -0.07878600      -0.65574400 
Cs       8.84524648       2.96903474      15.80599372       55       0.07614900      -0.00849600       0.13638100 
Cs       8.81119992      16.92912587       2.82645593       55       0.41467100      -0.21136800      -0.21784900 
Cs       9.38169188      16.27096566      14.95596830       55      -0.35657000       0.14997200       0.11698500 
Cs      21.81284762       3.74739338       2.44420475       55      -0.13489800       0.04220500       0.08161400 
Cs      21.69412259       4.92662535      16.26486601       55      -0.08738900      -0.28073200      -0.21017200 
Cs      21.63645855      16.57776060       3.21295353       55       0.03875600       0.02618400      -0.08488400 
Cs      22.04786738      16.89630080      15.83326788       55      -0.14573400       0.19697200       0.19112500 
Cs       9.27377379       3.40516050       9.45920738       55      -0.08147200       0.35698600      -0.14922800 
Cs       8.34211533       3.99282757      22.38731846       55       0.55583300       0.15623900      -0.48735600 
Cs       9.05938076      16.68281779       9.08561894       55       0.14631600       0.02099400      -0.20325100 
Cs       9.04180630      15.17195288      21.93055425       55       0.08974700       0.00899900      -0.11949900 
Cs      21.29544814       4.05571054      10.13314057       55       0.37927700       0.35968900      -0.01107300 
Cs      21.39514580       4.99825894      21.55344193       55      -0.28268800      -0.15235400       0.32798400 
Cs      21.85380327      15.40994387       9.23422515       55      -0.18993500       0.45419700      -0.04877100 
Cs      20.53976963      16.59491422      22.06505518       55       0.52069000      -0.08750600       0.29561100 
Cs       2.58299898      10.23605160       9.84414174       55       0.22575100      -0.15408200       0.12021000 
Cs       3.34486600       9.91852198      22.12922800       55      -0.26663400       0.13325300      -0.27237200 
Cs       3.44332459      22.28519343       8.77245975       55      -0.18307000       0.14657200       0.22936500 
Cs       2.56509449      22.97476192      21.82874655       55      -0.11881000      -0.04793200       0.00443500 
Cs      15.14469728       9.18569545       9.42555627       55       0.05114400      -0.02349000       0.01132600 
Cs      14.70435048       9.54979706      20.83746634       55      -0.00891200       0.07335500       0.11970600 
Cs      15.68391471      23.20920560       8.70168931       55      -0.20031200      -0.06919500       0.23851100 
Cs      15.50469697      22.27608545      21.72574373       55      -0.34433800       0.24903700      -0.15059500 
Cs       2.16024520       3.61537448       9.09221559       55      -0.05840900      -0.26320100      -0.20414100 
Cs       1.58031817       3.62829927      22.05403636       55       0.75258800       0.03509700      -0.52278200 
Cs       2.70029552      16.20158954       9.05271674       55       0.16094100      -0.11025800       0.00721700 
Cs       2.29590417      15.83342117      21.01177565       55       0.04326500       0.36523400       0.42975900 
Cs      16.02356986       3.37029180       9.02161700       55       0.76557000      -0.12100700       0.15670200 
Cs      16.36019910       3.49427775      21.22750051       55      -0.18705300      -0.05400000      -0.17817600 
Cs      15.14170848      16.74694569       9.70701523       55       0.00397200      -0.03006300      -0.18786800 
Cs      15.60641288      16.35814961      22.45307306       55      -0.13546300      -0.05578900      -0.10240000 
Cs       9.38735800       9.38727013       9.59980407       55      -0.04890000       0.22162900      -0.04218200 
Cs       8.96303806       9.55010072      21.59124963       55      -0.03346900      -0.24258100      -0.10439500 
Cs       8.60222892      22.10559684       8.97276118       55       0.18997000       0.68135700       0.11115800 
Cs       8.81263818      22.96265049      21.96000775       55       0.28525000      -0.09900100      -0.37320200 
Cs      21.53751956       9.99926551       9.97204896       55      -0.37425300       0.07062600      -0.06071400 
Cs      21.87133868      10.57528494      22.28721265       55      -0.74063700       0.29743300      -0.01029100 
Cs      21.58271090      23.48448679       9.42730405       55       0.15085800      -0.03859600      -0.13627700 
Cs      21.41527456      22.90832188      22.18290535       55       0.11675700       0.23786600      -0.15366900 
Cs       8.76582014       9.49325882       3.04156956       55      -0.29555000      -0.06956200       0.27966500 
Cs       9.17129726       9.36812169      15.26578620       55      -0.09567400       0.17758800       0.00707400 
Cs       8.49990080      22.48846902       3.20875007       55      -0.03042700      -0.28376600      -0.09376200 
Cs       8.85737451      22.03347016      15.94646055       55      -0.01241100       0.12116600      -0.03296600 
Cs      22.35133860      10.79113185       2.67221094       55      -0.31635800       0.08348200       0.11841800 
Cs      21.48703020      11.37478976      15.75856933       55       0.28591800      -0.45975300      -0.29477600 
Cs      22.79146668      23.33360945       3.49630576       55      -0.53546300      -0.23548000       0.04018900 
Cs      21.93732567      23.08125444      14.68145652       55      -0.16605000       0.21084000       0.11655300 
Cs       3.45325276       3.74808370       2.91466316       55       0.14138400      -0.32551500       0.15442500 
Cs       2.74090943       3.32015200      14.83136917       55      -0.29875300      -0.13118500       0.29940400 
Cs       3.14270450      15.78068899       2.81317085       55      -0.04792800       0.01086600      -0.08953600 
Cs       3.75863190      15.91927720      15.02025340       55       0.00484400      -0.20874100      -0.24535800 
Cs      15.48024270       3.83738842       3.43502410       55      -0.07116700      -0.05070100      -0.10131200 
Cs      14.93009432       3.51523158      15.45158106       55       0.31439500      -0.06550800      -0.06058000 
Cs      14.81211625      16.19385440       2.25482060       55      -0.07859000       0.16543500       0.34291400 
Cs      15.95936678      16.90550936      15.63561936       55      -0.04412600       0.09440100      -0.04223900 
Pb       0.12668280       0.33812511       6.50938064       82       0.30278500      -0.25065700      -0.16260100 
Pb      -0.30700193       0.14087887      19.11323852       82      -0.07027000      -0.30639700      -0.30289700 
Pb      -0.22928041      12.68695944       6.46329491       82      -0.05836300      -0.30227800      -0.62897400 
Pb      -0.25082985      12.87921229      18.83880778       82       0.15989000       0.35899500       0.41929500 
Pb      12.46604885       0.97219329       5.94500592       82      -0.15714400       0.39978000      -0.33987900 
Pb      12.59089501       0.24962105      18.81676525       82       0.36554500       0.26164500      -0.34716000 
Pb      11.79454205      13.25639296       6.37353128       82       0.24828100      -0.42049300      -0.31050500 
Pb      12.57136381      13.22887763      18.80701088       82      -1.59244700       0.30686500       0.15897800 
Pb       5.60177905       6.83145840       6.78721223       82       0.14473600      -0.00482500      -0.63829500 
Pb       5.67737395       6.29549047      18.72907357       82      -0.33911600      -0.33787300       0.11034500 
Pb       6.10548043      19.40966882       5.81449851       82       0.14673600      -1.05681200       0.07038400 
Pb       5.20535035      18.39841607      18.36299570       82      -0.10815800       0.43734400       0.41289800 
Pb      18.52449740       7.10400466       5.49733016       82       0.10279700       0.04697200       1.33279400 
Pb      18.70011217       7.57065993      18.75912367       82      -1.39454800      -0.76065100      -0.82722600 
Pb      19.06318757      19.93946680       6.17936465       82      -0.14051400      -0.81821200       0.07396300 
Pb      18.19880008      19.99858472      18.92915921       82      -0.30165500      -0.27685600      -0.44527000 
Pb      -0.68104147       6.57159673       6.07278816       82       0.02991300       0.11341800       0.38935300 
Pb      -0.77896304       7.10560011      18.99529267       82       0.87285000      -0.62561000      -0.45734900 
Pb       0.03372532      18.93341735       6.48045733       82       0.18557500      -0.19714400      -0.74989000 
Pb      -0.78383339      19.17653256      19.05721387       82       0.52945900       0.21956100      -0.23432500 
Pb      12.42247835       7.03675516       5.75862228       82      -0.47336400       0.20166400       0.37795600 
Pb      11.89096970       7.14654601      18.08956872       82       0.36099400      -0.31909600       0.40979300 
Pb      12.88750204      19.95234667       5.58323599       82      -0.01561000      -0.03410500       0.30122300 
Pb      11.40362422      19.47845128      18.88230700       82       0.25247200      -0.28089900      -0.14371000 
Pb       6.42332153       0.53357670       6.49778085       82       0.09960800       0.28457700      -0.52947800 
Pb       5.90334627      -0.43967991      18.74119183       82       0.16439500       1.04010500      -0.06788000 
Pb       5.79274109      12.88571130       6.54201433       82       0.78609500       0.31363200      -0.18703900 
Pb       6.13865603      12.66205699      18.77528526       82       0.09916800      -0.27815900      -0.25036700 
Pb      19.04759425       0.62791775       5.94849953       82      -0.19468700       0.62349300       0.30208500 
Pb      19.29385936       0.26731073      17.98747006       82       0.08477200       1.49168100       0.07025400 
Pb      18.09273620      13.23255676       6.47208654       82      -0.27652400       0.08069800      -0.07613800 
Pb      18.47876708      13.76986335      18.77772141       82       0.59476100      -0.22224400       0.29998200 
Pb      -0.25097436       0.14808187       0.35086632       82       0.74387800       0.08074900      -0.45180900 
Pb       0.20339373      -0.01077765      12.42565365       82      -0.10620000       0.09016000       1.05208800 
Pb       0.05756445      12.91729437       0.17148162       82      -0.58656600       0.22086400       0.07210300 
Pb      -0.04850431      12.79749821      12.69738460       82      -0.09464100       0.39229500      -0.12564500 
Pb      12.22602789       0.47985932      -0.73509083       82       0.29476300       0.00256700       1.27103600 
Pb      12.69316942       0.17215339      12.26092784       82      -0.28910100       0.10283100      -0.23540400 
Pb      12.19353872      12.28635364       0.17481607       82      -0.44176400       0.05120500      -0.26674500 
Pb      12.21676857      13.55130103      12.43169960       82       0.11615300      -0.63221500       0.06503100 
Pb       5.43468446       7.20984981       0.00946145       82       1.19446900      -1.50846100       0.52446700 
Pb       5.62339782       5.72970580      12.58379355       82      -0.22481200       1.79135100      -0.24401200 
Pb       5.87728677      19.55442405      -0.58994406       82       0.17597700      -0.11411300       0.20126700 
Pb       5.97267650      18.94659893      12.24404272       82      -0.30624600      -0.00586400      -0.06917300 
Pb      17.71405870       6.67264965      -0.70685882       82      -0.10487900      -0.31154000       1.48915500 
Pb      18.01919373       7.17948238      12.47615375       82       0.61164300      -0.27045600       0.17599600 
Pb      18.57086336      19.67674130       0.20073008       82       0.53548900      -0.27265200       0.06489100 
Pb      18.31854253      19.81879382      12.34440141       82       0.00171300      -1.06100000       0.09838300 
Pb      -0.18931483       6.65035911       0.23286872       82      -0.29439800      -0.26495100      -0.41893900 
Pb      -0.53638974       6.38834542      12.36096724       82      -0.36313900      -1.11096900       0.34513200 
Pb      -0.44317547      19.21176643       0.11173879       82       0.07995100      -0.03465500      -0.08641400 
Pb      -0.53068651      19.02644025      12.57536320       82       0.27811000       0.06631300      -0.14212800 
Pb      12.20290838       6.83936735      -0.05218343       82      -0.39770500      -0.01066000      -0.13517000 
Pb      12.01054909       6.16513440      12.01423407       82       0.26493900       0.11430300      -0.15429300 
Pb      12.15820817      19.47194544      -0.27235195       82      -0.43400300      -0.13570900       0.10552300 
Pb      11.95732675      19.63580322      12.36718016       82       0.64919200      -0.05504600       0.10117900 
Pb       6.60941419       0.34377366       0.06555249       82      -0.24496600       0.34527900      -0.09553700 
Pb       6.31784154       0.10539015      12.77472728       82      -0.22394000      -0.26179000       0.02388900 
Pb       6.31274662      13.02563133       0.35500729       82       0.02904900      -0.42478200      -0.54414500 
Pb       6.14741152      12.21096672      12.36409469       82       0.82346100      -0.19927600       0.36687800 
Pb      18.35819565       0.30623642      -0.13032189       82       0.44174000       0.53359200      -0.71335700 
Pb      18.91883169       0.97706168      12.39757200       82       0.30624000       0.26740400      -0.01186600 
Pb      18.43120013      12.97601587       0.23228873       82       0.07926500       0.05599600      -0.03301400 
Pb      18.58072611      13.50218158      12.57475197       82      -0.22294800       0.31110900      -0.03884300 
I      11.54893211       4.19773669       5.70258201       53       0.48043000      -0.28583200       0.20456600 
I      12.65278302       3.31713489      18.06112092       53      -0.31142900       0.06495200       0.51337400 
I      12.41541107      17.11369728       5.36685303       53      -0.02321300      -0.57078900       0.16110400 
I      10.98416291      16.01335072      18.81207456       53       0.16880600      -0.02751500      -0.05657000 
I      24.09808056       4.34763762       6.11721008       53      -0.10600800       0.11604900      -0.09795200 
I      23.99662926       3.95273213      19.63506310       53      -0.02282300       0.40319600      -0.47300000 
I      24.43433584      16.80337457       6.91310511       53       0.05054500       0.38937000      -0.18553500 
I      23.79625264      16.63729838      19.89144386       53       0.05571000      -0.05548000      -0.34030200 
I       5.27990732       9.93596268       7.20429695       53       0.10268300      -0.57185500      -0.03013200 
I       5.28821172       9.86432421      17.92742356       53       0.10172100      -0.34435600       0.16093100 
I       5.57041080      22.21471787       5.77746804       53      -0.37266700       1.00358500      -0.08223300 
I       4.75576864      22.27022794      18.15135518       53      -0.15220600      -0.91618300      -0.10257100 
I      17.34830012      10.26485873       6.54386366       53       0.16407700       0.13675700      -0.06855500 
I      17.81682913      10.42138169      18.94239450       53      -0.01016400       0.36569900      -0.16492500 
I      18.36963726      22.99416228       6.20258181       53      -0.05840300      -0.15058200      -0.01017800 
I      18.95181689      22.94611005      18.99240151       53       0.09514900      -0.62355200       0.29063100 
I       0.80973080       9.63038533       6.77906796       53      -0.41140300      -0.22041900      -0.28485500 
I      -0.31089196       9.80927695      18.07980458       53       0.21787800       0.01535000      -0.21666800 
I       0.00845379      22.48557493       6.82330632       53       0.09458500       0.14022800      -0.14113800 
I      -0.46923984      22.27270901      18.77363610       53      -0.04773200      -0.48044400       0.03383000 
I      12.82450190      10.18885959       6.41979863       53      -0.09140100       0.40552900       0.39834700 
I      12.28368998      10.24225671      17.84435325       53      -0.09452300      -0.42964600       0.06750800 
I      12.60335404      23.60738111       6.18395672       53       0.21135000      -1.11277700       0.06730300 
I      11.94255166      22.38117193      19.64257758       53      -0.06938500       0.16126700      -0.03555600 
I       7.08358492       3.51192544       6.37958602       53      -0.26825600      -0.18913800      -0.03893300 
I       6.20551105       3.24473188      19.39373376       53      -0.06963700       0.59279100      -0.28720400 
I       7.16541617      16.02662994       5.82460341       53      -0.50838100       0.16175400       0.23243400 
I       5.79500930      15.78411913      19.57341822       53       0.09867600       0.16517100      -0.15191400 
I      18.62710868       4.05395299       5.60054780       53       0.27166300      -0.13397400       0.01412300 
I      18.97008363       3.85908921      18.51881174       53       0.02427300       0.13174400       0.14567900 
I      19.58442142      16.50216960       6.24164420       53      -0.27547300       0.39926600       0.08077800 
I      18.96850477      16.85474172      19.00502067       53      -0.41220700      -0.35360500      -0.55787200 
I       2.70579956       5.77013615       6.08070492       53       0.10861800       0.19928100       0.18488100 
I       2.36117642       6.09293449      18.82795495       53       0.37991900       0.07603400       0.07230800 
I       3.19471413      18.36281897       5.36161164       53      -0.61975900       0.06027900       0.31391400 
I       2.14554432      17.83353654      17.60126733       53       0.48318600       0.09022700       0.27244000 
I      15.38798043       6.60697804       6.26614827       53       0.28561800      -0.02771200      -0.06202200 
I      15.66978992       6.67473332      18.67064402       53      -0.31636700      -0.03770400       0.04525200 
I      15.99837351      19.26335816       5.31961708       53      -0.08829200       0.15067200      -0.10990400 
I      14.97275675      19.87822029      18.69209484       53       0.45337500      -0.04326100      -0.06552700 
I       9.00728325      13.14153453       7.26950574       53       0.13847000      -0.40659600       0.12489000 
I       9.11169601      12.21594252      19.26875382       53      -0.28760000       0.20469500      -0.47792400 
I       8.91756161      25.17296617       5.48462703       53      -0.11716300       0.37308300       0.33672800 
I       8.49236679      24.65339710      18.73131151       53      -0.01744100       0.09803200      -0.33769600 
I      21.87288825      13.33158655       5.62013562       53      -0.21551900      -0.20647100       0.41447100 
I      21.60084582      13.30319343      18.67440321       53      -0.53388600       0.12381200       0.16686100 
I      21.57739725      25.72419349       6.34559219       53      -0.05819500       0.03694100      -0.18327200 
I      21.46339026      26.40118285      16.71283469       53      -0.37191800      -0.19748200       0.38117600 
I       9.25575408       7.25055844       6.84717377       53      -0.11884700      -0.05542600      -0.33016600 
I       8.92747513       6.86470332      18.77819204       53      -0.01085200       0.00618600      -0.23061000 
I       8.96083820      20.23581411       6.17096847       53       0.56555100      -0.35881500      -0.35401200 
I       8.36338552      19.41290954      18.83487381       53       0.12141600       0.14794300       0.11375800 
I      21.36273669       8.71812723       5.91496949       53       0.32138500      -0.09821300      -0.14382500 
I      21.35492538       8.41805392      18.07579055       53       0.63283100       0.28930000      -0.06919900 
I      21.98473054      20.32161057       6.78251080       53      -0.17901600       0.19220800       0.17349800 
I      21.36531149      19.70530335      19.52778457       53      -0.48045600       0.12074700       0.02434900 
I       3.27398718       1.28965163       6.20441454       53      -0.06708700      -0.10858300       0.16162200 
I       2.59731516       0.60439205      19.24250100       53       0.24515400       0.06581400      -0.00490100 
I       2.94091892      13.04693374       6.36769428       53      -0.33938000       0.36941400      -0.20245600 
I       2.80522187      12.75495393      19.48848588       53       0.00661900      -0.16308900      -0.32274100 
I      15.73532971       1.23170052       6.30382025       53       0.04411100      -0.23757700      -0.25650300 
I      15.93585572       0.14470543      18.99208515       53      -0.63065800      -0.05034900      -0.10965600 
I      15.04109104      13.91975452       6.78436696       53       1.04042300      -0.02705900      -0.49704000 
I      15.36821978      13.74685222      19.02475496       53       0.49861900       0.25769600       0.06692200 
I       0.31672506       9.81318261       0.41036310       53       0.19008900       0.11084800      -0.16248500 
I      -0.60170105       9.21785070      12.76281113       53       0.12492300       1.00530500       0.05990600 
I      -0.00304055      22.55016565      -0.19817090       53       0.16944000      -0.38473900       0.48697300 
I       0.13729446      21.96044714      12.01117399       53      -0.17770700       0.24392200      -0.04749800 
I      13.63791280       9.70842615      -0.50975807       53       0.06515100      -0.03199200       0.35297400 
I      12.67361479       9.89938233      13.09089675       53      -0.04501100       0.42130700      -0.44588200 
I      11.89834846      22.48821515      -0.81292367       53       0.19170600      -0.03569600       0.00706300 
I      12.98868190      22.50759208      12.37069427       53      -0.13685400       0.59985300      -0.01889000 
I       6.61508911       3.41533570       0.22257049       53      -0.34284100      -0.17071000       0.58323100 
I       6.76295031       3.24690636      12.45486598       53       0.61434900      -1.56618700       0.06763800 
I       6.48098264      15.82806848      -0.34555854       53      -0.11994000      -0.03314400       0.31871800 
I       6.64651790      15.81391634      11.69711650       53      -0.11453600       0.55582300       0.57897600 
I      18.59293030       3.70413241       0.24742607       53       0.04534400       0.13839300      -0.25546700 
I      19.22844553       3.90350039      13.33002038       53      -0.29781600      -0.53858400      -0.22387600 
I      18.34793062      16.28853427       0.40657656       53      -0.02325200       0.25599900       0.00245100 
I      19.44878101      16.82787376      13.30226388       53      -0.33495800      -0.45319200      -0.25947500 
I      11.29368594       3.41175910      12.61069862       53       0.08514900      -0.16074100       0.38378900 
I      11.56114899       3.84018096      25.34200285       53       0.07194000      -0.20484000      -0.35123100 
I      12.42243441      16.57643365      12.78634757       53      -0.11027800      -0.22878400      -0.42325400 
I      11.56787648      15.95803300      24.61615572       53       0.30319500       0.06034500       0.30107700 
I      24.20825319       3.98205480      12.95996363       53       0.16694500      -0.13892500      -0.14536700 
I      24.05780351       4.32424081      24.26666516       53      -0.36146100      -0.03550100       0.60327500 
I      25.23364733      16.83463542      12.16657018       53      -0.14190500      -0.61809200       0.12794900 
I      24.05046674      17.17497601      25.02845895       53       0.07797100      -0.53520300      -0.02845400 
I       5.48910681       8.98455137      12.78701544       53       0.05103600       0.52840100      -0.16232400 
I       4.89875559       9.79164293      25.54402082       53      -0.26444700       1.39845000       0.02935400 
I       5.14731820      22.15380823      12.51121675       53       0.25446500       0.35208000      -0.04848900 
I       6.32394901      22.50787035      24.18252958       53      -0.59263200      -0.59954200       0.54044500 
I      18.07706575      10.18770450      12.38209976       53      -0.05716200       0.37721400      -0.02832300 
I      18.42363292       9.96318606      24.72273026       53      -0.04109600       0.14859300       0.15927900 
I      18.76692716      22.50707848      11.82689257       53      -0.31545200       1.62298300      -0.09894600 
I      18.26516006      22.63412450      24.46163635       53      -0.10701600       0.20140800      -0.00496800 
I       8.97090990       7.00320169      12.32078197       53       0.20327200      -0.20239800       0.04854200 
I       9.11000877       6.75700102      25.33903358       53      -0.43812200       0.22074600      -0.13505800 
I       9.05686162      20.03598330      11.85700126       53      -0.24346800      -0.14358000       0.32834500 
I       8.65717365      18.68467508      23.62251356       53       0.05406200       0.42912900       0.08877600 
I      21.35059499       6.98869024      12.74392730       53       0.41434400       0.30686700      -0.20044400 
I      21.75493654       7.41673032      25.07815643       53      -0.41337000       0.17987400       0.16166400 
I      21.65889555      20.38407076      11.64186518       53       0.08167200      -0.28417600       0.01105100 
I      21.25967723      19.65485891      23.72860673       53      -0.20893700       0.12432900       0.42091200 
I       2.97214364       0.63101201      11.58723192       53       0.84729000       0.09115800       0.07486000 
I       2.74887892       1.07586788      24.23942128       53       0.02170300      -0.29961400       0.40234400 
I       3.42070988      12.33102748      13.17938128       53      -1.05524400       0.26930000       0.17896200 
I       2.72683053      13.45025104      24.24406022       53       0.62613500       0.03629600       0.07539500 
I      15.69975507       0.56339148      12.03188177       53       0.05186200       0.12990400      -0.06497200 
I      15.49553431      -0.05314715      23.74210662       53      -0.17661900       0.19020700       0.13624500 
I      15.56956304      14.07190413      12.98177670       53       0.09959600       0.00323600      -0.16963100 
I      15.05624692      13.25928607      25.05066161       53       0.56836300       0.10245800      -0.00985900 
I       2.86902951       5.84495577       0.05319988       53      -0.25369100      -0.04246400      -0.19561100 
I       2.64872820       5.56682248      11.97459169       53      -0.01171400       0.28559800       0.12799300 
I       2.57112482      18.92172187       0.38984279       53       0.12802200       0.02257700      -0.05139000 
I       2.75505766      18.80108015      12.53709170       53       0.66168800      -0.13698800       0.07284600 
I      15.00667832       5.42695127      -0.34073115       53       0.34123400       0.03585400      -0.23235000 
I      15.30845449       6.15345552      12.98570579       53      -0.24498000       0.06502000      -0.24315500 
I      15.17674609      19.58057338       0.54691841       53      -0.07273300      -0.09761300      -0.14961300 
I      15.30405380      19.57607114      12.05356889       53      -0.14334600      -0.08397400       0.31898000 
I       9.16493886      11.06213635      -0.15895619       53      -0.16010100       0.58004100       0.24510200 
I       9.53566543      12.46730061      11.60445683       53      -0.24997900       0.19394700       0.20526400 
I       9.08521178      24.94479985       0.67848913       53      -0.03813900       0.43237000      -0.30772000 
I       9.13194683      25.30854995      13.15611531       53      -0.77517400      -0.20248100      -0.12541800 
I      21.85525422      13.42390936      -0.32144211       53      -0.35236100       0.05007300       0.41265500 
I      21.83190037      13.58033078      12.54759694       53       0.24541800      -0.11563300      -0.04571400 
I      21.40494899      25.34528262       0.36633955       53      -0.32922500       0.09458300       0.04741800 
I      21.50372687      25.90124262      12.28222439       53      -0.48856700      -0.07208800       0.14484200 
I      12.51078615      14.14798821       9.11567392       53      -0.38967400       0.08514800       0.79383100 
I      11.77300628      12.22744369      21.82928846       53       0.38771700       0.24096400      -0.25359100 