320
Lattice="26.2056488378 0.895594493936 0.222986548313 -0.637834696704 26.1913252743 -0.107205090946 0.181487638695 -0.124005454321 26.2055201463" Properties=species:S:1:pos:R:3:Z:I:1:forces:R:3 energy=-101582.57774 stress="102.268287 437.684081 -258.903625 437.684081 939.130474 822.909501 -258.903625 822.909501 809.034309" pbc="T T T"
Cs       3.23624902      10.45262761       3.44959699       55       0.07827800      -0.15187500      -0.06621900 
Cs       2.55271558       9.51500004      17.00073291       55       0.05606000       0.03735700      -0.35446200 
Cs       2.89116390      23.24573612       3.82270723       55      -0.02976100      -0.07487300      -0.35932700 
Cs       2.54068497      23.36266967      15.98974712       55       0.17434600       0.03492500      -0.03790700 
Cs      15.69274358      10.76638147       2.17568229       55       0.41608900      -0.11495300       0.21246100 
Cs      15.62447684      10.44524011      17.19256489       55       0.73169500      -0.11576700      -0.00873400 
Cs      16.06320951      23.27983527       3.67981273       55      -0.19873100      -0.02106600       0.09813200 
Cs      15.13094000      23.15154112      15.64408697       55       0.37858700      -0.07969800      -0.06799700 
Cs       9.49364951       2.58988188       2.54343958       55       0.13152000       0.08215600       0.22383300 
Cs      10.20526425       4.23178775      16.17257376       55      -0.11757300      -0.19062600       0.00977100 
Cs       8.50682197      16.90377411       3.09404701       55       0.72433300      -0.40774300       0.49548700 
Cs       9.85355968      16.34110340      16.21047850       55      -0.21534100       0.00611800       0.13046100 
Cs      23.53302142       4.37498253       4.16958586       55      -0.22276000      -0.17708200      -0.10112900 
Cs      23.18303172       3.36902490      16.39540404       55      -0.09681800       0.03168200       0.07063600 
Cs      22.77070735      17.96640092       3.32430564       55      -0.35517800      -0.06768000      -0.08450400 
Cs      23.12733181      16.05350148      16.47676360       55       0.08504300       0.12519000      -0.08862500 
Cs      10.00157018       4.47182490       9.67982111       55      -0.15742600      -0.34586200       0.00243600 
Cs       9.48524678       3.72574128      23.20569265       55      -0.15972400      -0.06640700      -0.09652500 
Cs       8.79957358      16.32512319       9.02319950       55       0.33067300       0.24229700       0.10926900 
Cs       9.16475398      16.40161085      23.48778330       55       0.08976100       0.09396300      -0.16187000 
Cs      23.07231315       4.00445940       9.85320527       55      -0.01625300       0.00663000       0.13193700 
Cs      22.68530014       3.64342982      22.64518926       55       0.65016600      -0.09012100       0.49338900 
Cs      22.13798661      17.00758011       9.79988820       55       0.30771700      -0.03427000      -0.19110700 
Cs      22.79364303      17.64163475      23.28811238       55      -0.12617700      -0.02948200      -0.14936700 
Cs       2.69470311       9.05688296       9.08411755       55       0.14894500       0.04429600       0.45379000 
Cs       4.04286563      10.39871815      22.41331279       55      -0.03193400      -0.74732600       0.12463500 
Cs       2.21343383      22.92477146       9.26804317       55       0.22899100      -0.06061800       0.36003200 
Cs       2.35508942      23.21013251      22.69014242       55       0.13897500      -0.02331100       0.05378500 
Cs      15.90411930      10.76544080       9.63027184       55       0.19806400      -0.04353000       0.04736400 
Cs      16.75733242      10.10758437      23.05170413       55       0.20008200      -0.07907200      -0.12002600 
Cs      16.06455873      22.83589877       9.80308710       55      -0.04615200       0.05862900       0.10763900 
Cs      16.28279595      23.52873272      22.71334773       55      -0.01311200      -0.07398400      -0.05007600 
Cs       3.18077892       3.08022902       8.87032427       55       0.18303000       0.25192400       0.34105300 
Cs       2.84648754       3.65013403      23.39808536       55       0.18274600      -0.56374700      -0.26736400 
Cs       2.65201636      16.22430671       9.93543196       55      -0.14174400       0.35723100      -0.24261600 
Cs       3.04792746      16.85710814      23.04946633       55      -0.07811400      -0.02994800      -0.01265300 
Cs      17.33403664       3.56900734       9.73819699       55      -0.11457200       0.02727900       0.15712700 
Cs      17.12286519       2.97080451      22.95712817       55      -0.21186100       0.18220800       0.23371700 
Cs      16.14088502      16.65479393      10.60296783       55      -0.22840700      -0.33436100      -0.13549700 
Cs      16.83548899      17.12725602      22.46187033       55      -0.25650000      -0.47639000       0.54707600 
Cs       9.68023987       9.77279150       9.53196790       55       0.04329700       0.18842900      -0.04817700 
Cs       9.97133280       9.92196430      23.43656615       55      -0.37160500       0.10779000      -0.09055000 
Cs       8.19402308      23.41181143       9.50746954       55       0.23705900       0.44944700       0.16764400 
Cs      10.29233832      23.59651124      22.70609505       55      -0.21802500      -0.24083900       0.03713700 
Cs      22.69199721      10.03070245      10.16223738       55       0.00346100       0.03958200      -0.06435900 
Cs      23.18251900       9.77254841      23.36277181       55      -0.09291900       0.25727800       0.03983200 
Cs      22.22523533      23.52284764       9.63293657       55      -0.06459700       0.06989600       0.02518100 
Cs      22.32578932      24.52909023      23.27213115       55       0.75675800      -0.56713300      -0.21517300 
Cs       9.50052327      10.67707777       3.38706315       55       0.00717300      -0.53215400      -0.30986200 
Cs      10.28974917      10.25003866      16.86944005       55      -0.07164600       0.30370000      -0.27701900 
Cs       9.42592614      22.40862679       3.49900327       55      -0.20961100       0.23852200       0.31727600 
Cs       9.19842416      23.39457903      16.87898160       55      -0.06313700       0.08659800      -0.03978100 
Cs      22.13939200      10.90237259       2.81688033       55       0.05720400       0.33128800       0.43595800 
Cs      22.33053661       9.62274543      16.26622744       55      -0.23739300       0.10094300       0.14343400 
Cs      22.58595749      23.98589789       3.93864393       55      -0.09683700      -0.39797100       0.09730000 
Cs      22.44285974      23.24442163      15.74444077       55       0.20942000      -0.06339100      -0.06114600 
Cs       3.20591563       3.49121948       2.73204202       55       0.38751800       0.20366100       0.52045700 
Cs       3.17360386       3.14888999      17.50495217       55       0.16844900      -0.24899800      -0.28107400 
Cs       2.43689225      17.09986312       3.50671761       55       0.11141800       0.00634100      -0.17555600 
Cs       3.09871360      16.72172575      16.91789647       55      -0.20516000      -0.02092800      -0.35457600 
Cs      16.12420518       3.11294422       4.05941780       55      -0.00073500       0.16031000      -0.00442600 
Cs      16.52862319       4.45952567      17.69359853       55       0.42185800      -0.05911300      -0.82890900 
Cs      15.51657212      15.82611593       2.58488130       55       0.10952500       0.05816200       0.37327400 
Cs      16.61020132      16.57149787      17.00228334       55      -0.08945100      -0.07539600      -0.18614000 
Pb       0.23698940      -0.22777571       7.07450545       82      -0.44297800       0.05903500      -1.20369600 
Pb       0.15814852      -0.63599318      19.99357328       82       0.80723100       1.53875400       0.15780400 
Pb      -0.10208297      13.20567902       6.21805767       82      -0.27527300       0.06085100       0.24587400 
Pb       0.29754078      12.82004486      19.88944963       82      -0.26381000       0.28346200      -0.08423100 
Pb      12.90842831       0.60524410       7.15827746       82       0.21474800       0.04360900      -0.03582300 
Pb      13.43624509       1.24995357      19.92238239       82      -0.49617700      -2.87201800      -0.05654700 
Pb      12.68474213      13.69764604       6.72871355       82       0.25563500      -0.02178300      -0.86705000 
Pb      13.23924400      13.81893161      19.76494473       82      -0.16084700       0.11999000      -0.29245100 
Pb       6.97860376       6.74523610       5.98494944       82      -0.16801900      -0.33898100       0.58911100 
Pb       6.32832582       7.20501391      19.68148219       82       0.31373400      -1.05850600       0.12028700 
Pb       5.91361556      19.59687471       6.55983052       82      -0.47665000       0.31978900       0.10076800 
Pb       6.01605600      19.71661803      19.85539644       82       0.61254900       0.51567300      -0.01121300 
Pb      19.73958128       7.53429041       6.31014867       82       0.55515700      -0.05912700       1.68281800 
Pb      20.00771197       6.88270615      20.23641304       82      -0.49975300       0.30539400      -0.13080000 
Pb      18.93592968      20.08757422       6.73123324       82      -0.27933400      -0.12249800       0.09127000 
Pb      19.86061355      19.99229760      19.73074140       82       0.10083300      -0.26466400      -0.32404200 
Pb       0.24566689       6.89574280       5.81957581       82      -0.02186700      -0.25774100       0.54446900 
Pb       0.00918612       6.30870957      20.02673788       82       0.18638700      -0.35934300      -0.60798000 
Pb      -0.72517330      19.53843449       6.20904416       82       0.03708100      -0.06584600       0.14438300 
Pb      -0.36952833      19.09329789      19.17635699       82      -0.01585500      -0.11846300       0.49926000 
Pb      13.17427422       7.32483995       6.66779142       82       0.41577800       0.07560400      -0.36221100 
Pb      12.55994104       7.76884591      20.36229882       82       0.42017100      -0.74943300      -0.40975800 
Pb      12.07119437      20.00290034       6.93066006       82       0.39246000      -0.02792100       0.97396400 
Pb      12.64369568      20.50940949      19.94106716       82      -0.33166200      -0.26844400       0.15328600 
Pb       6.41590342       0.03028845       5.94385601       82       1.16724700       0.36996800       0.16453700 
Pb       7.04036340       0.08816693      19.91028131       82      -0.32205200      -0.04720100      -0.79975800 
Pb       6.42618138      13.04871324       6.56449405       82      -1.43912700      -0.02751900       0.01823700 
Pb       6.28438484      13.44894878      19.39160162       82       0.91723800      -0.19300500      -0.41902400 
Pb      19.59757434       0.73228606       6.46148573       82       0.19027400       0.45790400       0.64545000 
Pb      20.23610663       0.02660543      19.80929017       82      -0.49864400       0.06493000      -0.09551800 
Pb      19.57133660      13.86110768       6.49318264       82      -0.08663100      -0.07852000       0.02807100 
Pb      20.57557018      13.58331900      19.76724586       82      -0.07056600      -0.08870700       0.17194900 
Pb      -0.13018060      -0.23706192       0.72944667       82       0.27587400       1.03544100      -0.85934400 
Pb       0.16609369       0.10867585      13.09593687       82       0.27234400       0.27172600       0.01261000 
Pb      -0.22384245      13.26672576       0.00047085       82      -0.30072700      -0.08901100      -0.93368400 
Pb      -0.29202849      12.99950714      13.00669547       82      -0.10412600       0.02407100       0.09024300 
Pb      13.32816878       1.12576529       0.44065487       82      -0.31507900       0.07705800      -0.10498300 
Pb      13.36015678       0.04661695      13.14036198       82      -0.33004900       0.52681800      -0.11239500 
Pb      12.43331988      13.82378409      -0.11568647       82       0.44972100      -0.19078300       0.08723000 
Pb      12.98654301      13.75198243      13.06833460       82       0.09800600      -0.05624900       0.33363700 
Pb       6.42506197       6.70414675       0.08983379       82       0.12850600       0.37204800      -0.52723600 
Pb       6.23264781       6.94397248      13.16415867       82      -0.29723500      -0.46884100      -0.45635400 
Pb       6.06849062      20.07706850      -0.14714234       82      -0.29788000       0.27805300       0.20404100 
Pb       6.37613061      20.24134314      12.90683295       82      -1.20156600      -1.08227800       0.14465800 
Pb      19.41873407       6.94384992       0.62394113       82       0.13630200       0.02863300      -0.35405600 
Pb      19.23783065       6.82953922      13.19567173       82       0.05904300      -0.23934300       0.10382000 
Pb      19.11349836      20.46532654       0.08427861       82      -0.10886800      -0.43014800       0.02061100 
Pb      19.17801057      20.01597887      13.04204681       82       0.07159600       0.17204100       0.11175700 
Pb      -0.23927930       6.86570969       0.09576176       82      -0.20366400      -0.54336500       0.10608300 
Pb      -0.33888546       6.66751974      13.31858229       82       0.62555800      -0.06933000       0.13319000 
Pb      -0.92445815      19.88949253      -0.33416065       82       0.20393400       0.00484900      -0.31269500 
Pb      -0.48665594      19.76528587      12.46035121       82      -0.17520000      -0.47282400       0.30836700 
Pb      12.95267468       7.47438351      -0.09487420       82       0.07676200      -0.18984900       0.41182900 
Pb      12.51173996       7.33371354      13.23375419       82       0.53709200      -0.21001500       0.01573300 
Pb      12.63109107      20.26322069       0.86126145       82      -0.38042400       0.18312600      -0.11379500 
Pb      11.94569160      20.01186891      13.14036096       82       0.60920500      -0.24106500      -0.59273600 
Pb       6.32956984       0.13772641      -0.38850010       82       0.16167800      -0.37946600       0.40651400 
Pb       6.87531967       0.77562239      12.70159254       82      -0.14579500      -0.65293300       0.36999300 
Pb       6.35532958      13.68506083      -0.16323388       82      -0.84554000      -0.74958700      -0.07979900 
Pb       5.99210101      12.70752665      12.83013284       82       0.30197400       1.69991800       0.35661700 
Pb      19.67603528       0.40746167       0.50573087       82       0.27654900       0.65585000      -0.73818900 
Pb      19.81573598       0.27682145      13.44483678       82      -0.04682600      -0.08335000      -0.29796200 
Pb      19.16065561      13.81184234       0.00891137       82       0.30805300      -0.02173500       0.01596000 
Pb      19.69348420      13.37198924      13.34119930       82      -0.68625300      -0.07396200      -0.07038600 
I      13.88715442       3.78489339       7.48473705       53      -0.14995100       0.08564300      -0.30772800 
I      14.04891448       3.87181119      20.13062968       53       0.08818500       2.34556900       0.15315200 
I      12.09840853      16.43806730       5.27614140       53      -0.04939600       0.30055700       0.31051400 
I      12.65044075      16.66218245      18.99712043       53       0.08839000       0.59758200      -0.02562500 
I      26.16688003       3.81207486       6.99969792       53       0.03229700       0.33260000      -0.03643900 
I      26.74625918       4.08478738      20.74972853       53      -0.15760000       0.02885700      -0.43822400 
I      24.91292476      17.21580085       6.26788884       53       0.46089600       0.11003300       0.17282400 
I      25.25979216      16.98998002      20.31037896       53       0.25497500       0.04376000      -0.40042100 
I       7.01734499       9.90482485       6.00813943       53      -0.24398400       0.15598700       0.04927000 
I       6.51235359      10.07709470      18.67653264       53      -0.44011800       1.04170200      -0.23283500 
I       5.45856052      23.06702250       6.95658935       53       0.16098300      -0.30319400      -0.24862800 
I       6.50493340      23.11434827      20.35543221       53       0.06724600       0.16817700       0.02637200 
I      20.19084502      10.74325480       6.49351254       53       0.02645500      -0.40967400       0.14152600 
I      19.60319795      10.28201951      20.11628569       53       0.20050300      -0.24321200       0.15284500 
I      18.70884033      23.22662850       7.07871448       53       0.16132000      -0.09489700      -0.21940200 
I      19.18460652      23.02159748      20.12608769       53      -0.01667300       0.62105700       0.04383800 
I       0.18170008       9.95328127       6.32121511       53      -0.19272300      -0.08245200      -0.23839600 
I       0.22931286       9.51840423      20.05266308       53       0.27016900       0.44476200       0.21589100 
I      -0.90389203      22.60079378       7.01804565       53       0.08007300       0.27524400      -0.05399200 
I      -0.37799030      22.71987933      19.77911101       53       0.17985600      -0.89331500      -0.06564900 
I      12.96318142      10.46209563       7.05818410       53      -0.37502300      -0.79417900       0.20104100 
I      12.88880286      10.71172846      20.66516497       53       0.19735500      -0.19032600       0.14451500 
I      12.49868799      23.11406025       7.49143615       53      -0.11593400      -0.24876800      -0.17377900 
I      12.44668949      23.73854474      19.58649666       53       0.13183700      -0.67211300       0.22145100 
I       6.28219709       3.27260742       5.21874093       53       0.11504300      -0.17184400       0.14612000 
I       6.84051782       3.95892407      19.63872905       53       0.12960100      -0.23327000      -0.03831400 
I       5.32708994      16.36933585       6.74669767       53       0.12539600       0.03547800      -0.05944100 
I       5.85104598      16.62193675      19.62011475       53       0.22865900      -0.37956200       0.33092300 
I      20.24361771       4.11769358       6.95757088       53      -0.11744700      -0.29219600      -0.35285500 
I      19.91840623       3.33132443      20.36177690       53      -0.40984700       0.33718300      -0.60166100 
I      18.20126181      16.60868153       6.86785965       53       0.07694700       0.24081900      -0.33752500 
I      21.01970687      16.86336601      19.78014054       53      -0.14674900      -0.29802000      -0.20367300 
I       3.61365817       6.61456524       6.26204768       53      -0.18982100      -0.07676300      -0.00502400 
I       3.34465217       6.38674766      19.36398607       53      -0.48426300       0.21882400       0.11749200 
I       2.64235122      20.13676193       6.09719392       53      -0.08110300      -0.24718200       0.04760100 
I       3.04654658      19.55863598      19.41805589       53      -0.70355300       0.32680800       0.11336600 
I      16.95553055       7.16610925       7.70355849       53      -0.64122700       0.12160900      -0.27208400 
I      16.47213888       7.01821928      20.30826066       53       0.30196300       0.25950300       0.39676400 
I      15.81637623      19.71923271       7.45099435       53      -0.29903300       0.17286100      -0.26113400 
I      16.64455070      19.37739449      19.76067034       53      -0.22413200       0.39225500      -0.53464800 
I       9.25698694      13.37555583       5.98797369       53       1.11739500       0.47253900      -0.07795100 
I       9.70469329      13.09900606      19.62726632       53       0.04611800       0.18989600      -0.26370000 
I       9.11987947      26.24031587       6.35607620       53      -0.06336900      -0.04048200      -0.17395600 
I       9.53205472      26.87882977      20.23197318       53       0.29735600       0.15815300      -0.03181100 
I      23.16132372      13.99592424       5.17033762       53      -0.33086800      -0.22506200       0.16695200 
I      23.61893011      12.70178149      19.16619343       53      -0.93452500       0.12615300      -0.17527500 
I      22.56481736      26.83580699       6.18737804       53      -0.28464300       0.28398100       0.25671900 
I      22.76473341      27.05458451      19.99491228       53      -0.70716700      -0.04436500      -0.29622200 
I      10.21838975       6.83920435       5.67397674       53      -0.07074800      -0.14361300       0.12213600 
I       9.55295993       7.77175372      19.52201816       53       0.46741700      -0.27016500       0.22575800 
I       8.86349953      20.12607952       7.63353093       53       0.29417600      -0.13164100      -0.14189900 
I       9.45673447      20.07301574      19.97149248       53       0.66853800       0.05170400       0.02861300 
I      23.37314475       7.90213145       5.94883616       53      -0.25604400      -0.09453000       0.10074400 
I      23.19098812       6.23131902      19.72940648       53      -0.56954600       0.04710500       0.06493600 
I      22.28425467      20.65184132       6.41332347       53      -0.10933800      -0.06103600       0.08320400 
I      23.06622992      20.98478144      20.30858443       53      -0.60944400      -0.08833100       0.07494200 
I       3.49094372      -0.10634102       6.86348414       53      -0.77094800      -0.04174700       0.00925500 
I       3.86284467      -0.19340590      19.72127543       53      -0.61144600      -0.08516200      -0.11725700 
I       3.22581582      12.26240026       7.12133995       53      -0.00475700       0.40517600      -0.05675800 
I       3.37779226      13.39197421      20.38545817       53      -0.52680900       0.19720800      -0.09119000 
I      16.44893356       0.21799005       7.32638629       53       0.09742000       0.06808800      -0.19769100 
I      16.61612828      -0.16169673      19.46155666       53       0.36138400       0.24664100       0.26284500 
I      15.73868030      12.93809782       6.04312513       53       0.47203200       0.36503600       0.10030700 
I      16.48375788      14.01677940      20.28761079       53      -0.06469500      -0.18217800      -0.17084000 
I      -0.60443926       9.83117146       0.73544512       53       0.30775500       0.42880700      -0.04744800 
I       0.39343634       9.87462321      12.79723889       53       0.05698600      -0.22898700       0.09827700 
I      -0.01995535      23.10628361      -0.17803238       53       0.37439900      -0.69530000      -0.32261300 
I      -0.34472254      22.80154530      13.07140277       53       0.03644600       0.11049800      -0.10055400 
I      13.28764118      10.40186905      -1.28051881       53      -0.24584200       0.07972700       0.22974700 
I      13.55912705      10.29659126      12.95443857       53      -0.00186000      -0.14402600       0.07333600 
I      12.11000710      23.51072000       1.31198388       53       0.59017200      -0.27351900      -0.46529900 
I      12.79389496      23.20799480      11.78158344       53      -0.17943100      -0.41888800       0.42451100 
I       6.54461224       3.44762474       0.22981026       53       0.22848100       0.20261200      -0.07343300 
I       7.46487362       3.85562569      12.73239270       53       0.06322000       0.66989600       0.01601200 
I       6.09381833      16.74631807       0.57774498       53      -0.26687200       0.10001800      -0.67118200 
I       7.79887187      17.22096076      12.63274976       53      -0.33682000       0.41693600       0.21352700 
I      18.65970879       3.72274767       0.50732930       53       0.18952400      -0.34302600       0.10987000 
I      20.05274275       3.26289122      12.78754414       53       0.12479900       0.39227000       0.03824000 
I      19.72875894      17.05498555       0.52619179       53      -0.14796100      -0.02243800       0.01606100 
I      20.46653481      16.38069236      13.00861870       53      -0.11610200       0.28447100       0.44621000 
I      12.71616532       3.52298074      13.30200867       53      -0.04302100       0.18828400       0.07263000 
I      13.63098591       4.18181564      27.06418326       53      -0.00034400      -0.68518100       0.36409500 
I      13.08895587      16.79103120      14.04622013       53      -0.16451100       0.25378600       0.02917500 
I      12.31547629      16.62883911      27.16804033       53      -0.42117000       0.04177800      -0.10405300 
I      25.42017133       3.97643735      13.44916020       53      -0.13097400       0.23482800      -0.11330500 
I      25.34775583       3.78419580      26.81090110       53       0.04964000       0.07974000      -0.07965600 
I      25.37176190      17.04392830      12.77500387       53      -0.09308200       0.07242100       0.13284600 
I      24.84947477      17.37242142      26.33878015       53       0.50410000       0.11046600       0.12843000 
I       4.91095386      10.12893081      12.99854399       53      -0.45293000      -1.38859000       0.10312100 
I       6.59633293      10.01384081      26.24320121       53      -0.09359500       0.03575200       0.03363300 
I       4.78994303      24.04681900      12.50105857       53       0.14277100      -0.56903000      -0.02854100 
I       4.88806516      22.95490160      25.84595213       53       0.16020000       0.31162900      -0.05639000 
I      19.29293000       9.89737300      13.12227981       53      -0.22709800       0.43200900      -0.03855300 
I      19.70654332      10.04927794      26.24890245       53      -0.14590900       0.34889700      -0.23539200 
I      19.28966062      23.31738152      12.34838862       53      -0.34961000      -0.46605600       0.07058600 
I      18.93338445      23.48436992      25.82037317       53      -0.54575900      -0.08381900      -0.17254100 
I       9.49714154       8.03253675      13.19177218       53       0.23046800       0.24674600      -0.21226900 
I      10.12557359       6.98911254      27.33040809       53      -0.28130800      -0.01172700      -0.36458200 
I       9.04965683      21.25078362      12.67796030       53       0.88221300       0.81087400      -0.08907600 
I       9.46483284      20.54089396      26.17995549       53       0.05008600      -0.18449400      -0.05232100 
I      22.89405812       7.38361007      13.13057734       53      -0.52341500      -0.04394100       0.11203100 
I      23.03315315       7.57380175      27.70899385       53      -0.03643500      -0.67587500      -0.38871600 
I      22.34341392      20.75698224      12.46796546       53       0.10350200      -0.17883500       0.11620600 
I      22.06962285      21.45470340      25.46602328       53       0.95319800      -0.48484200       0.16173700 
I       3.03113527       1.40916737      12.70498652       53       0.21697000      -0.02359900       0.06289600 
I       3.40240910       1.13874168      26.31999528       53      -0.22133600      -0.86624500      -0.45314000 
I       2.76140308      13.64256609      12.40045147       53       0.53645100      -0.13846200       0.19096100 
I       3.30575875      13.17400663      24.58136654       53       0.07401700       0.37838900       0.88488900 
I      16.51295143       0.03247314      12.21020770       53       0.12603600       0.08230000       0.13382300 
I      16.41235761       0.11007818      25.98904375       53       0.16477700      -0.06354100      -0.02498400 
I      16.28397971      14.03193436      13.71013320       53       0.35046600      -0.02406500      -0.13722500 
I      16.03681040      13.17854555      25.65223676       53       0.50307700       0.50670000      -0.09726100 
I       3.04119771       6.48561130      -0.57541832       53       0.52027400       0.45830200       0.65587500 
I       3.15237794       6.17011704      13.55523566       53       0.30827300       0.03144000       0.07861000 
I       2.78587999      19.58710437       0.13571331       53      -0.30826300      -0.27012800       0.08171500 
I       2.49521399      19.56283888      13.27454325       53       0.32324400      -0.11101700       0.05605900 
I      16.41020969       6.91537336      -0.43889915       53      -0.03554200       0.30061400      -0.08510400 
I      16.34628680       5.74464061      13.36928774       53      -0.13426000       0.15668100      -0.11876700 
I      15.34914964      19.04445641       0.01210925       53       0.67240400       0.23050300       0.06877900 
I      15.97018397      19.42529938      13.11612611       53       0.16337800       0.45231700       0.29071000 
I       9.56394977      12.81088325       0.19013754       53      -0.40129500       0.12543300      -0.07087200 
I       9.91437048      13.66666817      13.43890880       53      -0.47766400      -0.29372900      -0.08264500 
I       9.00301537      26.17930079      -1.00068537       53      -0.16833500       0.32267100       0.43161600 
I       9.42827834      26.04911611      13.23151537       53      -0.36426700      -0.14731100       0.14709100 
I      22.81057821      13.83865817       0.31565257       53      -0.13963700      -0.08075000       0.08905300 
I      22.60978686      12.39130825      13.51048270       53       0.67904500       0.16161500      -0.02865000 
I      22.60235646      25.66502624       0.69621159       53      -0.95690200       0.26654800      -0.15601900 
I      22.36667439      26.19016603      12.85975434       53      -0.15853600       0.02758700      -0.04946100 
I      12.73710628      13.52435686       9.82233056       53      -0.00474500       0.19815700       0.37868100 
I      12.23309435      14.18313048      22.93718507       53       0.08486700       0.06143900       0.19925900 
I      11.19541734      27.16840291       9.83585133       53       0.02615600      -0.16318900       0.53627700 