320
Lattice="25.0602521078 0.496061419957 0.123479648864 -0.972718754993 25.3306706755 0.221672007236 0.0907988783238 0.191151713754 25.2667674319" Properties=species:S:1:pos:R:3:Z:I:1:forces:R:3 energy=-101580.829972 stress="-764.961247 1005.871749 -331.006439 1005.871749 549.41415 -481.980969 -331.006439 -481.980969 -2170.641391" pbc="T T T"
Cs       2.53194378       9.65850341       3.72853915       55      -0.10478200      -0.03740900      -0.09663900 
Cs       2.52393540       9.28132707      16.52955990       55       0.23606800       0.22173100      -0.40296600 
Cs       1.81458498      21.62514458       3.24071755       55       0.10354700       0.29100300      -0.02075800 
Cs       2.62044096      22.25027268      15.78369418       55      -0.19586200      -0.68395000      -0.06477300 
Cs      15.09231308       9.44817611       3.34139401       55      -0.17228400       0.46026100       0.22434100 
Cs      15.32443932      10.84380310      15.79178199       55      -0.34191500      -0.54679400       0.03359000 
Cs      16.27427448      22.18698434       3.20609500       55      -0.20611400      -0.15639900       0.04554700 
Cs      14.80034270      21.52875671      15.87168630       55       0.37630800       0.25040200       0.24669600 
Cs       8.87841820       3.69344488       3.03151119       55       0.20149400      -0.08129600       0.19683400 
Cs       9.68066325       3.30605752      16.01411401       55      -0.27559300      -0.03806900       0.14100300 
Cs       9.42272112      16.49206096       2.99805763       55      -0.30292800      -0.10582700       0.16418700 
Cs       9.02043794      15.98687513      15.26358507       55       0.19508400       0.06490200       0.00627000 
Cs      21.64157127       3.53364411       2.79954676       55       0.28781600      -0.22924300       0.23350300 
Cs      22.17946631       4.59594960      16.50521604       55      -0.17027100       0.05400200      -0.39586400 
Cs      22.03831547      16.56798265       3.97426375       55      -0.13835900      -0.30748000      -0.14506400 
Cs      22.02921557      16.74931758      16.96033529       55      -0.40915600      -0.07704400      -0.45424300 
Cs       9.40474395       3.85035946       9.16664918       55      -0.26869000      -0.23621300       0.21529100 
Cs       9.09617624       3.80677235      22.57883290       55      -0.16091000       0.09023700      -0.02072100 
Cs       9.15133068      17.12354889       8.75067055       55       0.11482300      -0.69824500       0.72441100 
Cs       9.22550183      15.14783135      22.36262632       55       0.01096900       0.15948500      -0.03407800 
Cs      21.50239849       3.61242650      10.17325496       55       0.15824300      -0.06274900      -0.01850300 
Cs      20.95637249       4.28124861      22.44860409       55       0.54114900       0.29936100      -0.00728400 
Cs      21.56130508      16.13292455       9.75724790       55       0.03277100      -0.18372800       0.22950000 
Cs      21.20057308      16.03094866      23.13681165       55      -0.03985800       0.13496300      -0.17797700 
Cs       2.72531285      10.59873459       9.88506223       55       0.05932500      -0.18584000       0.01114200 
Cs       3.22631993      10.46228619      22.50742339       55      -0.13825900      -0.26908900       0.21220700 
Cs       2.54518025      22.36262534       9.41735572       55      -0.03623400      -0.03760100      -0.07711500 
Cs       1.71427137      22.88967092      21.91059823       55      -0.01140800      -0.10428700       0.09495300 
Cs      14.86632404       8.58959095       9.35078694       55       0.60695800       0.18028700       0.45194600 
Cs      15.12007271       9.49118461      21.88976821       55       0.05504600       0.12434000      -0.01715300 
Cs      14.43060593      22.77655725       8.97361747       55       0.39450000       0.20348200       0.15177900 
Cs      15.31756267      22.38722810      22.02992168       55      -0.02728400      -0.03563900       0.09919000 
Cs       2.00065275       3.03187111       8.93659122       55       0.06985100       0.53497400       0.30626500 
Cs       2.74954000       4.02727144      22.38087122       55       0.02258800      -0.57653000       0.55703100 
Cs       2.65175267      15.96810359       9.10066784       55       0.27732000       0.29976700       0.52223900 
Cs       2.30869383      16.27507374      21.34630280       55      -0.07275100      -0.43321300       0.26882200 
Cs      16.76535886       3.29746660       9.21888800       55      -0.51147800      -0.62309300      -0.04688200 
Cs      16.66242777       3.66879308      21.62993627       55      -0.25464100      -0.19087700       0.07062900 
Cs      15.07088875      16.35608330       9.59617124       55      -0.29004100       0.15821800       0.40219900 
Cs      15.45849776      15.91822040      23.37224088       55      -0.05031900       0.02592300      -0.43608200 
Cs       9.48603104       9.23111142      10.02476360       55      -0.12101700       0.12544400      -0.01970600 
Cs       8.71301863       9.85858241      21.80357665       55       0.49869800      -0.36369900      -0.16275000 
Cs       8.80386556      22.67262683       9.56858715       55       0.13617700      -0.34782000       0.06209000 
Cs       8.29872680      22.39197174      22.09513513       55      -0.12347400       0.68320500       0.42913400 
Cs      20.86267761       9.65697548      10.35796545       55       0.08281000       0.10341800       0.00111500 
Cs      21.28270357      10.71530718      22.09774477       55      -0.00956600      -0.73895900       0.76037200 
Cs      21.61781485      23.51830110       9.97194126       55      -0.31061700      -0.27028600       0.06398900 
Cs      21.28836220      23.17233056      23.10750154       55      -0.28101800      -0.51100600      -0.04987700 
Cs       8.06229725       9.49821719       3.82263611       55       0.14094400       0.05752100       0.03234500 
Cs       9.33457895       9.18893161      15.37847871       55      -0.16282900       0.10525500       0.20010400 
Cs       8.18331927      22.42433280       4.19298385       55       0.17282400       0.37228400      -0.08197300 
Cs       8.28066921      22.31692384      16.43542665       55       0.13697900      -0.13305700      -0.31854200 
Cs      21.10663107      10.11181523       3.04962762       55       0.41578300      -0.05848600       0.06512900 
Cs      21.55315843      10.88843073      15.84168087       55      -0.07822700       0.03937500      -0.04868100 
Cs      21.89470406      22.99493901       3.57472554       55      -0.11214200      -0.06654400      -0.15452700 
Cs      20.94055874      22.61790095      15.92656418       55      -0.11352300      -0.16206000      -0.21447000 
Cs       3.72836458       3.47195038       3.77158785       55      -0.22039100      -0.14592100      -0.20269700 
Cs       2.35764241       3.48656572      15.80617275       55       0.29598700       0.04681100       0.13824500 
Cs       3.26182903      15.50956563       2.48013940       55      -0.03885300       0.10437400       0.24282800 
Cs       3.40622206      15.87487160      15.02810091       55      -0.11626900      -0.34650200       0.15013500 
Cs      14.85262075       3.67419084       3.18701356       55       0.14557300       0.20906800      -0.00490000 
Cs      16.33854254       3.18454711      16.20559622       55      -0.26884600       0.00181300       0.06758300 
Cs      15.14597293      15.95412375       3.07877690       55      -0.09235400      -0.18270000      -0.07277100 
Cs      15.79190948      16.94551989      15.78361376       55      -0.19822000      -0.32629500       0.12017500 
Pb       0.15153055      -0.01859795       6.61100782       82      -0.31040300       0.20850700       0.04807700 
Pb      -0.27791600       0.12286377      19.18126157       82       0.04198800      -0.05017400      -0.57797400 
Pb      -0.44710597      12.36101209       6.37809996       82      -0.00675200      -0.11519400       0.10659200 
Pb      -0.16639694      13.21021197      19.05443873       82      -0.22068100      -0.50566200       0.00419000 
Pb      12.22102730       0.90378061       5.96020211       82       0.46055200      -0.35166500      -0.06148500 
Pb      13.20716984       0.67384132      18.87195246       82      -0.57308800      -0.03290000       0.59518700 
Pb      12.02238698      12.77994654       6.50934674       82       0.56843300       0.72647700       0.72361500 
Pb      12.00000157      13.16815573      19.17576967       82       0.51184800      -0.06665000      -0.44649500 
Pb       5.62353545       6.70129772       6.72352229       82       0.15929100      -0.02628900       0.36223400 
Pb       5.67342747       6.32538844      19.16987764       82       0.37744500      -0.04020200      -0.39366700 
Pb       5.65337220      19.01154497       6.08291485       82      -0.14399900       1.18945200      -0.23905500 
Pb       5.33423747      18.82194864      18.90451653       82       0.03300800       0.20458800       0.76094100 
Pb      18.35054589       6.94874638       6.11008999       82      -0.01663300      -0.23086600       0.12378600 
Pb      18.34300236       7.00635943      18.79915821       82       0.40199400       0.76798100      -0.09589200 
Pb      18.80918584      19.11893333       7.02239286       82       0.34662400       1.37507300      -0.07496300 
Pb      18.23213743      19.44862429      19.23708191       82       0.39105300       0.00790500       0.36663300 
Pb      -0.97800275       6.20211081       6.39721474       82       0.68881700       0.28550600       0.15117000 
Pb      -0.41298063       7.03963254      19.20339494       82      -0.19292100      -0.06880200       0.08733300 
Pb      -0.22553988      18.94615793       6.48030533       82      -0.40079600       0.60407000       0.48636000 
Pb      -0.60541804      18.94546556      19.03445897       82      -0.28739200       0.53303200       0.14832100 
Pb      12.05309752       6.97098469       6.54640338       82       0.10820900       0.52515600      -0.41403200 
Pb      12.23120694       6.85785630      18.68043887       82      -0.61121800       0.50363900      -0.04255100 
Pb      12.66897765      19.39945995       5.99436766       82      -0.29058200      -0.08660800       0.14531100 
Pb      11.95103239      19.26530835      19.56728871       82      -0.77083000       0.39833600      -0.37146500 
Pb       6.26212461       0.38398532       6.62241039       82      -0.32661300      -0.24471600      -0.16720900 
Pb       5.91943353      -0.24079855      18.99559000       82      -0.19078500       0.22403900       0.03071600 
Pb       5.88549452      13.10707885       6.71701732       82      -0.04693800      -0.46828900       0.63682200 
Pb       5.89898206      12.82808507      19.02122446       82       0.34049800      -0.06202800       0.36635800 
Pb      18.99780245       0.69129676       6.37426151       82      -0.03336300      -0.60055300      -0.35468500 
Pb      19.67145450       0.76917298      18.58399313       82      -0.07942600      -1.16223600      -0.21990900 
Pb      18.19712063      13.22613948       6.76372697       82       0.01126400      -0.56172000       0.10095000 
Pb      18.61233235      13.24910350      19.56156928       82      -0.99084300       0.07004800      -0.65104400 
Pb       0.35425743       0.08621216       0.14514130       82      -0.88222100       0.03507500       0.29120200 
Pb       0.53981917       0.44911150      13.34768127       82      -0.33543800      -0.32017200      -0.99632200 
Pb      -0.32487769      12.94879326      -0.09459712       82       0.27718500      -0.67567000       0.74097400 
Pb      -0.24098881      13.09454848      12.91636257       82      -0.78432400       0.24588900      -0.51960700 
Pb      12.03671791       0.26727837      -0.36222658       82       0.29742800       0.54735400      -0.37425500 
Pb      12.70702774      -0.03776667      12.16904836       82       0.07080400       0.04781100       0.80256000 
Pb      12.00899947      12.45011730       0.61510047       82      -0.17213400      -0.23715000      -0.14669900 
Pb      12.39746756      12.99023068      12.69126597       82      -0.03440700       1.42472100       0.19152400 
Pb       5.82743133       6.77348197       0.41220098       82      -1.50928600       0.06232400      -0.35952800 
Pb       5.40119559       6.18547720      12.72891005       82       0.41569800      -0.36287300       0.22324100 
Pb       5.78226726      19.08877001      -0.34933825       82      -0.47307800      -0.04999200       0.08219400 
Pb       5.47241288      19.29197352      12.68147272       82       0.38581000      -0.11993000      -0.30231000 
Pb      18.25831225       5.70112041       0.22982357       82       0.03588700       0.37732700      -1.07518800 
Pb      18.05131736       6.75127505      12.77618458       82       0.10121800       0.39179600       0.25951500 
Pb      18.63888180      19.20917910       0.63697297       82      -0.21900100       0.82566200       0.21739900 
Pb      18.61952479      19.20597712      12.92586749       82      -0.26351900       0.34630300      -0.68329100 
Pb      -0.78525937       6.48058581      -0.01869406       82       0.50770600       0.22436700       0.41008900 
Pb      -0.68940499       6.62055393      12.80384026       82       0.11019900       0.04388000      -0.28665100 
Pb      -0.34953930      19.04644898       0.06095036       82       0.02951300      -0.55245500       0.24195600 
Pb      -0.68151626      19.14695971      12.84901610       82      -0.14224600       0.61707300      -0.20064000 
Pb      11.79500829       6.74449941      -0.34328833       82       0.29882600      -0.34141400       1.02196100 
Pb      11.96869181       5.93068409      12.67493539       82      -0.05714600       0.33209400       0.01971700 
Pb      11.55024968      19.36046251      -0.14240613       82       0.81705700       0.32576600      -0.25390600 
Pb      12.25437690      19.51195971      12.93303737       82      -0.52344200      -0.16565500       0.03760300 
Pb       6.35960400       0.13756639       0.10125802       82      -0.23554400      -0.28827200       0.33181900 
Pb       6.02804874      -0.02716631      12.87785940       82       0.70494700       0.66116700      -0.02983200 
Pb       6.29285183      12.55200003       0.37458239       82      -0.42468500       0.30663100      -0.17609100 
Pb       6.08511652      12.37489386      13.14620673       82       0.06467200       0.23967800      -0.72036900 
Pb      18.54368940      -0.02169009      -0.20160007       82      -0.13215900      -0.51815300       0.19562600 
Pb      19.13242577       0.67767683      12.54909422       82      -0.02615500      -0.56100400       0.33640400 
Pb      18.22882561      12.70012853       0.63446533       82       0.62791600       0.05114800       0.15910200 
Pb      18.47711473      13.43792899      13.11323960       82      -0.10556200      -0.63033800      -0.03050600 
I      11.53678372       4.19433918       5.97681415       53       0.09660100      -1.54516900      -0.38713200 
I      12.90922799       3.89067202      18.56723399       53      -0.18856300      -1.06181600      -0.09723300 
I      12.45155304      16.14069266       6.25811454       53      -0.10812400       0.62895600      -0.22864800 
I      10.68077191      15.82741858      18.67077507       53       0.11646900       0.42554100       0.26644300 
I      23.84437230       3.81087558       6.40468962       53      -0.11516900      -0.53968300      -0.11184500 
I      24.07895911       4.13373696      19.45068572       53       0.09260200       0.06347500       0.24650200 
I      23.99546349      16.73598892       7.12350083       53       0.03361500      -0.69314100      -0.13454400 
I      23.75185720      16.49360262      20.03134800       53       0.07848900      -0.04098200       0.18430000 
I       5.88783446       9.80310630       7.18389220       53      -0.06720600       0.36249600      -0.40059300 
I       5.53562963       9.40573642      18.34574537       53       0.17117900       0.10660100       0.27276500 
I       4.48166694      22.52285467       5.55971949       53       0.31699300      -0.08691900       0.63693600 
I       4.46216478      21.89270441      19.56219399       53      -0.25338000       0.29106000      -0.36154200 
I      17.74428837       9.81587204       6.36806252       53      -0.15471800      -0.39941600       0.58433800 
I      18.03468473      10.13161846      19.47700372       53      -0.10570200      -0.32613800      -0.16481800 
I      18.05095843      22.41314598       7.46448747       53      -0.16379000      -0.27922800      -0.35425100 
I      18.15788292      22.93571958      18.57813346       53      -0.04523300      -0.51389500       0.56066800 
I       0.35423096       9.38983931       6.72015752       53      -0.06939400       0.46060000       0.08478300 
I      -0.44364313      10.04343314      18.25678922       53       0.08245700       0.13419700       0.33106000 
I      -0.34301864      22.45145596       7.03989439       53       0.16245800      -0.08192200      -0.12328900 
I      -1.54392320      22.08785149      19.68430458       53       0.44053600       0.37970700      -0.30674100 
I      13.04725629       9.98661544       6.73466498       53      -0.05653800      -0.02415200       0.03533800 
I      12.32513228       9.88610569      18.32566068       53       0.15659900       0.13715300       0.19533700 
I      12.00176094      22.89670547       6.08187629       53      -0.12914600      -0.08616200      -0.01189100 
I      11.49702525      22.49828525      20.33572029       53       0.33272900      -0.34910800      -0.21608300 
I       6.68040003       3.67055245       6.45318120       53      -0.08156600      -0.26927900      -0.01717200 
I       5.47962689       3.06691634      19.07709481       53       0.36425900       0.13938300       0.14737800 
I       5.91657381      16.18711104       6.40823288       53       0.12346700      -0.52360800       0.00782600 
I       6.15479607      15.74996994      20.15206895       53      -0.14989700       0.05042100      -0.31007100 
I      19.16502122       3.64975872       5.66342435       53      -0.05162300       0.25495200       0.13200700 
I      19.23157921       3.74102637      18.87852411       53      -0.06117200       0.60779600      -0.06056600 
I      19.04502697      16.03758210       6.83797658       53       0.17650300       0.23680400      -0.25853700 
I      18.55518318      16.31039651      19.24420864       53       0.13607300       0.36942100      -0.18556500 
I       2.77372695       5.94394312       6.70556670       53      -0.15140000       0.05542100       0.00492400 
I       2.69115024       6.03424086      19.75779218       53      -0.10260300       0.59501800      -0.83828400 
I       2.35216325      18.54638926       5.04391761       53       0.68784000      -0.32064200       0.12507200 
I       1.95022430      17.79261715      17.94901784       53       0.41683200       0.02128400      -0.02785300 
I      15.35370824       6.08279423       6.40301263       53       0.17010600       0.01245900      -0.00206100 
I      15.36787835       6.44935746      18.79311907       53       0.68298200       0.23016500       0.15479600 
I      15.46617564      19.02420676       4.82339498       53      -0.04077100       0.14732000       0.49304600 
I      14.81958006      19.49518487      19.45537639       53       0.52910400       0.03848100      -0.32899400 
I       9.23020133      13.46273084       6.61563475       53      -0.83278400       0.10526300       0.27291500 
I       8.86612907      12.20774571      18.74012021       53       0.10595500      -0.13528900       0.13419600 
I       8.31559578      25.55920659       6.55088419       53       0.62806500      -0.02645800      -0.21019500 
I       7.81684725      24.78184183      19.01713789       53      -0.08853700       0.22303100       0.04383800 
I      21.61675275      12.38262961       6.38754212       53       0.17599400       0.04824100      -0.14711800 
I      21.48695349      12.83233345      19.61922450       53       0.78272800       0.61146400      -0.74004100 
I      21.21188445      25.14337310       6.34397266       53       0.11584700       0.27190900       0.26980200 
I      21.38844044      25.71542192      17.50389484       53      -0.36514700       0.56179200       0.08738700 
I       9.03045576       6.84640764       6.70456540       53      -0.20459600       0.48289700       0.08094200 
I       9.04299300       7.27472442      19.00018849       53       0.15192200      -0.28241600      -0.13784300 
I       8.77838409      19.54803958       6.54644555       53      -0.08550100       0.51642000      -0.49363000 
I       7.93351203      20.21541810      19.53984291       53       0.15375000      -0.75207600      -0.40155100 
I      21.43954460       7.85095886       6.98965521       53      -0.67654000       0.08046800      -0.16725900 
I      21.70638656       8.15947949      18.35139615       53      -0.16993600      -0.49575600       0.33765400 
I      21.78124322      20.60040864       7.68168161       53      -0.42253200      -0.70086300      -0.33742900 
I      21.29528887      19.74322980      19.39946387       53      -0.55568200      -0.18645000      -0.04018800 
I       3.25998336       0.93336041       6.39173852       53      -0.12860300      -0.19404400       0.07105000 
I       2.51527584       0.91931584      19.31889171       53       0.40867900      -0.01888400       0.37105700 
I       2.84151278      13.27509100       7.26797330       53      -0.00327500      -0.77851900      -0.79655700 
I       2.79583384      12.71362587      19.69264836       53      -0.13612600       0.20782000      -0.26216800 
I      15.85306579       0.80969051       6.42497045       53      -0.06085500       0.08095400       0.02509700 
I      16.00516514       0.34811434      19.97288763       53       0.33914200       0.16251300      -0.42167100 
I      15.28055114      13.72046408       7.34546313       53       0.27657800      -0.39327000      -0.34134800 
I      15.25949752      13.92257411      19.35766261       53      -0.39057800      -0.10454000       0.01308400 
I       0.36636905       9.69504616       0.39940581       53      -0.18543100      -0.09391400       0.03967200 
I      -0.70940240       9.90951887      12.94340727       53      -0.22625000      -0.57008700      -0.07832600 
I      -0.33448951      21.99462539       0.16888399       53      -0.11539200       0.66901300      -0.05233100 
I      -0.68443678      22.14816636      12.32574816       53       0.18544700       0.35793000       0.12007300 
I      13.41932614       9.28761040       0.13866673       53      -0.22321700       0.07024900      -0.25642500 
I      12.31478788      10.21992931      12.78969860       53       0.01873400      -1.48955500      -0.16652000 
I      11.48365834      22.76473494      -0.44386771       53       0.11269900      -0.97434700      -0.06849800 
I      12.95115576      22.59727982      13.06542568       53      -0.40844600       0.06573400      -0.36474800 
I       6.23020780       3.18874940       0.68450935       53      -0.13852300       0.38507700      -0.47256200 
I       7.09296289       3.21328449      12.90223954       53      -0.50762200      -0.49355800      -0.19454700 
I       6.46265376      15.85045517      -0.06648150       53       0.18165300      -0.03196300       0.18764600 
I       6.26444004      16.27835418      12.78528447       53      -0.12688900      -0.03254900      -0.17904700 
I      18.96827267       2.82747801       0.41613161       53      -0.05703900       0.79647500       0.33813400 
I      18.59417474       3.81013320      13.58090688       53       0.33020600      -0.32390200      -0.26328900 
I      18.30123837      16.36249706       0.53797644       53       0.02283800      -0.96052200       0.13573400 
I      19.02944663      16.20546186      13.91305350       53       0.06901600       0.67194300       0.13857500 
I      11.42517149       3.09963438      12.83928267       53       0.17275300      -0.26552400      -0.14613200 
I      12.08497608       3.65556837      25.58074075       53      -0.33572700       0.29965900      -0.05407300 
I      12.14373165      16.42467820      12.90216893       53      -0.05635500       0.28010000       0.08464700 
I      11.77462939      15.64693098      25.39062759       53       0.00704400      -0.15100800       0.16539100 
I      24.38903808       3.72383278      12.99778500       53       0.04956900       0.17674600       0.37241100 
I      24.15586935       3.88072186      25.16263205       53       0.17425500       0.17207200      -0.14288900 
I      24.73875586      16.80769754      12.48160652       53       0.16428500      -1.15886200       0.04071800 
I      24.10025791      16.49176087      25.60660861       53      -0.03598000       0.49454300       0.02793600 
I       5.76313287       9.40785668      13.33815869       53       0.06768700       0.14420700       0.27953600 
I       4.86092039      10.04786786      25.95867811       53       0.32467800      -0.31480300      -0.00870100 
I       4.83738169      22.36514867      12.24966759       53      -0.10163500      -0.25124400       0.31053700 
I       5.67770037      22.25033251      25.72379414       53      -0.14433100       0.32214500      -0.33311200 
I      17.52492787      10.04730494      12.74230540       53       0.09712800      -0.07757900      -0.35204400 
I      18.39338669      10.05310380      25.56755625       53       0.18468100      -0.13769900      -0.47094000 
I      18.34421450      22.64165149      12.11473340       53       0.12505900      -0.13114600       0.44289900 
I      18.25784446      22.49775764      25.05713055       53      -0.31953700      -0.07790200      -0.02088700 
I       8.80183944       6.25854703      12.68054008       53       0.87534400       0.63603600      -0.02499300 
I       8.73436547       6.78088428      25.37517866       53       1.25322200       0.04935300       0.12329700 
I       9.23296298      20.30094573      12.80874374       53      -0.20696300      -0.12560700      -0.25977100 
I       8.86956054      19.40023862      24.05549690       53      -0.46238600      -0.25513500      -0.08413500 
I      21.30981300       6.57955489      12.72130768       53       0.29342400       0.15780600       0.09622200 
I      21.32173436       7.10261393      26.43782641       53       0.23364100      -0.08375900      -0.26670700 
I      21.34271149      19.25052727      11.68040493       53       0.64254600       0.25698500       0.14793800 
I      21.41818010      19.79423589      24.93302129       53       0.43303100      -0.14239400      -0.23368300 
I       3.47963513       1.26134986      11.88830500       53      -0.56181700      -0.04305300       0.21826600 
I       3.05185773       0.50690598      24.31599473       53       0.02463700       0.13611300       0.27415300 
I       2.41019800      12.10002195      13.48532219       53       1.34232200      -0.02125900       0.12899800 
I       3.32402782      13.62523539      24.82735798       53      -0.27315700      -0.12713300      -0.08669300 
I      16.14523525      -0.02168323      12.02212317       53      -0.33248200       0.49850000      -0.02167900 
I      15.57760349       0.25050158      23.91422151       53       0.20701400       0.14865900       0.29644300 
I      15.60529840      14.28237837      13.18780989       53      -0.38220300      -0.10080000      -0.38335700 
I      15.44328321      12.77736240      25.49757856       53      -0.86655500       0.26403700       0.10063100 
I       2.66824997       6.05121772       0.24274622       53      -0.07978500      -0.07019700      -0.00873500 
I       2.39348397       5.83033322      12.29990089       53       0.24060000       0.00760300      -0.02485700 
I       2.66958470      18.83622074       0.85327370       53      -0.12450600      -0.04320600      -0.10299400 
I       2.61538742      18.92377253      13.51642796       53      -0.26413600       0.29641200      -0.15914900 
I      15.41159099       5.03601514      -0.59058793       53      -0.02741400       0.22317300       0.11705900 
I      15.24887264       6.03376032      13.39948270       53      -0.40485400      -0.09792800      -0.16154200 
I      14.61433082      18.59140721       0.28552425       53       0.09860400       0.18722600       0.05272300 
I      15.49806008      19.54664012      12.55789892       53      -0.34479300      -0.17391100       0.33104900 
I       9.10675208      11.11813661       0.29144375       53       0.32127800       0.02217200       0.06105100 
I       9.06320518      13.14461015      12.57042832       53      -0.15022400      -0.27353300       0.28423000 
I       8.32815950      24.95564304       0.95927241       53       0.04738500       0.16901900       0.01353500 
I       8.22373873      24.73679937      13.31071485       53       0.39156500       0.01252500       0.01088800 
I      21.63275185      12.83526083       0.14030548       53      -0.01076700      -0.07498400       0.09193100 
I      21.69173101      13.72407697      12.96181202       53      -0.08170500      -0.24800500       0.00983400 
I      20.85139076      25.53226388       0.56910673       53       0.32852500      -0.17296900       0.32073900 
I      21.21887584      25.68573817      13.35304569       53       0.22494300       0.01616900      -0.03189700 
I      11.74907143      13.91671052       9.82733542       53       0.16822600      -0.19585500      -0.51679000 
I      12.05833151      12.47442684      22.18456790       53      -0.06005300      -0.04244800       0.38493100 
I      11.50986454      25.59468627       9.53665564       53      -0.04080400      -0.01670200      -0.26892700 