320
Lattice="25.1739661378 0.798424604363 0.257144973477 -0.662441660996 25.6367278945 0.0544119868689 0.221403912 0.0449864364626 25.5478241944" Properties=species:S:1:pos:R:3:Z:I:1:forces:R:3 energy=-101582.448637 stress="1333.058274 -407.87299 -318.03282 -407.87299 1949.361434 44.303042 -318.03282 44.303042 -1760.099073" pbc="T T T"
Cs       2.61784986       9.26806323       3.50484157       55       0.07714800      -0.14010100       0.17017700 
Cs       3.63112870      10.06836384      16.49589128       55      -0.14571300      -0.14183800       0.13530300 
Cs       2.22274694      22.59801994       3.26277292       55      -0.06602800      -0.02228700      -0.16919000 
Cs       3.30990859      21.62012379      16.39749075       55      -0.32907300       0.37529800      -0.38864000 
Cs      14.61753679       9.91371294       3.66982879       55       0.13559300       0.08618700      -0.16381900 
Cs      15.34132917       9.43774492      15.93453694       55       0.36609100       0.40863400      -0.02852300 
Cs      15.87140625      22.35501477       3.37786641       55      -0.12419400       0.06158400      -0.06527400 
Cs      15.39909717      22.17927543      16.40013201       55      -0.01311600       0.07474500      -0.19318100 
Cs       9.40408082       3.65603152       3.10151097       55      -0.15479500      -0.04557100       0.00727300 
Cs       9.81195936       3.57346464      16.30919094       55      -0.12597200      -0.20305500      -0.15704200 
Cs       9.70011993      16.27450717       3.68711870       55       0.06975200       0.08663700      -0.31495500 
Cs       9.17764883      16.76409922      15.91441669       55      -0.13741000       0.03193500      -0.15508400 
Cs      22.59465204       3.46496736       3.31519110       55      -0.24715400       0.14318700      -0.05682500 
Cs      21.98287036       4.81471192      15.68516723       55      -0.04364500      -0.07168500       0.08441300 
Cs      22.21882790      16.71156225       3.46160640       55       0.19272600       0.02942500       0.19598800 
Cs      21.42996051      16.91541787      16.23704454       55       0.18039600      -0.04861000       0.05462700 
Cs       9.16802429       3.97970775       9.33152656       55       0.03200600      -0.07340600      -0.03861500 
Cs       9.44310167       3.76992317      22.47147046       55      -0.00549000      -0.02295900      -0.02193100 
Cs       9.94160647      16.99078267       9.72039758       55      -0.35614000      -0.04793600      -0.15980400 
Cs       9.90903432      15.96682794      22.45783950       55      -0.41138800      -0.06240500       0.22594700 
Cs      22.05132811       3.45758215       9.97108594       55      -0.01748000       0.44710600       0.23862100 
Cs      22.31411198       4.25233098      23.15303250       55      -0.80780100       0.58256400      -0.10721700 
Cs      22.11910575      16.31148075       9.52863649       55      -0.09748600       0.12215600       0.15501800 
Cs      22.32209019      16.42730780      23.12313427       55      -0.06442400       0.10282500       0.02862300 
Cs       3.56665758      10.64452622       9.86323115       55      -0.16150200      -0.18152000      -0.17094800 
Cs       2.98807272      10.12018308      22.92894972       55       0.04944400      -0.21086100      -0.17909800 
Cs       2.26254690      23.23386988       9.67393014       55       0.00878000      -0.28055600       0.08675600 
Cs       1.27751996      22.73213084      22.40910700       55       0.28759900       0.02485000      -0.24637900 
Cs      15.29492509       8.86253390      10.06022030       55       0.25109300       0.03249500      -0.31329100 
Cs      15.92858026      10.23971363      23.06467626       55      -0.23491800      -0.06985500      -0.11716800 
Cs      14.98239993      22.90991349       9.44582014       55      -0.40722700       0.08326600       0.32947400 
Cs      15.63091265      22.48860891      21.94941119       55       0.17198900      -0.16110100       0.60625900 
Cs       2.81765747       3.34582290       9.74223742       55       0.03456900       0.16433100      -0.02687700 
Cs       4.07358805       3.36409190      22.19475072       55      -0.10896900       0.22279000       0.31567300 
Cs       3.79680000      16.27903729      10.07487490       55      -0.59845400      -0.13120700      -0.43755700 
Cs       2.89429142      15.85670512      22.22079399       55       0.05852000       0.36776100      -0.25620000 
Cs      16.35753933       3.05324772       9.37327281       55      -0.14411300       0.08341900       0.13652800 
Cs      16.17455733       4.04623307      21.91655393       55      -0.10540600      -0.06694200       0.15028100 
Cs      14.74997166      17.00413248       9.61027872       55       0.53384500      -0.40128200       0.08857100 
Cs      15.17838129      15.79195086      22.61265969       55       0.15358800       0.23410300       0.35646000 
Cs       8.80332152      10.17966869       9.97582495       55       0.47272100      -0.52870400      -0.07093600 
Cs       9.77475116       9.66793189      21.64002426       55      -0.15427500       0.15021800       0.20074200 
Cs       9.58426614      22.60284309       9.76887566       55      -0.02147200       0.17658000      -0.17232000 
Cs       7.95170854      23.60215834      22.63694971       55       0.55447200      -0.81262900       0.02334200 
Cs      20.79744084      10.16501211      10.17626218       55       0.31658100       0.04755500       0.08038300 
Cs      20.83585978      10.07180004      22.29097132       55       0.18308400       0.10699700       0.03470300 
Cs      21.58908114      23.67593622      10.22842891       55       0.06195400       0.05392800      -0.11766200 
Cs      21.78395076      23.15818532      22.97455687       55      -0.00563000      -0.13827500      -0.06686600 
Cs       8.64812416      10.04630621       3.11348076       55      -0.11822000      -0.36520100       0.51138500 
Cs       9.67296195       9.77882392      15.77324628       55       0.06667400      -0.23696000      -0.03356800 
Cs       8.97776301      23.47145295       4.11183969       55      -0.05877400       0.00368100      -0.20023800 
Cs       8.56257647      22.69653035      15.91482159       55       0.07008100       0.24648800       0.01679300 
Cs      20.63338914       9.84725890       3.77234069       55      -0.04000000      -0.20329100      -0.18940200 
Cs      22.29579448      10.62648294      16.04359950       55       0.05074300       0.14448900      -0.07651600 
Cs      21.21782969      23.00970295       2.89085819       55       0.08459700       0.00422800       0.11161300 
Cs      20.83622211      23.31800686      16.41988596       55       0.23798400      -0.16656300      -0.01253600 
Cs       3.25824379       3.04530119       3.62972689       55       0.43533600       0.60934400       0.03108100 
Cs       2.76876360       3.50470198      17.51046402       55      -0.03840900      -0.12418600      -0.46663600 
Cs       3.95714523      15.75372695       3.04164521       55      -0.35254800       0.15258800      -0.20618100 
Cs       2.15355958      15.72350103      15.08716600       55       0.80589400       0.47531200       0.21919200 
Cs      14.62501803       4.20329059       2.77151276       55       0.43762500      -0.41397200       0.15332400 
Cs      16.41562808       4.06350714      17.04033091       55       0.02625300      -0.54505700      -0.66423000 
Cs      15.70376193      16.04351634       3.80361696       55      -0.22275900       0.27648700      -0.13792100 
Cs      15.28061896      16.43600275      16.26086433       55       0.09265900       0.13457900      -0.36824000 
Pb      -0.28315062       0.02563837       6.15948780       82       0.15841400      -0.57600200       0.27832800 
Pb      -0.19432216       0.10290887      18.93752463       82       0.32912100      -0.07192500       0.18109100 
Pb      -0.25957140      12.26325585       6.16923806       82       0.08667400      -0.22695000       0.48663000 
Pb      -0.03551436      12.80338414      19.26924836       82       0.12362500       0.68210900       0.08067500 
Pb      12.84610057       0.04976406       6.23277861       82      -0.34545500       1.38459400       0.54016000 
Pb      13.16636139       0.37948012      19.51565211       82      -0.22270100      -0.05169600      -0.59410300 
Pb      12.92132776      13.61193223       6.89115246       82      -0.91637700      -0.68396000      -0.25990800 
Pb      12.09662428      13.68491317      18.87465231       82       0.58412100      -1.31530700      -0.12065900 
Pb       5.64251304       6.72303196       6.98582573       82       0.31039400       0.26100500      -0.24377500 
Pb       6.46367044       6.29893169      19.11352037       82      -0.71625500       0.99767800      -0.19786800 
Pb       5.63441505      19.86315308       5.77625468       82       0.17473400      -0.51749200       0.61690500 
Pb       5.98901017      19.80374667      19.76838576       82      -0.30264800      -0.26924500      -0.00004600 
Pb      18.14449538       6.68211531       6.97360746       82      -0.15157100       0.44850200      -0.10208200 
Pb      19.08385479       7.33237335      19.28283973       82      -0.58522500      -0.29771400      -0.27640400 
Pb      19.05580781      19.98959365       6.96534216       82      -0.08546300       0.29198500      -0.00508000 
Pb      18.89377269      19.32566109      19.39367929       82      -0.02060100       0.22352300      -0.12461200 
Pb      -0.61278650       5.92468062       6.88597390       82       0.50088900       0.70483200      -0.25264900 
Pb      -0.15511025       6.71086616      19.16710276       82       0.59967700      -0.40719700       0.17823100 
Pb      -0.31955101      19.18475995       6.29442632       82       0.20389700       0.24855800       0.09917200 
Pb       0.10880120      19.14628458      18.64753427       82      -0.40871200       0.52166800       0.04695700 
Pb      12.15304492       7.28976187       6.83007299       82      -0.35309900      -0.92862800      -0.29786500 
Pb      12.43708850       7.13071647      19.36397906       82       0.20071200      -0.38627200       0.12202300 
Pb      12.21017241      19.73914883       5.95002496       82       0.10397500      -0.02556700      -0.34906100 
Pb      12.17594304      19.48437880      19.41752877       82       0.52567300       0.76215600      -0.22825600 
Pb       5.97080354       0.16011556       6.64577928       82       0.57330500       0.30669000      -0.07328200 
Pb       5.83371678       0.24863614      19.40778742       82       0.29488700      -0.10829800      -0.04917700 
Pb       6.40092187      13.44305044       6.89191375       82      -0.16447900      -0.49207800       0.00997800 
Pb       6.57360021      13.17746494      19.25779138       82      -0.08769300      -0.01200300      -0.00623200 
Pb      18.95244355       0.84839358       6.32095467       82      -0.26917700      -0.88076200       0.02573800 
Pb      19.37538654       0.34907602      19.08470913       82       0.01020000       0.91090800       0.17678300 
Pb      19.04425084      13.40863694       6.79765528       82       0.08191200      -0.53548100       0.09365500 
Pb      18.34207654      13.54444268      19.52333728       82      -0.19127100      -0.32258900      -0.14348500 
Pb      -0.02105082       0.04843353      -0.24045499       82       0.19078300       0.84391700      -0.13890200 
Pb       0.25826958       0.50408628      12.86138677       82       0.30598000       0.02091600       0.17410900 
Pb       0.13989829      12.36250380       0.49141163       82      -0.45420300       0.55308400      -0.00144500 
Pb      -0.49154825      12.76117558      12.85374119       82      -0.01315800       0.28790500      -0.57660100 
Pb      12.70683685       0.59144958      -0.20293791       82       0.05338200       0.14560900      -0.61296400 
Pb      12.53276066       0.11865640      13.18097341       82       0.74667000       0.21811400      -0.65959000 
Pb      12.21423230      12.86044926      -0.00685855       82       0.04114800       0.43221300       0.43258700 
Pb      12.70093858      13.20278850      12.80708170       82      -0.43235400       0.82762500      -0.28743800 
Pb       5.32635765       6.44480251      -0.10843986       82       0.69608400      -0.03417200       0.34598900 
Pb       6.25031898       6.81124862      13.00893064       82      -0.79121400      -0.16740600       0.42691100 
Pb       6.53131542      19.08007011       0.21971007       82      -1.40456300      -0.19074700      -0.57689700 
Pb       6.11176507      19.63889606      12.64277954       82      -0.97787000       0.62492300       0.02755700 
Pb      18.53333770       6.78171569       0.28802229       82       0.21669600      -0.51921400       0.33954800 
Pb      18.62004465       7.04488466      13.09863919       82       0.29150700       0.28389200       0.01203900 
Pb      19.14439175      19.47640753       0.48766457       82      -0.38413500      -0.13985000       0.44890000 
Pb      19.17049738      19.61377446      12.63079985       82      -0.25242600      -0.09514200      -0.04967200 
Pb      -0.66390484       6.51947334       0.21499976       82      -0.53008500      -0.56372700       0.22653700 
Pb       0.10442948       6.62331279      12.88928228       82       0.21793000       0.05463200      -0.13377400 
Pb       0.04828404      18.81563595       0.09747886       82       0.52114800      -0.08756200       0.02670900 
Pb       0.17331984      20.23073469      12.54540264       82      -0.26529600      -1.27883000       0.16578900 
Pb      12.53117769       6.60998377       0.08724648       82      -1.57401700       0.29001300       0.05662000 
Pb      12.35881614       6.36144068      13.07527281       82       0.05960800       0.26682800      -0.48161300 
Pb      12.51400559      19.73145969      -0.34803258       82      -0.14482200      -0.36054400       0.24399300 
Pb      12.22820282      19.89256226      13.11399073       82       0.44724700      -0.81575700       0.34240200 
Pb       6.06274053      -0.03739234       0.52799120       82       0.31791200       0.60715400      -0.35933200 
Pb       6.48140782       0.51353658      12.55145535       82      -0.35511200      -0.27952700       0.81317700 
Pb       6.33660915      12.68655919      -0.10891307       82       0.16500300       0.75962100       0.40542200 
Pb       6.16459508      13.20156192      13.46965305       82       0.34239400      -0.38885700      -0.49497500 
Pb      19.03199297       0.31631973      -0.01981336       82      -0.43723300       0.54194800      -0.37403600 
Pb      19.17684015       0.17617988      12.86630595       82      -0.64830000       0.00140800      -0.08584200 
Pb      18.55287386      13.23082855       0.73248238       82       0.04514800      -0.08971200      -0.02532100 
Pb      18.33929867      13.66197744      13.06413361       82      -0.02955900      -0.30876900       0.05938100 
I      12.60805815       2.90163802       5.59424286       53      -0.37434200       0.73002800      -0.04963600 
I      12.67093640       3.62978530      18.89243523       53       0.05441200       0.05152400       0.13598300 
I      12.65107354      16.53432705       6.49679697       53      -0.16784800       0.27812300      -0.04005600 
I      11.59759479      16.47091917      18.86263402       53      -0.37926000       0.62277800      -0.24267500 
I      24.07077085       3.78133461       6.91142813       53      -0.03651400      -0.38861100      -0.24647500 
I      24.62431033       4.37048843      19.51206642       53       0.09095600       0.31520600      -0.00378400 
I      24.83024094      16.95364575       6.84047466       53      -0.09356700      -0.19221000      -0.18039500 
I      24.57083684      17.27986522      19.77338117       53      -0.08362600      -0.71152900      -0.03995000 
I       5.97569600      10.25989625       6.83640289       53       0.20007900      -0.33069600      -0.05189500 
I       6.74776450       9.68350815      18.98086077       53      -0.16056300       0.20705400       0.00149000 
I       4.84548826      22.63238889       6.75082452       53       0.10283000       0.19157500      -0.29361500 
I       4.39118584      22.79460023      19.62981205       53       0.33447800      -0.19832400       0.32860300 
I      18.15239835       9.83360516       7.70187849       53      -0.24439100      -0.28738900      -0.47424800 
I      18.04696405      10.42005438      19.60157599       53       0.01731100      -0.25754600       0.09007200 
I      17.71836468      23.09208470       7.40642644       53       0.71413300      -0.51522400      -0.48530400 
I      17.89659084      23.22201296      19.26126422       53       0.22405100      -0.71176800      -0.23352200 
I      -0.20940443       9.12128362       6.26044543       53       0.24579300       0.36969900      -0.12224900 
I       0.09233693       9.92902092      18.77035451       53       0.02520500       0.01066600      -0.13862700 
I       0.20250034      22.45535862       6.16526034       53      -0.34769100       0.34960300       0.37325600 
I      -1.06087980      22.66201092      19.29543221       53       0.03316100       0.18637200       0.09983600 
I      12.99167637       9.97786430       7.02414469       53       0.23024000       0.93755100       0.07010700 
I      13.17426139      10.10449396      19.52651213       53      -0.15784400      -0.08198600      -0.06297500 
I      12.19081741      22.80883310       6.09440190       53       0.12982700      -1.47646200      -0.01106700 
I      12.75326766      22.87342203      20.09509923       53      -0.29128900      -0.17830000      -0.43922000 
I       5.93834326       3.56222249       6.84099241       53       0.03376100      -0.21444800       0.10717900 
I       6.25624992       3.38452201      18.88837732       53       0.00504400      -0.70753400       0.27514100 
I       5.18669101      16.17224772       6.37712189       53       0.12465900       0.46840400       0.24587900 
I       6.98421207      16.38165016      19.68522094       53      -0.03045100      -0.26351400       0.05540700 
I      19.40456703       3.64440822       6.60422310       53       0.19538300       0.83692700      -0.08266000 
I      19.88771435       4.28998467      18.91112893       53      -0.51154500       0.18296200      -0.00973600 
I      19.18122772      16.34227491       6.23132532       53       0.20090400       0.38843800      -0.07702800 
I      18.42437117      16.45730998      18.55145028       53       0.06443200       0.48088100       0.10451100 
I       2.75392883       6.74646269       7.51321899       53      -0.08439800      -0.08246100      -0.03717300 
I       3.39883803       6.93468363      18.76990902       53      -0.39623500       0.02490200       0.37894800 
I       2.80606981      19.25758547       5.18361713       53      -0.10550500      -0.10484700      -0.09746400 
I       3.12644349      18.49647005      18.64566024       53       0.22895300      -0.10122400      -0.02394900 
I      14.98578961       5.89136400       7.05878292       53       0.79190300       0.02517800       0.08998300 
I      15.93416372       6.74304034      19.06579270       53      -0.32694400       0.40349800       0.36803500 
I      15.34394567      19.39482568       5.78783541       53       0.17668000       0.16683800       0.15784100 
I      15.64904602      19.35145983      18.87268424       53      -0.36202500       0.11936200       0.32403500 
I       9.22710203      13.84439812       6.27137970       53       0.15876400      -0.12636200       0.16602200 
I       9.30671680      12.54866956      17.92668508       53      -0.10869000       0.42504100       0.38304500 
I       8.80872481      26.13443279       6.97351540       53      -0.20495800      -0.24725300      -0.15186800 
I       8.13707836      25.93402229      18.59036916       53       0.16029500      -0.22333700       0.17105300 
I      21.75125981      11.72165250       6.54988140       53      -0.33739400       0.65137500       0.18662000 
I      21.27976846      13.90523009      19.26634774       53       0.79982000      -0.19977000       0.20753900 
I      21.19474249      25.54802318       6.22706348       53       0.61541800      -0.19844600      -0.23328000 
I      21.54881590      27.12615394      18.15870647       53      -0.19882400      -0.40950200      -0.23137800 
I       9.18810494       7.61465676       6.68463381       53      -0.40389600       0.00108200      -0.19406900 
I       9.34471203       6.64946693      18.33754345       53       0.86839500       0.15535600       0.17538100 
I       9.09876169      19.63660922       6.29435207       53      -0.04801900       0.06645000       0.29091300 
I       9.19825812      19.90745643      19.54118752       53      -0.33797400       0.20052500       0.09454400 
I      21.73382932       7.24214507       7.34525689       53      -0.68296600       0.09864000      -0.09274400 
I      22.01333585       7.64046738      19.24977358       53       0.37848600       0.43804800      -0.03508000 
I      22.04503880      20.47556537       7.94361649       53      -0.59487500      -0.07700100      -0.17577200 
I      21.86998551      20.37444439      19.13853209       53      -0.29573100      -0.11470300       0.29451100 
I       2.98320997       0.30520825       7.06109055       53      -0.15999800       0.32188200      -0.18020200 
I       2.65586390       0.50537324      20.69088787       53       0.30872100      -0.12612700      -0.50063300 
I       2.76394539      12.23742147       6.32333754       53       0.01094500       0.08992300       0.53999600 
I       3.19265300      13.38751186      18.65018542       53      -0.43029200      -0.10457400       0.25470000 
I      15.82940656       0.78937722       6.25578067       53       0.27440900      -0.07329000      -0.02800700 
I      16.13813418       1.10478420      19.38227181       53       0.22252400      -0.01257100       0.19056400 
I      15.79428820      13.39910249       6.97263234       53       0.21698500       0.07075500       0.19083800 
I      15.03518044      14.40358838      19.25655293       53       0.23560900      -0.23105100       0.11651600 
I       0.15936912       9.39021820       0.33697852       53       0.27173100       0.63329000       0.06965000 
I      -0.79377865       9.48558050      12.18735151       53       0.15724800       0.17425400       0.14385600 
I      -0.70127045      22.79234210       0.23297969       53      -0.20009000      -0.82463600       0.03110500 
I      -0.32687187      23.03447410      12.75433188       53       0.00718500       0.39738200       0.01004800 
I      12.52152643       9.78265710      -0.39965383       53       0.39458100       0.07001600       0.13153700 
I      12.84270198      10.46676931      11.99014754       53      -0.17658900      -0.86153300       0.24450500 
I      12.36550837      22.68895606      -0.78079117       53       0.06477400       0.25265300      -0.09079500 
I      12.72041831      22.76486634      12.53279333       53       0.06548900       0.80499600       0.06127000 
I       5.69669733       3.30647833       0.07272850       53      -0.08197200       0.51729600      -0.06865200 
I       6.76131132       3.67254529      12.39693512       53       0.10355900      -0.15671100      -0.12859400 
I       7.28455163      16.17892213       0.48072683       53       0.04642700      -0.19930100      -0.33673600 
I       6.00849585      16.61922532      12.66062779       53       0.45795900      -0.78181000       0.42200800 
I      19.08332020       3.79213623       1.09157001       53      -0.08411800      -0.07509900      -0.28558400 
I      18.79191418       4.04755864      13.05196385       53       0.20048400      -0.37609900       0.42863300 
I      19.40921992      16.34534284       1.22262981       53      -0.21949000       0.16585700      -0.31758200 
I      18.86592272      16.74767356      13.55240009       53       0.01779900       0.03343400       0.01211300 
I      12.11851262       3.48698242      12.47303053       53      -0.15837800      -0.16189100       0.09430600 
I      11.77805632       3.71725750      25.34336964       53       0.38924500      -0.21034400       0.15042300 
I      11.95072773      16.72317960      12.71009287       53      -0.00462600      -0.09510500       0.36135100 
I      12.74563891      16.33844370      26.03367216       53      -0.25207300      -0.21552000      -0.19515000 
I      25.15813941       4.15964161      13.68969574       53      -0.45937200       0.48764000       0.13343900 
I      24.82924898       4.36990534      25.66421653       53       0.14868900      -0.36123000       0.18986900 
I      25.26216696      16.59898132      12.46404156       53      -0.17511000      -0.15436100      -0.37086700 
I      25.15183624      16.60591015      26.21808171       53      -0.17176900       0.34953300      -0.09603500 
I       6.37368370       9.92508973      14.15316434       53       0.02890300       0.32423000      -0.23843500 
I       5.60280713      10.08681994      26.01100471       53      -0.33359100      -0.89415200       0.09687300 
I       4.95741283      22.68445068      12.80321882       53       0.10210300       0.04686400      -0.19830600 
I       5.23461371      22.78194142      26.41085456       53       0.53085000      -0.61815100       0.08763700 
I      17.72540538      10.66548201      12.56466953       53      -0.04481700      -0.42619900       0.08672300 
I      18.79314373      10.06885189      25.57306459       53      -0.01988600       0.16007600       0.11723900 
I      18.58299682      22.52297192      13.36405441       53      -0.36299400       0.94476700      -0.02775600 
I      18.01232087      23.04351158      25.24158142       53       0.19421300      -0.23724700       0.03897500 
I       9.09195661       7.14783808      13.16562584       53       1.36482500      -0.01140300      -0.05060500 
I       9.28399588       7.18793009      25.68097482       53      -0.38714100      -0.12531600      -0.06531900 
I       8.98659853      20.25456537      12.61399701       53       0.78069800       0.05828800      -0.00944200 
I       8.87331670      19.88116666      24.14594855       53       1.36071100       0.39983800      -0.49330900 
I      21.66811183       7.39128577      12.83521282       53       0.00099300      -0.09054600       0.05429800 
I      21.65263654       6.96729538      26.90253447       53       0.05461600       0.20195500      -0.08304200 
I      22.00264214      20.74821038      12.50695004       53       0.04598200      -0.29410800       0.01090500 
I      22.29019815      20.09919971      25.58428101       53      -0.16178700       0.07708900      -0.03823100 
I       3.17585907       1.54454587      13.05754731       53       0.34742300      -0.38682200      -0.30587000 
I       3.23010969      -0.60486076      24.88858312       53       0.12754400       0.53987100       0.07561000 
I       3.10749933      12.20169130      13.24404471       53      -0.10798900       0.32467000       0.05982000 
I       3.01381801      13.33404332      24.79786876       53       0.72255500      -0.08131400       0.26475000 
I      15.73990987       0.91196878      12.30602277       53       0.22548000      -0.26617800       0.17727800 
I      15.95238025       1.72787535      25.08822838       53      -0.09669000      -0.13812800      -0.07475700 
I      15.51410453      14.32725736      12.08596225       53       0.00784800       0.11574700       0.07122300 
I      15.61073201      13.48632818      26.09693255       53       0.08945400      -0.09460900      -0.22320700 
I       2.30730663       6.13398506       0.39352292       53       0.85673500      -0.12474400      -0.00080500 
I       3.18047928       6.43916955      12.35543241       53      -0.87880900      -0.03931700       0.12548200 
I       2.99224547      18.81863063       1.01166023       53      -0.20733400       0.09419200      -0.20104900 
I       2.88273742      19.28097858      13.47482765       53       0.04875600      -0.19009700       0.00170000 
I      15.37337762       6.33012778      -0.25667969       53       0.95146500      -0.04471500      -0.26311100 
I      15.47541136       6.27517131      12.69932690       53      -0.43290300      -0.03849800       0.20113300 
I      15.47841890      19.34312029      -0.13899544       53       0.03414100       0.08103000       0.05856900 
I      15.50456711      19.31347054      13.67328592       53      -0.31735000       0.16758100      -0.18060800 
I       9.30195700      11.57032990       0.06890126       53      -0.22635600       0.44053700      -0.44064100 
I       9.76956072      12.98182612      13.91294200       53      -0.69909700       0.14367700      -0.20461700 
I       8.70955111      26.38147606       0.44371860       53      -0.27347300      -0.49509700      -0.15092300 
I       8.99752192      25.09672137      12.68251515       53      -0.54456000      -0.02864000      -0.02264400 
I      21.96394997      12.89662294       1.13519028       53      -0.20960400       0.06560000       0.03353800 
I      21.51354903      13.62320507      13.08953835       53       0.57576900      -0.10803900      -0.00494500 
I      21.39965045      26.11263157       0.59100013       53      -0.08965700       0.00958100       0.02963400 
I      21.37188661      26.29421374      13.73898263       53       0.30922800       0.07122800      -0.12306400 
I      11.51127295      13.52522825       9.65424350       53       0.12653600       0.09914300       0.14725800 
I      12.60532384      13.06488105      22.45455872       53      -0.18376400       0.03352000      -0.15539800 
I      12.25619436      25.82640608       9.39237635       53      -0.00890500      -0.09219700      -0.18145700 