320
Lattice="25.2364095338 0.782776929756 0.444478585186 -0.692451024662 25.9903385624 0.104010544528 0.417998251673 0.100653619093 24.9146438009" Properties=species:S:1:pos:R:3:Z:I:1:forces:R:3 energy=-101580.101431 stress="-469.381259 -1114.658036 -498.522241 -1114.658036 -2140.246771 -81.208821 -498.522241 -81.208821 1309.152607" pbc="T T T"
Cs       2.57294257       9.61907885       3.50784138       55       0.15399800      -0.06628000       0.05017000 
Cs       3.47323946       9.92349883      16.29058915       55       0.01787000       0.08196500      -0.05133500 
Cs       2.42786137      22.73269740       3.12988603       55      -0.55126000      -0.09142100       0.36905100 
Cs       3.48129214      22.06905883      15.91697516       55      -0.26203200       0.43189400      -0.14412000 
Cs      14.76129599       9.81482797       3.51721518       55       0.16920900       0.15359700      -0.08755800 
Cs      15.96489355       9.96278864      15.61797253       55      -0.75679100       0.36706700       0.08439100 
Cs      16.38458798      22.71824293       3.48447679       55      -0.23899700       0.23262900      -0.16667300 
Cs      15.41326998      22.05841315      16.02487127       55       0.03725500       0.50775500      -0.09312500 
Cs       9.39228162       3.79322828       3.12390067       55      -0.11194200      -0.04080000      -0.04420800 
Cs      10.15868345       3.66570449      16.02034090       55      -0.26570100      -0.11284500      -0.14233700 
Cs       9.86481466      16.58995700       3.39152539       55      -0.04879600       0.11573800       0.02009600 
Cs       9.43659698      16.66948759      15.36891426       55      -0.23576400       0.08908900      -0.02891200 
Cs      22.35992609       3.62325661       3.48839976       55      -0.12040600       0.02935600      -0.40720200 
Cs      22.50287795       4.90233282      15.66496457       55      -0.39091500       0.01132300       0.38931000 
Cs      22.52299981      17.04313308       3.92705344       55      -0.18350300       0.09456600      -0.08879500 
Cs      21.81519258      17.33248331      16.57945504       55       0.40740900      -0.10735800      -0.25243000 
Cs       9.36700821       4.09688532       9.12561967       55       0.08133000      -0.08810100       0.05608300 
Cs       9.71099954       3.97210417      22.08462670       55      -0.15219600      -0.09754900       0.07357100 
Cs      10.03593614      17.36144541       9.24966447       55      -0.30724600       0.12134400      -0.00666000 
Cs      10.11024725      15.93243572      21.90779056       55      -0.25296900       0.11919900       0.26120300 
Cs      22.21467360       3.67072512       9.92581422       55      -0.22379500       0.03467300       0.18227100 
Cs      22.11131672       4.34842240      22.76197845       55       0.04955000      -0.03934700      -0.16085200 
Cs      22.17404298      16.91686247       9.71882679       55      -0.06234700      -0.08710800       0.04300300 
Cs      22.48051945      16.62160858      22.98133039       55      -0.21422600       0.03306800      -0.12651500 
Cs       3.60436529      10.79827914       9.77714377       55      -0.40758300       0.23705000      -0.15968600 
Cs       3.23482982      10.50531406      22.43358156       55       0.14065900      -0.10761800      -0.20489100 
Cs       2.64527496      23.43761433       9.45503447       55      -0.12514200      -0.09840600       0.10209000 
Cs       1.59511055      23.11535343      21.54066893       55       0.32335400       0.07725800       0.37947400 
Cs      15.80316357       8.81701585      10.04094594       55      -0.91010400       0.13698300      -0.61856800 
Cs      16.00746350      10.17552911      22.36402626       55      -0.04465200       0.09446400      -0.05118500 
Cs      14.82368755      23.46449434       9.15940846       55       0.17584000      -0.27810200       0.09707000 
Cs      15.85990447      22.94072144      21.43984008       55      -0.01092700      -0.15054200       0.42963300 
Cs       2.39703574       3.38737009       9.23180188       55       0.33867100      -0.16692000       0.11398800 
Cs       4.16623586       3.70916733      22.17961686       55      -0.86842600      -0.02137600      -1.19146100 
Cs       3.64219912      16.49225078       9.57947796       55      -0.10331800       0.00353400      -0.00052300 
Cs       2.90039440      16.32191586      21.55962226       55       0.07350100      -0.05073600      -0.15144300 
Cs      16.75556860       3.02458686       9.29545943       55      -0.07781700       0.65093000      -0.17939500 
Cs      16.62062316       3.90194443      21.43348259       55      -0.03189300       0.34052200       0.29379900 
Cs      14.99688521      17.11508744       9.64087229       55       0.12351000       0.09752000      -0.25912400 
Cs      15.56083786      16.09378373      22.43330789       55       0.06061800       0.14397800       0.28757700 
Cs       9.35929516       9.96954778       9.94235373       55      -0.22216500       0.25921500      -0.03258700 
Cs       9.78455756       9.81915456      21.28685189       55      -0.32132600       0.34570700       0.06767500 
Cs       9.66586219      23.40462491       9.75866690       55      -0.11028600      -0.43720800      -0.42368600 
Cs       8.22284497      23.63833583      22.03163748       55       0.30510500      -0.20124400       0.01131200 
Cs      20.81422140      10.22748959      10.32053057       55       0.37383400      -0.01941000      -0.20069000 
Cs      21.02532082      10.57203615      22.16097559       55       0.57731800       0.02016300      -0.59226200 
Cs      21.88839521      24.13657050      10.13685556       55       0.05628000      -0.04009200      -0.01589900 
Cs      21.93417343      23.83519932      22.68364002       55       0.09787200      -0.29540600       0.11851000 
Cs       8.33779554      10.07917846       3.63340811       55       0.02203800      -0.06473900       0.04147800 
Cs       9.59201180       9.79371182      15.40786444       55       0.41617800      -0.03946600      -0.04837900 
Cs       8.88442507      23.63807594       4.31806635       55      -0.01838000      -0.13074800      -0.26189600 
Cs       8.72626466      23.03260669      15.62925515       55      -0.03357800      -0.02427700       0.26958400 
Cs      20.91896141      10.16887236       3.57333588       55      -0.01717400      -0.05045900       0.08084900 
Cs      22.34269748      10.93175680      15.61016793       55      -0.03191100       0.08413000       0.32847400 
Cs      21.44287312      23.62721171       3.17678848       55       0.31351800      -0.30017000       0.18786300 
Cs      20.86007149      23.35252759      16.12406300       55       0.37012100       0.10676900       0.00361100 
Cs       3.56845604       3.04662247       3.79657635       55      -0.13003200       0.26008100      -0.14253600 
Cs       2.75232741       3.60779507      16.75074881       55       0.01107000      -0.08719200      -0.27289800 
Cs       3.82206339      15.98271971       2.60619188       55      -0.03482800      -0.12269300       0.23080100 
Cs       3.01161200      15.69494555      14.60315724       55      -0.24395200       0.53445500       0.30532000 
Cs      14.66491581       4.30877918       2.90679324       55       0.24176300      -0.38331900       0.16208800 
Cs      17.06890068       3.61422343      16.71033970       55      -0.49410000       0.35663600      -0.37217300 
Cs      15.77712624      16.18413523       3.72171494       55      -0.22964700       0.42189300      -0.13218800 
Cs      15.75165298      17.09235190      15.81260234       55      -0.00276200      -0.22700400       0.13381800 
Pb      -0.07520793      -0.08747793       6.21731533       82       0.21037500       0.05152800      -0.31373100 
Pb       0.07531031      -0.12681007      18.67056167       82      -0.14725400       1.14123000      -0.37793900 
Pb      -0.37746412      12.39432688       6.05017982       82       0.41710100       0.49126900      -0.07043900 
Pb       0.12929380      13.17627689      18.81597560       82       0.08449200       0.27114300       0.01127500 
Pb      12.75595340       0.27309819       6.07102623       82      -0.08463700       0.12559600      -0.17268100 
Pb      13.37684186       0.74634297      19.02986984       82      -0.03800800       0.02992000      -0.29134000 
Pb      12.84756990      13.78145376       6.84381606       82      -0.11062900      -0.38945900      -0.48779100 
Pb      12.21683412      13.70948364      18.69923434       82       0.15981200       0.23877000      -0.03699400 
Pb       5.88314275       6.78079446       6.67023151       82      -0.42029800       0.08353400       0.32870100 
Pb       6.42979001       6.33946312      18.75281323       82      -0.25128400       0.79374500       0.17663800 
Pb       5.63747882      20.25434924       5.74377916       82       0.47521700      -0.85568900       0.27374800 
Pb       5.97462340      20.16105428      19.27155075       82       0.50769400      -0.83531800      -0.45142300 
Pb      18.31602407       6.88673450       6.74123688       82       0.17888800       0.33347500      -0.02984400 
Pb      18.98048464       7.38480379      18.65905361       82       0.25951000       0.62110700       0.19506500 
Pb      19.36265633      20.43742670       7.08822780       82      -0.81002900      -1.43642000      -0.58494000 
Pb      19.00626898      19.75631244      19.16183245       82      -0.21533900      -0.38659000       0.14378500 
Pb      -0.54628990       6.05598898       6.75854129       82      -0.46250800       0.23968200      -0.66978900 
Pb       0.09980110       6.78813244      18.72899481       82      -0.18589000       0.38191600       0.22364100 
Pb      -0.32301695      19.62468552       6.46277746       82       0.42926500      -0.44556700      -0.84985200 
Pb       0.10125117      19.42149014      18.32343392       82      -0.03301500      -0.22450600       0.11917000 
Pb      12.09731970       7.42917033       6.58523534       82       0.59281400      -0.04716700       0.51409000 
Pb      12.47984677       7.22139437      18.89314748       82       0.46826300      -0.16967700       0.21646000 
Pb      12.61322401      19.84085774       5.97840659       82      -0.18400200       0.34672800       0.02022900 
Pb      12.44972403      20.02519626      19.16634313       82      -0.00946900      -0.79613300       0.18515600 
Pb       6.08554173       0.17897532       6.42904873       82       0.01746100       0.27656400       0.50404300 
Pb       5.86822856      -0.03714177      18.76156782       82       0.53746900       0.64441900       0.02040700 
Pb       6.45952981      13.48689192       6.87689408       82      -0.35939100       0.48199100      -0.12774000 
Pb       6.59999006      13.36485636      18.98576712       82      -0.07647000       0.10958800      -0.79441400 
Pb      19.01749647       0.84965161       6.30329692       82       0.13981700       0.17645900       0.03018500 
Pb      19.71668398       0.66497050      18.77734044       82       0.05649800      -0.22177400      -0.60545800 
Pb      19.23088273      13.53279320       6.71060814       82      -0.80714900       0.48973900       0.24914700 
Pb      18.71204185      13.46869265      19.30597941       82       0.14951300       0.71858700       0.10829900 
Pb       0.29372802       0.13741835      -0.22210147       82      -0.54759300      -0.16506100       1.02892100 
Pb       0.51601752       0.39995552      12.75940680       82       0.13772900       0.35355900       0.14124400 
Pb       0.00020476      12.64275315       0.33299224       82      -0.08177800       0.64789800      -0.63521500 
Pb      -0.33813197      13.30549883      12.63866577       82       0.02542900      -1.23069500       0.07822000 
Pb      12.50383353       0.68520853      -0.25012442       82       0.06568600      -0.14831800       0.90921400 
Pb      12.68933762       0.19075409      12.63236046       82       0.08747500      -0.25936400       0.06805000 
Pb      12.36224019      12.81882635       0.34496297       82      -0.37978200       1.06110000       0.38671200 
Pb      12.99673946      13.51296863      12.62996040       82      -0.66779100      -0.35868200      -0.18550900 
Pb       5.36592324       6.58032793       0.17165702       82       0.44954100       0.62188300       0.08196700 
Pb       6.17233548       6.63633050      12.75098790       82      -0.12335200       0.43848300      -0.14748600 
Pb       6.03369151      19.46025426       0.00829584       82       1.24316300      -0.25950600       0.44948500 
Pb       6.02550494      20.07116940      12.49822323       82       0.09743300      -0.22880700      -0.24873700 
Pb      18.61581819       6.44111791       0.45155372       82       0.22332700       0.29128400       0.37295200 
Pb      18.51530534       7.21779626      13.07625626       82       0.36119700      -0.33433800      -0.66959200 
Pb      19.24257389      19.98050682       0.77922213       82      -0.55874100      -0.57998100      -0.35874400 
Pb      19.33889303      20.06492414      12.50042443       82      -0.19502700      -0.65426200       0.38202500 
Pb      -0.77072448       6.56758835       0.20791674       82       0.10362800       0.26245200      -0.80274700 
Pb      -0.11036311       6.85794763      12.67154100       82       0.12979500      -0.19682700      -0.27230300 
Pb       0.24124776      19.05462249       0.07844967       82      -1.16757900       0.03718800      -0.07169700 
Pb       0.08677308      20.28042202      12.31948320       82      -0.00225800       0.26147500       0.38917700 
Pb      12.35606482       6.86812867       0.15686489       82      -0.56388300      -0.16144700      -0.58080000 
Pb      12.46593473       6.33261637      13.08040467       82      -0.07866700      -0.12894400      -0.55482000 
Pb      12.26086399      20.12103796      -0.25516669       82       0.14697600      -0.62481400       0.33660900 
Pb      12.53613483      20.22304321      12.94644858       82       0.01501700      -0.25974100      -0.20162100 
Pb       5.88009691      -0.12086014       0.64713647       82       0.98126700       0.38527100      -0.39856100 
Pb       6.50312554       0.42656186      12.49733625       82      -0.26433900      -0.84500700      -0.46281700 
Pb       6.41478721      12.91263912       0.20638594       82      -0.19356100      -0.18403500      -0.71823000 
Pb       6.26158835      13.21194102      12.93325320       82       0.57153700       0.01614700       0.89062900 
Pb      18.93288226       0.21176588       0.06429546       82      -0.05268800       0.12423100       0.35203500 
Pb      19.38439562       0.10905085      12.83095065       82      -0.07663700       0.55815600      -0.63969000 
Pb      18.71275753      13.32602825       0.88973094       82      -0.29180300       0.17191800      -0.06502200 
Pb      18.67112083      13.81465483      13.09327912       82      -0.14132300       0.20996400      -0.26280700 
I      12.14278488       3.27014547       5.67303762       53       0.44121300       0.53361400      -0.00340700 
I      12.95771446       3.79299596      18.45702085       53       0.16805900      -0.45386200       0.22708200 
I      12.74622225      16.79171807       6.45691219       53       0.01687700      -0.36179800      -0.01319500 
I      11.44430320      16.84567695      18.45218530       53       0.17556800      -0.55236800      -0.01662500 
I      23.82254244       3.72970659       6.59960220       53       0.59534900       0.35454100       0.44659500 
I      24.61649763       4.68262648      19.22361169       53       0.16410800      -0.39767100       0.08101400 
I      24.67546532      17.16891540       6.93793893       53       0.01495000       0.23185200      -0.05143800 
I      24.64193643      17.44184033      19.63143383       53      -0.04988300      -0.06613800      -0.17634400 
I       6.21968979      10.47342425       6.69184184       53       0.17936000      -0.54989700      -0.09485900 
I       6.55829921       9.64871233      18.38298637       53      -0.06997600      -0.38009200       0.14154800 
I       4.70771876      23.22863637       6.36560776       53       0.13622100      -0.26694000      -0.39045900 
I       4.59845133      22.81992725      19.29696888       53       0.02174900       0.16415900       0.15850400 
I      18.26254658       9.96630504       7.48303865       53      -0.06104500       0.11105400      -0.45199900 
I      18.40599755      10.50102192      19.15869997       53      -0.12065700      -0.04076300       0.22312600 
I      18.05686844      22.84749342       7.56118512       53      -0.18558800       1.14485500      -0.02550400 
I      18.13044516      23.65221243      18.72503738       53       0.38136500       0.07248100      -0.10221600 
I      -0.09404707       9.53453848       6.26892929       53       0.28766500      -0.53855600      -0.02124800 
I       0.15517462      10.33487282      18.24337863       53      -0.05505600      -0.33477800      -0.17639000 
I       0.13238001      22.70756968       6.24141136       53      -0.06583300       0.38787600       0.13441000 
I      -0.99877982      23.06101652      19.08125541       53      -0.17615500      -0.75297500      -0.07346400 
I      13.26827633      10.26655397       6.86358451       53      -0.26653700      -0.32111300       0.05008900 
I      13.12939117      10.11992622      18.76835156       53      -0.01950900       0.26800900       0.11306700 
I      12.12246416      22.81276253       5.79828145       53       0.27946000       1.00964800       0.48811600 
I      12.64870701      22.81840827      19.79620571       53      -0.01823600       0.86478900       0.16875800 
I       6.14052640       3.59007818       6.44369417       53       0.14255800       0.15880000       0.26696800 
I       6.05869420       3.08265478      18.50599357       53       0.02292800       0.07647400       0.24421600 
I       5.19601260      16.56403287       6.32873277       53       0.60727800      -0.42267200       0.00866400 
I       7.03906607      16.30020413      19.49153076       53      -0.07366100       0.08127500       0.02412200 
I      19.64235713       3.87284353       6.19371545       53      -0.16975200      -0.34558600       0.13418400 
I      19.90641524       4.66275958      18.64277203       53       0.10996800      -1.15354900       0.01852300 
I      19.15520522      16.78341632       6.53248633       53       0.25815400      -0.47936000      -0.04670600 
I      18.88524542      16.66991778      18.34653173       53      -0.29602600       0.52603800       0.51749800 
I       2.77398795       6.62942567       7.25474409       53       0.28250700      -0.03363600      -0.21902300 
I       3.34195808       6.88648347      18.66854160       53       0.13956500      -0.16007500       0.12654600 
I       3.02768784      19.03916980       4.94935734       53      -0.53822500       0.61145000       0.01779200 
I       3.03016664      18.44584061      18.01773418       53      -0.03853600       0.26076300       0.04465400 
I      15.32375623       6.08918316       6.64211702       53      -0.30598300       0.00435700       0.34990000 
I      16.01587944       6.82780028      18.68621222       53      -0.25287500      -0.13069400       0.01282500 
I      15.55459555      19.85155757       5.20416668       53      -0.00892000      -0.33455300       0.41878300 
I      15.89331720      19.84320660      18.72107010       53      -0.50868500      -0.10793000       0.24925100 
I       9.39923174      13.99318518       6.16958398       53      -0.05343100      -0.03693600       0.21458700 
I       9.36801135      12.48118856      17.61636599       53       0.14631700       0.48565400       0.54081800 
I       9.12928670      26.77213007       6.85205382       53      -0.74080400      -0.63283500      -0.00141000 
I       8.16275009      26.17822794      18.45983338       53       0.22345700      -0.25662400      -0.07112100 
I      21.88007181      12.21118642       6.68777416       53      -0.02042900      -0.04418600      -0.15744400 
I      21.97699835      13.98012861      19.03127069       53      -0.28281500      -0.21025100       0.20537600 
I      21.62593188      26.14733045       6.40692846       53      -0.69113400      -0.42178000      -0.20298600 
I      21.77812562      27.26123509      17.66372129       53       0.13249400      -0.16212600       0.15686800 
I       9.09711239       7.62380605       6.58905495       53       0.06632300      -0.10249500       0.02043100 
I       9.58611207       7.18429591      18.10760232       53      -0.27596100      -0.27225800       0.30549700 
I       9.21348744      19.96738232       6.05864203       53      -0.13545000      -0.03099600       0.51767600 
I       9.20620459      20.33006219      19.20298875       53      -0.55900500       0.15692500       0.10864900 
I      21.69541925       7.77716340       7.41980540       53       0.37231400      -0.22641300      -0.21087400 
I      22.14564300       7.77658061      18.77437139       53       0.14562600       0.48777700      -0.04871800 
I      22.05298005      20.89894587       7.78758660       53       0.65645100       0.32759500       0.43759800 
I      21.83989502      20.49397957      18.77537256       53       0.50745700       0.23387700       0.42356500 
I       2.91456536       0.29676894       6.66168070       53       0.92781200       0.40764300       0.05012800 
I       2.86199157       0.80724705      19.72430745       53       0.01537700      -0.17300600       0.08717400 
I       3.22479055      12.81615557       6.51585823       53      -0.41631100       0.11844000       0.02100500 
I       3.31849405      13.41990009      18.54385201       53      -0.34200500      -0.01623700       0.13561200 
I      15.95783514       0.88364614       6.35459586       53       0.16662600      -0.05500100      -0.05052700 
I      16.71810492       1.01112563      19.41111911       53      -0.81171600      -0.11961500      -0.00002500 
I      15.94510245      13.75679463       7.00603924       53      -0.46978500       0.13437400       0.28130100 
I      15.16852845      14.62657696      19.07291527       53       0.27808200      -0.13182000      -0.16018700 
I       0.30027944       9.78828660       0.36886999       53       0.05643900      -0.48843700       0.03674200 
I      -0.69897980       9.77661218      12.24523805       53       0.12837800       0.09321400      -0.10044900 
I      -0.23396687      22.89864568       0.33442853       53      -0.46478400       0.07890300      -0.23629800 
I      -0.42323250      23.32599607      12.36858684       53       0.23630400      -0.53107600      -0.10122000 
I      12.85865070       9.79969424       0.07988498       53       0.26282200       0.09148800       0.01038400 
I      12.66287206      10.10587045      11.66759092       53       0.28116300       1.01067900       0.79378400 
I      12.11956204      23.10775063      -0.48716568       53       0.10776200       0.31371100      -0.11448700 
I      12.91113884      23.29663823      12.52341691       53       0.21731300      -0.21431900       0.06132500 
I       5.51513021       3.60574843      -0.11865009       53       0.93667500      -0.51539900       1.21555900 
I       6.87944771       3.25173357      12.46916860       53       0.41153400       1.21064900      -0.09541100 
I       7.21994134      16.58830610       0.57837955       53      -0.34610100      -0.08138700      -0.47544000 
I       6.33691244      16.89619326      12.77105464       53      -0.12782700      -0.12622000      -0.35001700 
I      19.25506834       3.54989057       1.11584694       53      -0.14361900      -0.02369900      -0.24778400 
I      18.79588524       4.15041795      13.06100932       53       0.11862400       0.06299900       0.21859600 
I      19.15305325      16.59044824       1.20100554       53       0.05843200       0.25311800      -0.06260300 
I      19.08313371      17.07653990      13.82143169       53       0.03116300      -0.20045100      -0.44282400 
I      12.20071596       3.10775986      12.40475993       53      -0.22088600       0.80400300       0.04297200 
I      12.11955810       3.92845922      24.98301482       53       0.14399500      -0.53489700      -0.04941400 
I      12.26190946      17.10508066      12.49597872       53      -0.06286200      -0.19490700       0.20084600 
I      12.78680069      16.38120349      25.59502860       53      -0.09784700      -0.29080700      -0.22039800 
I      25.04951936       4.27209616      13.48265786       53       0.23208000      -0.20137100      -0.31155500 
I      24.84303399       4.49866204      25.23845224       53       0.17841600      -0.43121800      -0.07315300 
I      25.26153627      16.76754328      12.56246553       53       0.16145500       1.25640600      -0.38608300 
I      25.02770623      16.89941631      25.61606205       53       0.29115700       0.42858000       0.05013200 
I       6.56431805       9.96778760      13.83315139       53      -0.47610600      -0.17495300      -0.46204800 
I       5.67185826      10.00666986      25.49004445       53      -0.04639200       0.12676100       0.03029000 
I       5.13382088      23.00378931      12.22205360       53      -0.00290300       0.04778200       0.24821100 
I       5.43966829      23.00169738      25.79967701       53       0.64500400      -0.05951200      -0.26003700 
I      17.71408993      10.59652497      12.15845808       53       0.26432500       0.20082000       0.83338000 
I      19.15873049      10.42323477      24.94242950       53      -0.41682700      -0.29407900       0.70087800 
I      18.79354327      23.09559186      12.82569082       53      -0.09438600       0.26345300      -0.00814600 
I      18.38730312      23.13469365      24.76408323       53       0.19918300       0.41691900       0.09889100 
I       9.51502992       6.95459952      12.71647556       53      -0.99251900      -0.05898300       0.27337200 
I       9.59136896       7.23498057      25.08893222       53       0.15345000      -0.08724800      -0.02559200 
I       9.46869745      20.79082334      12.66231585       53      -0.29868900      -0.18382100      -0.14189400 
I       9.22642194      20.13327449      23.58871634       53      -0.29608000       0.07109000       0.19930900 
I      21.73849815       7.25909432      12.65065127       53      -0.13234700       0.03056000       0.11883100 
I      22.00438830       7.18739689      26.51981037       53      -0.58833500       0.01637800      -0.23733000 
I      22.49515505      20.52352544      12.11630848       53      -1.34907000      -0.27555700      -0.24735500 
I      22.49576836      20.31957992      25.13094202       53       0.02627600       0.17818700      -0.14598400 
I       3.33567541       1.63205445      12.53013174       53       0.15573400      -0.19093400      -0.21191500 
I       3.52872225      -0.40976345      24.41875700       53       0.21635800       0.24033400      -0.46642200 
I       3.29238091      12.41271614      13.22562467       53      -0.55031300      -0.09341500      -0.27446800 
I       3.57897375      13.73088625      24.31887124       53      -0.13150400       0.02732400       0.16752100 
I      16.07390798       0.85393390      11.79182275       53       0.07116400      -0.59373900       0.68933200 
I      15.93311301       1.31609886      24.33033303       53       0.37333300       0.01462100      -0.13824800 
I      15.74227820      14.80731540      12.14567617       53       0.20414800      -0.31022300       0.42525600 
I      15.76062808      13.55202513      25.52340992       53       0.15264300      -0.10531300      -0.11734400 
I       2.45052308       6.31223363       0.40633367       53       0.12681900      -0.06939400      -0.06237200 
I       2.95566554       6.30544791      12.06597626       53       0.20726100       0.06800700       0.05167800 
I       2.92073481      19.17789942       0.93643552       53       0.48948200       0.04925100       0.15605900 
I       2.78479705      19.80874053      13.34896166       53       0.61931300      -0.53823700      -0.11870400 
I      15.81511069       5.94965812      -0.35952278       53      -0.80880800       0.05355900       0.00864600 
I      15.38838640       6.37400991      12.75842531       53       0.53852300      -0.04400200       0.11563900 
I      15.20146964      19.26687173       0.01962079       53       0.00055000       0.34239300       0.09453000 
I      15.77521742      19.81649000      13.27995863       53       0.02101300      -0.01494800      -0.27169500 
I       9.07718347      11.56120985       0.50865099       53       0.46484200       0.11329300      -0.50473900 
I       9.48547224      13.54579956      13.43653607       53       0.14353000      -0.25160700      -0.22260100 
I       8.55150864      26.48098029       0.83763854       53      -0.05876200      -0.17016800      -0.27087800 
I       8.79836768      25.07901797      12.64566215       53       0.26677600       0.61441800       0.25815900 
I      21.93828936      13.14972567       0.98592408       53      -0.10306400      -0.00072100       0.06255200 
I      21.79537392      14.03525405      12.96403847       53       0.15958400      -0.10148300      -0.00450400 
I      21.15813989      26.58486285       1.08918842       53       0.41569100      -0.08005400      -0.67956000 
I      22.01276388      26.67387355      13.71254818       53      -0.85686400      -0.06749900      -0.24399500 
I      11.68280045      13.99579689       9.56875647       53       0.10405400      -0.08824000       0.41586700 
I      12.85360449      13.20247469      22.12415179       53      -0.17321200      -0.08520300      -0.34064600 