320
Lattice="26.3938956204 0.84496075039 -0.165826655575 -0.691058356848 26.1342958405 0.137869488895 -0.213937634119 0.112182296157 26.2922097819" Properties=species:S:1:pos:R:3:Z:I:1:forces:R:3 energy=-101582.562245 stress="-1009.213572 133.753784 570.803808 133.753784 -522.367251 61.810975 570.803808 61.810975 -692.595799" pbc="T T T"
Cs       2.89087774      10.56596420       3.44429350       55       0.10453500      -0.05312500      -0.04928300 
Cs       2.05936206       9.40405745      16.94567026       55       0.20166600       0.10292900      -0.28587700 
Cs       2.81502013      23.13447877       3.89017730       55      -0.12687700      -0.14971600      -0.26510800 
Cs       2.13223323      23.29098331      16.31900211       55       0.08827800      -0.01239100      -0.09893800 
Cs      16.04831308      10.51657771       1.91862879       55       0.11372100      -0.18375900       0.05473500 
Cs      15.67561627      10.66733730      16.98353212       55       0.18127800      -0.03017600      -0.04898600 
Cs      16.19562529      23.48854565       3.49079986       55      -0.23002900      -0.04482700       0.03492000 
Cs      15.23788843      23.00167865      15.95070420       55       0.09076300       0.15723000       0.00457500 
Cs       9.73905797       2.55183500       2.43213859       55       0.02488400       0.15789200       0.24752300 
Cs      10.34104362       4.19766423      15.57984606       55      -0.66329900       0.04785600       1.09704400 
Cs       8.62489119      16.60227973       3.63375712       55       0.08349700      -0.05479000      -0.05223700 
Cs       9.55554985      16.27504474      15.98222628       55      -0.32147000       0.05779700       0.39219200 
Cs      23.66784497       4.30795777       3.78343129       55      -0.38619400      -0.18090600       0.09145000 
Cs      22.78664334       3.12609548      15.76905416       55       0.22772400       0.33860600       0.18827000 
Cs      22.69492147      17.91033151       3.07670387       55      -0.35614800      -0.25850900       0.01015700 
Cs      23.19040537      16.88501157      16.24463056       55      -0.41892300      -0.61599100      -0.00357700 
Cs      10.04780714       4.57374096       9.70414882       55      -0.10428700      -0.09960300      -0.09444000 
Cs       9.29572419       3.79970846      23.11222363       55      -0.04796600      -0.03788100      -0.06323600 
Cs       8.63104496      16.32101861       8.95755429       55       0.40120300       0.33965800       0.26163500 
Cs       8.70658164      16.15375802      23.67766688       55       0.36971200       0.44324800      -0.14546900 
Cs      22.83185476       4.01596002       9.61306573       55       0.22513400       0.05446400      -0.11334600 
Cs      22.57246246       3.74606615      22.66359358       55       0.17976700       0.01841300      -0.16168800 
Cs      22.17997977      16.88473664       9.83308763       55       0.58392300      -0.06138700      -0.25009300 
Cs      22.54596069      17.90870134      23.23804212       55      -0.29299100       0.00653300      -0.27000300 
Cs       2.84639810       8.94929101       9.41485541       55      -0.11346100       0.23003800       0.21580200 
Cs       3.72391831      10.27932404      22.36953946       55      -0.00612800      -0.03124800       0.18447200 
Cs       2.26963462      22.59262547       9.49912040       55      -0.12841700      -0.00665500       0.34884300 
Cs       1.72922240      23.50360045      23.21223739       55       0.54872400       0.03265000      -0.51638500 
Cs      16.32019484      10.59853286       9.79363036       55      -0.06468700      -0.03852400       0.01710900 
Cs      16.74107417      10.38177539      22.78345556       55      -0.17375500      -0.03813000       0.17491100 
Cs      16.21332823      23.04131377      10.22575326       55      -1.01161400       0.08442400      -0.82168900 
Cs      15.78186454      23.67876252      22.92454860       55       0.00448600      -0.09365800      -0.03992400 
Cs       3.19699103       2.92836450       9.14058001       55      -0.12898600       0.31247700       0.30930900 
Cs       2.67721095       3.90647389      23.21803446       55       0.32515700      -0.29152700       0.07322200 
Cs       2.28348443      16.46126539      10.09019770       55      -0.09337400       0.14885000      -0.15562400 
Cs       2.71161112      16.73584332      23.24512493       55      -0.07971300       0.19792500      -0.02443900 
Cs      16.90865978       3.53506691       9.78654959       55       0.07634500       0.12144800       0.05163200 
Cs      17.13578390       2.77680363      23.03893955       55      -0.62397600       0.90867900      -0.30741500 
Cs      15.82127480      16.64221226      10.50569389       55       0.12373700      -0.36354100      -0.30815300 
Cs      16.58928640      17.14791462      22.34760626       55      -0.08741000      -0.13893200       0.39159100 
Cs       9.58221310       9.88182411       9.32272268       55      -0.04430000       0.09287200       0.16644000 
Cs       9.85639754       9.82366842      23.41834101       55      -0.65508700       0.02079700      -0.15538600 
Cs       7.95738701      23.36852321       9.87247950       55      -0.06638600       0.52297700      -0.33557200 
Cs       9.55514409      23.54309963      22.46154239       55      -0.30406300      -0.04163700       0.51081300 
Cs      22.36144175      10.13471719       9.84440991       55       0.18893400       0.04226000       0.14573100 
Cs      22.99995139      10.06016986      22.90055699       55      -0.17744200       0.08302700       0.02458900 
Cs      22.10869380      23.80777696       9.94862021       55       0.24911200      -0.00422200      -0.14128700 
Cs      22.79346757      24.84422601      23.29457173       55      -0.03069300      -0.20897500      -0.22578600 
Cs       9.62417746      10.50341165       3.36132447       55       0.03595100      -0.42387100      -0.01453800 
Cs       9.91281574      10.29539578      16.71123132       55      -0.10410000      -0.07202500      -0.09973900 
Cs       9.22702197      22.27611281       3.64564969       55       0.26996400       0.40878800       0.01956000 
Cs       8.97976038      23.38734324      17.31032354       55      -0.09994800      -0.00287400      -0.36242100 
Cs      22.40086735      10.96992860       2.57221877       55       0.21588600      -0.70852600       0.26977200 
Cs      22.33302058       9.85822190      16.09219277       55      -0.25257900       0.04303300      -0.04475800 
Cs      22.74441426      23.85740568       4.25347124       55      -0.16548200      -0.23658300      -0.23873100 
Cs      22.24829260      23.12781194      15.86814603       55       0.23587800       0.17269200      -0.03607800 
Cs       3.32581129       3.71704707       2.95354885       55      -0.15639700      -0.04458700      -0.09193800 
Cs       2.72746312       3.19161402      17.50782149       55       0.15910500      -0.22306500      -0.37726600 
Cs       2.14384781      17.11614827       3.62939296       55       0.15966500      -0.08690600      -0.15069000 
Cs       3.24068880      16.84661416      16.90076750       55      -0.42146700      -0.08665000      -0.28400900 
Cs      16.47234442       3.41451402       3.82290287       55      -0.03299100       0.19648700       0.03106800 
Cs      16.74356491       4.52730614      17.15659592       55      -0.46270400      -0.43889700      -0.12784700 
Cs      15.69266816      15.75913516       2.62919400       55      -0.05321300       0.18291700       0.12801500 
Cs      16.70493651      16.65900046      17.12281919       55      -0.06275100       0.07226600      -0.31104500 
Pb       0.40631716      -0.20615676       6.86923448       82      -1.26271900       0.13531700       0.23962600 
Pb       0.00609857      -0.34641376      19.75511205       82      -0.18293600      -0.02412100       0.10875400 
Pb      -0.34785179      13.30314089       6.67655345       82      -0.25526100      -0.04718300      -0.13346700 
Pb      -0.22525889      13.06306330      20.03942603       82       0.05865200      -0.14199700      -0.37263100 
Pb      13.09147936       0.63605671       6.86056544       82      -0.02163700      -0.30929400       0.39543400 
Pb      13.18286191       1.05480814      19.93452686       82       0.62331100       0.76881500       0.15392900 
Pb      12.63717898      13.50302533       6.18735311       82       0.61326300      -0.18851600       0.13288700 
Pb      12.82786701      13.83041158      19.74079312       82       0.03066200       0.19176900      -0.25733900 
Pb       6.72187116       6.70626445       6.11451464       82       0.17181200       0.09726300      -0.10519100 
Pb       6.16472287       7.23743120      19.62337077       82       0.52361000      -0.22552500      -0.07846000 
Pb       5.78559736      19.84187799       6.37077436       82      -0.57527300      -0.16063000       0.95199100 
Pb       5.76971163      19.72666838      19.74384394       82       0.14923300       0.07230900       0.04779900 
Pb      20.05100893       7.79050764       6.37767729       82      -0.58171000      -0.86791700       0.14109600 
Pb      19.95571295       7.07770823      19.86068474       82      -1.08781200       0.12629500       0.13724600 
Pb      18.72533597      20.26851454       6.69200991       82       0.25829200      -0.30184800      -0.24620900 
Pb      19.60646299      20.05245206      19.74183152       82       0.30200400       0.11262400      -0.15447100 
Pb       0.12817330       7.00650811       6.26872774       82      -0.48892600      -0.33754900       0.26089700 
Pb      -0.23712080       6.42260969      19.97918229       82      -0.34111900       0.27121100      -0.27970400 
Pb      -1.12450278      19.41037138       6.15924877       82       0.12941500       1.02697300       1.16885500 
Pb      -0.69863073      19.18951447      19.40819748       82      -0.19906500       0.38715000       0.02529500 
Pb      13.27877010       7.50302530       6.51381849       82       0.54651900      -0.70147500      -0.14245700 
Pb      12.73468974       7.75813930      20.11296766       82       0.58838300      -0.50560200       0.16355800 
Pb      12.01590112      20.02424858       7.01913145       82       0.79173500       0.23739500       0.37386700 
Pb      12.42353672      20.61613228      20.21178256       82      -0.02330700      -0.30422300      -0.50116600 
Pb       6.54580254       0.04204818       5.72722193       82       0.54600000       0.42739400       0.83155800 
Pb       6.71869974       0.18514750      19.63681891       82      -0.41099400       0.08271000       0.00212100 
Pb       6.19321866      13.20494638       6.72630584       82      -0.50698200       0.04565700      -0.99474500 
Pb       6.21685970      13.65922938      19.39774906       82       0.52473500      -0.91196500       0.11186000 
Pb      19.78711347       0.82978126       6.24294652       82       0.43869700       0.23089600       0.73827700 
Pb      19.75069883       0.18925716      19.55340018       82      -0.25304400       0.49002000      -0.20738900 
Pb      19.67825386      13.99085203       6.56598599       82      -0.18153700       0.21416700      -0.37203900 
Pb      20.38116698      13.69401180      19.73040500       82      -1.07020200      -0.45416800       0.15159200 
Pb      -0.11378078       0.07817868       0.38879104       82       0.23001900      -0.86763600      -0.06374000 
Pb       0.10368293       0.41006093      13.25044397       82       0.41573500      -0.14481200      -0.41179700 
Pb      -0.42596608      13.55255389      -0.08855249       82      -0.28007400      -0.04374200       0.83750800 
Pb      -0.35354154      12.92987480      13.30370506       82      -0.19417900       0.06220900      -0.27061500 
Pb      13.15253665       0.70304496       0.30667849       82       0.00438900       0.18172600      -0.08532300 
Pb      13.03642253       0.41525295      12.93078851       82      -0.12096600       0.19776100      -0.10173700 
Pb      12.46995518      13.50965333      -0.09259163       82       0.04865000       0.27262000      -0.15800100 
Pb      13.17052168      13.95950472      12.93804098       82      -0.50750600      -0.13461800       0.79810300 
Pb       6.46695953       6.79294863      -0.08828267       82       0.16397400       0.23022100       0.10398100 
Pb       6.09527965       6.78505023      13.03718396       82      -0.58551200       0.70597800       0.42788000 
Pb       6.00432637      20.16330160      -0.21869528       82      -0.77253700      -0.33053500       0.21869700 
Pb       6.19587292      20.11317003      13.10904841       82      -0.24521400      -0.03138200      -0.39987300 
Pb      19.70879272       6.74893199       0.66386160       82      -0.13916000       0.13474500      -1.44758700 
Pb      19.24079584       6.69682888      13.06064001       82      -0.41344500       0.35265200       0.31438400 
Pb      19.05364615      20.57343816       0.05516824       82      -0.09025700      -0.66005800       0.16334500 
Pb      18.98722923      20.03966314      12.55468418       82       0.43438200       0.18251900       0.88417600 
Pb      -0.07397907       6.80323659       0.15282515       82      -0.19001700       0.09380600       0.12038600 
Pb      -0.40886309       6.53340507      13.36227673       82       0.00629100       0.14390100      -0.30888500 
Pb      -0.95430890      19.95249144      -0.28360366       82       0.76911600       0.02946200       0.87850000 
Pb      -0.70482844      19.65554390      12.70900153       82      -0.18162800      -0.10276800       0.03867100 
Pb      12.77577004       7.29773013      -0.04073893       82       0.41608300      -0.36999100      -0.18333000 
Pb      12.38361952       7.36449046      13.34685399       82       0.44886100      -0.66855700      -0.10808600 
Pb      12.68936692      20.22965312       0.75249176       82      -0.26805800      -0.82615000      -0.76398700 
Pb      11.98145086      20.11602768      13.12513037       82       0.47168200       0.16901200       0.08191100 
Pb       6.55806101       0.04770727      -0.27085460       82      -0.73219300       0.22823300      -0.76790900 
Pb       6.72473495       0.75351279      12.80411252       82      -0.72656200      -0.17732600      -0.12045200 
Pb       6.08398191      13.56231039      -0.09140708       82       0.00809800      -0.56511600       0.09321600 
Pb       6.06120654      12.89890360      12.89981016       82      -0.49350000      -0.16006700       0.40799900 
Pb      19.88785698       0.65857351       0.12930164       82       0.66487900      -0.77649100      -0.28353400 
Pb      20.02972166       0.42330772      12.89752997       82      -0.27383300       0.27220400      -0.06808800 
Pb      19.19811706      13.65186858      -0.14898735       82       0.26630900       0.05380800      -0.18046100 
Pb      19.64793371      13.41223046      13.10334741       82       0.23771100       0.01570100       0.13703200 
I      13.98010313       3.51425489       7.19825907       53      -0.05813300       0.65616300      -0.13830300 
I      13.92122996       4.42183769      19.71412885       53      -0.37319700      -0.91475900       0.04774700 
I      12.19206786      16.43169849       5.53742002       53       0.17697300       0.65476300       0.03504500 
I      12.20235173      16.72486752      18.86368378       53       0.17708900       0.54677500       0.16861000 
I      26.31646917       3.80446508       6.38496553       53       0.18619900       0.41459100       0.10237500 
I      26.47835991       4.32204776      20.27954042       53       0.01490500      -0.62019500      -0.31047900 
I      25.26227120      17.25691527       6.19294577       53       0.02435800      -0.45144900      -0.15049600 
I      25.21724068      17.12849771      20.09197986       53       0.02384700      -0.18271300      -0.06991300 
I       7.10284556       9.88309860       5.86950463       53      -0.41014400       0.13092300       0.34124500 
I       5.70561783      10.53918955      18.94679078       53      -0.11195100      -0.35459200      -0.04810100 
I       5.10811899      22.98632235       7.03032597       53       0.49204800       0.04683400      -0.14314900 
I       6.19270354      23.14605554      20.35123316       53       0.07390500       0.23256000      -0.05441000 
I      20.03103397      10.80285607       6.37099104       53       0.05434400       0.26415800       0.11872900 
I      19.41242877      10.38702158      20.21936413       53       0.41180900       0.07469600      -0.19109900 
I      18.89521607      23.42823957       6.72338482       53      -0.06928600       0.19557900       0.17692400 
I      18.74096107      23.28503702      20.35821172       53       0.20581000      -0.34804300      -0.06533700 
I      -0.09237292      10.13834751       6.51690508       53       0.08962100      -0.63968500      -0.11383100 
I       0.14204968       9.76471042      20.33264718       53       0.09749400       0.34532800       0.10028200 
I      -1.15006528      22.75267652       7.35950694       53       0.17880800      -0.27175800       0.05849200 
I      -1.01763310      22.61342828      19.89728437       53       0.32113900       0.76198500      -0.02493000 
I      12.64725129      10.29320553       7.22323083       53      -0.02775800       0.49108200       0.06381600 
I      12.71112126      10.75298307      21.01506921       53       0.19838700      -0.29568400      -0.64799400 
I      12.91178553      23.05167736       7.53351920       53      -0.35822600      -0.50172100      -0.18568600 
I      11.85822838      23.93826827      19.67411251       53       0.48446900      -0.37874700       0.17728100 
I       6.29464387       3.26186977       5.27713035       53       0.19912400      -0.12834000       0.10624100 
I       6.72618626       4.14850871      20.00074449       53      -0.04546000      -0.23416000      -0.14631800 
I       5.37963077      16.46308157       6.87413112       53       0.16841700      -0.18685700      -0.27509000 
I       5.48841066      16.55337666      19.98794024       53       0.08815900       0.98011200       0.23274800 
I      20.17220979       4.36328034       6.44921469       53      -0.13234500      -0.49539600      -0.17391700 
I      19.51256824       3.57413069      19.51790846       53       0.07908400      -0.00493600       0.19476200 
I      17.96847698      16.63363521       6.91454095       53       0.21907000       0.04244500      -0.58647600 
I      20.92486508      16.71333981      19.81577994       53      -0.06916600       0.70171100      -0.26545100 
I       3.40149207       6.64929434       6.15173976       53      -0.10599700       0.00689300       0.13907200 
I       3.10050027       6.35557954      19.48611860       53      -0.30399600       0.24150300       0.16278500 
I       2.53773786      19.80318725       6.57473883       53      -0.38544700      -0.09468200      -0.31515500 
I       2.65142359      19.76398856      19.80104504       53       0.10253900       0.11331600      -0.06152200 
I      16.84727338       7.70381324       7.23307113       53      -0.30696100      -0.08922800      -0.16803600 
I      16.48061485       7.24078863      20.57707462       53      -0.04251100       0.08738300      -0.00102800 
I      15.97857858      19.85107747       7.92087119       53      -0.61698900       0.34860100      -0.33739600 
I      16.48331510      19.87963254      19.66346683       53      -0.56077700      -0.10489600      -0.24244700 
I       9.41973059      13.62688353       6.08994557       53      -0.56801300      -0.20198300       0.06586600 
I       9.43564392      13.19396649      19.22180717       53      -0.34430200       0.14864900       0.07112000 
I       9.12354447      26.08931336       6.54125237       53      -0.73932600      -0.24882500      -0.69946200 
I       9.44839399      27.37668702      20.21750502       53      -0.70448900      -0.03890200      -0.09211700 
I      23.21528923      13.95606246       4.82148393       53      -0.33784900       0.11962300       0.55977000 
I      23.08939715      12.55831859      19.23930365       53       0.49335500      -0.13372300      -0.07568800 
I      22.36220931      26.88815306       6.18416636       53      -0.47129900       0.32658100       0.14761100 
I      22.56460391      27.22518440      19.73829830       53      -0.10805300      -0.07788600       0.12788500 
I      10.29843638       6.73987662       6.03578099       53      -0.61538100      -0.20499500       0.05287200 
I       9.66612241       7.59327849      19.57669986       53      -0.42263600      -0.02204600       0.05028300 
I       8.86366567      20.09280363       7.55496795       53       0.25163500       0.06931600      -0.07310400 
I       9.36915136      20.25976476      20.22733408       53      -0.09637700      -0.06379700      -0.07006300 
I      23.13845864       7.86995571       5.53487920       53       0.40494900       0.00325300       0.06007500 
I      22.81695735       6.18628711      19.09330784       53       0.51044500       0.04904000       0.13176700 
I      22.06081074      20.69959904       6.72414829       53       0.27134800      -0.23391000      -0.09212700 
I      22.74921994      20.87981719      20.02595643       53      -0.15603400      -0.15560800       0.23559900 
I       3.32699073       0.03226102       6.92868613       53       0.93962500      -0.20322500      -0.15395100 
I       3.46417442      -0.48766317      19.70451749       53       0.01538000       0.16121500      -0.13158000 
I       2.99923756      12.90056239       7.12564239       53       0.05625900      -0.08707800       0.10605100 
I       2.80366924      13.69274037      20.49691112       53       0.01052900      -0.03954800      -0.15626800 
I      16.30281998       0.01636405       7.08055055       53       0.32984600       0.05429300      -0.02155200 
I      16.33788551       0.06576894      18.84324890       53       0.43787700       0.02480800       0.34108500 
I      15.79890825      13.00205711       6.21027157       53       0.27039700       0.07847000      -0.06042400 
I      16.24828848      14.18986773      19.94518480       53      -0.17992000      -0.27176600      -0.03126000 
I      -0.62695025       9.78348037       0.93604179       53       0.33678700      -0.03681600      -0.27877000 
I      -0.03395660       9.83510312      12.51647074       53       0.19338900      -0.36113300       0.11696900 
I       0.02371975      23.11179436      -0.23021992       53      -0.32266400      -0.39195500       0.59513800 
I      -0.63616710      23.08509739      13.31380905       53       0.06480600      -0.39666900      -0.02929800 
I      13.25215591      10.86481890      -1.65890738       53       0.34713700      -0.68447100       1.17201500 
I      13.44658158      10.06762060      12.96280015       53       0.30781300       0.97847000       0.12588100 
I      12.19514934      23.21215869       1.20543179       53       0.10480400       1.10574300      -0.03797300 
I      12.78381562      23.31898442      12.11453716       53       0.09986500      -0.22421900       0.21713800 
I       6.42492975       3.42338950       0.52303736       53       0.17151300       0.01404900      -0.24095700 
I       7.72292967       4.30784433      12.89968650       53       0.07278400      -1.04333600      -0.22712100 
I       6.71162817      16.62670980       0.40588994       53      -0.17492500       0.38648500      -0.13078800 
I       7.21453931      17.28924171      12.61083154       53       0.11623100      -0.17469700       0.21607900 
I      18.70309308       3.42669073       0.40523379       53       0.03967800       0.76356700       0.01258600 
I      20.44047554       3.62793245      12.64586641       53      -0.14830900      -0.05448000       0.19291100 
I      19.54554061      17.14531452       0.05314355       53       0.01517300      -0.35884800       0.24116100 
I      20.77928627      16.43001722      13.10816025       53      -0.39074900       0.04987400       0.43573800 
I      12.72160546       3.75283519      13.26505214       53       0.50884500      -0.37239500      -0.73173800 
I      13.18664043       4.14411287      27.22180142       53      -0.17661100      -0.10664400      -0.08361500 
I      12.69939221      16.95163393      14.19304529       53       0.23686200       0.09556100      -0.27493800 
I      11.74310360      17.12153039      27.38144978       53      -0.20495500      -0.47118900      -0.20579700 
I      25.46124703       4.19677811      12.72741275       53      -0.18118400      -0.06698100       0.22534700 
I      25.36640280       3.85617675      26.85265112       53      -0.21348100       1.04569600      -0.16554700 
I      25.78454202      17.19915716      12.99798628       53      -0.08987800       0.11292000      -0.11120100 
I      24.55692151      17.59416942      26.22043629       53       0.51053200      -0.17834300       0.17831900 
I       4.54172421      10.03568051      13.12791750       53       0.49858400       0.15497200      -0.03441600 
I       6.43100073      10.35803009      26.45053765       53      -0.30925400      -0.45127700      -0.07216100 
I       4.79268357      23.86725621      12.74845370       53       0.23073300      -0.11264400      -0.17303600 
I       4.50450931      23.19606549      26.31400909       53      -0.04012500       0.07891200      -0.25485200 
I      19.06615809       9.99833274      13.11865160       53      -0.07963800       0.05401300      -0.15531700 
I      19.14698286      10.24943928      25.97749900       53       0.25415500       0.22604100      -0.09035600 
I      18.88089306      23.39843044      12.21071721       53       0.78667500      -0.17750400       0.70512100 
I      18.44646440      23.65944270      25.78085957       53      -0.27554700       0.39392000      -0.04299100 
I       9.32704697       7.99281434      13.17375340       53      -0.18580300       0.36817700      -0.01823300 
I       9.58261987       7.07275639      27.41505071       53      -0.03378500      -0.02834700      -0.28922600 
I       9.23492344      21.54725596      12.68437829       53      -0.40855300      -0.36352100       0.44376700 
I       8.71047258      20.87477337      26.23490546       53       0.77921600       0.16942200       0.01175000 
I      22.84411834       7.49665691      12.85015384       53      -0.25715500       0.05864800       0.21484800 
I      22.66473214       7.26854446      27.24849635       53       0.21824200       0.05514100      -0.12102700 
I      22.12001505      20.61736998      12.45619430       53       0.69507900       0.06324700       0.08469500 
I      22.37411518      21.70682052      25.49692681       53      -0.77548200      -0.23246300      -0.04478200 
I       3.08881415       1.52313105      12.96123846       53       0.04639100      -0.04813400       0.06783500 
I       2.76992216       0.88331013      26.24140672       53       0.20119700       0.05660100       0.09553100 
I       2.60775649      13.47789618      12.30865723       53       0.70641600       0.07381500       0.01747200 
I       3.07833813      13.26199416      24.85516195       53      -0.33061300       0.05858700       0.41921300 
I      16.70687739       0.47859656      12.21427394       53      -0.17708300      -0.02436900       0.15225900 
I      15.88050569       0.55471275      25.93568385       53       0.37959100      -0.46134700       0.24580300 
I      16.38856081      14.26892435      13.54464425       53      -0.10910500      -0.03889700      -0.05314200 
I      15.83088310      13.75547689      25.46908105       53       0.30918300       0.15588700       0.14949400 
I       3.20934864       6.71602503      -0.50382792       53      -0.03385000       0.07294500       0.18092000 
I       2.80587994       5.96878252      13.67264379       53       0.44342700       0.04565000      -0.05627600 
I       2.73685270      19.25461805       0.11166003       53      -0.09847900      -0.14425500       0.19602700 
I       2.33894292      19.82472594      13.79119142       53       0.15908400      -0.06858200      -0.14719000 
I      16.59500273       7.05707405      -0.64818947       53      -0.21221500      -0.00614100       0.16409900 
I      16.07762855       5.79695745      13.25237463       53       0.55719400       0.22268400      -0.17076400 
I      15.50275995      19.21783650      -0.11910056       53       0.68593600       0.17756800       0.04965000 
I      16.10781890      19.16350839      13.20755158       53      -0.44150900       0.26429600       0.36348400 
I       9.58030084      12.54731827       0.36935879       53       0.05462700       0.47166100      -0.43518800 
I       9.74206587      13.85724756      13.23416067       53      -0.29582800      -0.44292900      -0.36000500 
I       8.83386064      26.02713590      -0.83837261       53       0.65258200       0.08749700       0.17555000 
I       8.82070174      26.05930187      13.84386585       53       0.69445500      -0.10174600       0.00960100 
I      22.90891225      13.77971482       0.35973823       53       0.17299200       0.26682000      -0.37130100 
I      22.88810841      12.65166859      13.12543290       53      -0.34275600      -0.03292600       0.07577000 
I      22.47267763      25.39121614       0.74408540       53      -0.33690000       0.67445100      -0.10268700 
I      22.56710691      26.49428754      13.08771924       53      -0.39764900      -0.17925200       0.01889900 
I      12.77399780      13.81096503       9.91394511       53       0.04450100       0.04766800      -0.49985300 
I      11.86556363      14.13916074      22.86627742       53      -0.08847600       0.51619200       0.20622000 
I      10.62705931      27.20380617       9.78473749       53       0.50593800      -0.31030800       0.49984900 