320
Lattice="25.8369535533 0.944072175401 0.235733459131 -0.568837972887 25.9817354592 -0.232024481431 0.196244351654 -0.245717998716 25.9035631031" Properties=species:S:1:pos:R:3:Z:I:1:forces:R:3 energy=-101581.883191 stress="3198.561366 52.126727 -1312.832531 52.126727 2284.168585 111.345924 -1312.832531 111.345924 2247.280852" pbc="T T T"
Cs       3.37477438       9.32669628       3.29570899       55       0.15909600      -0.00186100       0.09292400 
Cs       3.26434030      10.45532026      16.26455752       55      -0.08607600      -0.12035600       0.14404400 
Cs       2.85947179      23.22547644       2.53490735       55      -0.28746600       0.14501900       0.33140600 
Cs       3.01912407      23.37837979      15.92085621       55      -0.29941100      -0.10420900       0.12571300 
Cs      16.29495410      10.59692130       3.31378760       55      -0.19925600      -0.07677400      -0.13970400 
Cs      17.23340149       9.64426850      17.05294082       55      -0.29714100       0.01926200      -0.17549100 
Cs      15.32081782      22.84220291       3.89910057       55       0.00632800      -0.20374100      -0.32484800 
Cs      15.31890606      23.35966156      15.28541072       55      -0.07806900      -0.16990000       0.17657500 
Cs       9.70314384       3.34592666       3.32522674       55      -0.19549000      -0.30514100      -0.36246200 
Cs      10.05981389       3.29636381      16.92500896       55      -0.59292500       0.09870300      -0.47514300 
Cs       9.20109787      15.82048371       2.74697795       55       0.01205200       0.32272400       0.21353900 
Cs       9.02549364      17.19738720      17.08159188       55       0.40861700      -0.11991600      -0.46983800 
Cs      22.48505745       4.15372863       3.52606904       55       0.11672100      -0.25149400      -0.02937800 
Cs      23.04401732       4.13461812      17.81549609       55      -0.20014600      -0.00440000      -0.50573900 
Cs      22.88690324      17.28767683       3.35259755       55      -0.07081900      -0.03492600       0.00050400 
Cs      22.05381860      15.89608442      15.43281597       55       0.13205600      -0.26154900       0.00167800 
Cs       9.60522845       3.14186599       9.57916525       55       0.12893800       0.12587000       0.03219100 
Cs       9.63174880       3.50085529      22.00270080       55      -0.02258900       0.06606100       0.26590100 
Cs       8.42427535      15.42341834       9.22415050       55       0.39735000       0.63450600       0.15216500 
Cs      10.29098183      17.50681467      22.39078515       55      -0.36109600      -0.40995600       0.18699300 
Cs      23.01671239       3.98120490      10.55883104       55      -0.07157200       0.02014900      -0.10513800 
Cs      22.74549175       3.00588365      22.51849299       55       0.05005300       0.34331600       0.38345000 
Cs      22.42464035      17.11255207       8.45598260       55       0.01621100      -0.14908000       0.45424300 
Cs      22.92837000      16.91051871      22.44018582       55      -0.00050800       0.05984900      -0.09660800 
Cs       3.53759637      10.09368530      10.07410749       55      -0.36070400      -0.23045100      -0.28704200 
Cs       2.86520200       9.10598626      22.94730210       55       0.44816100       0.19971400       0.01837600 
Cs       2.19810501      23.90701098       9.61361546       55      -0.02822900      -0.20395400      -0.07446900 
Cs       3.38621859      22.11652252      21.87884993       55      -0.69962500       0.49804900       0.40640500 
Cs      15.68711865      10.76704468       9.69937100       55      -0.04097900      -0.05357800      -0.08733700 
Cs      16.26167264      10.50621911      22.75937685       55       0.08666500      -0.29335700       0.35584300 
Cs      15.07208520      22.37622192       9.20282413       55       0.43864300      -0.02820800       0.41434000 
Cs      16.76940017      22.18621359      21.98063750       55       0.05279500       0.18848600       0.30237200 
Cs       3.69363800       3.88733097       9.92547774       55      -0.07245300       0.06272500      -0.19337800 
Cs       2.48372264       3.27253472      23.16149430       55       0.28753300      -0.09366000      -0.29114400 
Cs       2.45312839      16.21660233       9.13715019       55       0.18571300      -0.20872200      -0.01416100 
Cs       3.44532909      16.40616768      22.37659292       55       0.01954200       0.05308000       0.03376200 
Cs      17.03072243       3.33742815      10.10155332       55      -0.01043900       0.06477500       0.15524800 
Cs      15.55506221       4.16095601      22.84535641       55       0.26567000       0.02684700       0.06381800 
Cs      16.32577541      16.23033234      10.20199069       55      -0.14745800       0.24179500      -0.17625700 
Cs      15.98615814      16.62138165      23.03458827       55       0.07707200       0.18022500      -0.12199900 
Cs       9.77774102      10.27722749       9.27785516       55      -0.16372800      -0.00259500       0.02322400 
Cs       9.77325051      10.21159004      22.89307237       55       0.01088300       0.13118400       0.08684800 
Cs       9.24507242      23.68034977       9.70927647       55      -0.07440500      -0.17916900      -0.44035100 
Cs      10.34137689      22.91369526      23.41635753       55      -0.27156800      -0.02878200      -0.17195900 
Cs      23.01416608      10.02879897       9.85733047       55      -0.20645000       0.12336500       0.15262200 
Cs      22.65862322      10.80286637      23.60874085       55      -0.40051900      -0.55045900      -0.14016100 
Cs      21.78278447      23.01716448       8.96076037       55       0.00166700       0.09650200       0.14531800 
Cs      21.48047795      22.87024579      22.91272823       55       0.32366800       0.05080100      -0.38368700 
Cs       9.41976841       9.77335694       2.65076247       55      -0.03325300       0.19099400       0.17561900 
Cs      10.72328908      10.32334289      16.78492536       55      -0.07174900       0.07076300      -0.03900100 
Cs       9.30479821      23.20372941       3.85845285       55       0.38722400       0.08002400      -0.56051700 
Cs       9.58795773      23.48649056      15.66235902       55      -0.15196400       0.00818200       0.06215000 
Cs      22.00083567      10.62233677       3.48385624       55      -0.11280900      -0.21172500       0.30120000 
Cs      22.18273573      10.07146083      16.56896129       55       0.14817900      -0.00277100      -0.03350800 
Cs      21.63177363      23.15435307       2.49130988       55       0.03597300       0.09092000       0.17123400 
Cs      22.89945639      23.37811319      15.24045292       55      -0.12425500      -0.14811900       0.25057100 
Cs       3.94086939       2.87878199       3.20115084       55      -0.14880800       0.36132200       0.07759900 
Cs       3.84761683       3.24783794      15.59947669       55       0.02579800      -0.58589600       0.98489900 
Cs       3.20212598      16.77019994       3.09254338       55      -0.07522600      -0.12120200       0.11518800 
Cs       2.08005126      16.60809562      16.04752403       55       0.05570600      -0.35601700       0.69368700 
Cs      16.30635574       3.11256618       4.09333990       55       0.01809000       0.05078600      -0.21189400 
Cs      15.76869588       4.23438749      16.01296334       55       0.10227600      -0.14750100       0.08204800 
Cs      15.48348979      17.11354545       3.71718428       55      -0.01892600      -0.73411100      -0.40331600 
Cs      15.80361238      16.51182945      15.64201792       55      -0.57960100      -0.07547400       0.45896400 
Pb      -0.08220266       0.09882160       6.40391948       82      -0.52915100      -0.55777000       0.15427400 
Pb       0.22212509      -0.19026275      20.04084622       82      -0.29645200      -0.33467300      -0.32576800 
Pb      -0.18710622      12.63549364       5.52275598       82      -0.17306700       0.70090400       0.78005100 
Pb       0.15955294      12.88660329      19.04902463       82      -0.64081900       0.41643700       0.75732900 
Pb      13.13310991       0.20448337       6.32861983       82      -0.09841300       0.95534600       1.20822300 
Pb      13.18164491      -0.02120473      19.86505953       82       0.52261800       0.02371800      -0.15448400 
Pb      12.44253861      13.66189012       5.79067514       82       0.02054300      -0.49364500       0.01445900 
Pb      13.21236993      13.09532375      19.88221266       82      -0.07025200       2.01080600      -0.86576600 
Pb       6.62035895       6.34631831       6.39972192       82      -0.31330600       0.54229800       0.04386500 
Pb       6.59897988       6.50123174      19.18241098       82      -0.18737100       0.22996600       0.29899000 
Pb       5.84717952      20.02111129       6.93393736       82      -0.18905500      -0.91890400      -0.03186100 
Pb       6.21261874      19.93502733      19.39664676       82       0.65033300      -0.08278600       0.50413600 
Pb      18.81790940       6.73044839       6.78699636       82       0.24294300       0.10060100       0.05773700 
Pb      19.24096194       6.97074230      19.97418801       82       0.04730400      -0.48374200       0.33025500 
Pb      18.92532176      19.69149073       6.24575525       82       0.51765300      -0.68686900       0.58503000 
Pb      19.05355366      19.18044144      19.01955047       82       0.58672700       0.90398100      -0.14444600 
Pb      -0.13606951       6.45451524       6.31168666       82       0.70307100      -0.14755100      -0.22343300 
Pb      -0.10220317       6.85176510      19.59190787       82      -0.09775300      -0.60353300      -0.21556600 
Pb      -0.20411339      19.68983137       6.18108888       82      -0.15308200      -1.03775900       0.01240400 
Pb      -0.24921614      19.50620200      19.41319779       82      -0.40078400      -0.25201100       0.16136500 
Pb      12.68134345       6.91481164       6.22482015       82      -0.01778200       0.14729600      -0.39613000 
Pb      12.77746670       6.70334720      19.46175407       82       0.04197800      -0.18960000       0.31340800 
Pb      12.00837434      19.97583318       6.94584075       82       0.56251700      -0.86124400      -0.36468800 
Pb      13.13997745      19.92730122      18.95963816       82      -1.10741500      -0.67296300       0.20934000 
Pb       6.46556919      -0.10666529       6.50527928       82      -0.63683300       0.19962900       0.03475400 
Pb       6.58784889       0.07927218      19.97680325       82       0.16006000      -0.20655100      -0.05365400 
Pb       5.86738985      13.12505234       6.36233716       82       0.24339300      -0.09525400      -0.64017000 
Pb       6.71234748      13.35885174      18.97807966       82       0.03538100       0.63344400       0.35706700 
Pb      19.10181395      -0.17274977       6.62239033       82       1.35545400       0.75339100      -0.08448500 
Pb      19.16264261       0.62649185      19.58223756       82       0.00288400      -0.05909300       0.22284900 
Pb      18.90962018      13.10302655       6.24156782       82       0.14598800       1.07933100       0.32778600 
Pb      19.45385564      13.33086664      19.39106961       82       0.71966100      -0.06772000      -0.07673000 
Pb      -0.23245833      -0.08951621      -0.00105421       82      -0.14400400      -0.51327200      -0.47978100 
Pb       0.04178302       0.21773392      13.45348895       82      -0.55761800      -0.04502500      -0.52093900 
Pb      -0.26240688      12.73085157      -0.26261468       82       0.14753200       0.22699000       0.01263400 
Pb      -0.01284306      13.17239629      12.26108455       82      -1.15833000      -0.18898300      -0.07751300 
Pb      12.92789164       0.44332471       0.12562173       82       0.71908500       0.38850200      -0.21724100 
Pb      12.94201292       0.56958707      13.02414868       82      -0.19775600      -0.80157200      -0.33194000 
Pb      12.95421028      13.75136071      -0.45765278       82      -0.47138200      -0.98732200       0.30858900 
Pb      12.20234100      13.17596031      13.37268514       82       0.15539300       0.39318500      -0.02735600 
Pb       6.38978907       6.76505673      -0.11373151       82      -0.17044900       0.00359300      -0.06460500 
Pb       7.23975113       6.77135560      12.97925576       82      -1.69810200      -0.35797500      -0.37934700 
Pb       5.94468844      19.44903874       0.51056374       82       0.44367600       0.71561000      -0.50980800 
Pb       6.12916218      19.81768314      13.31841790       82      -0.31259500      -0.50614900      -0.34966400 
Pb      18.86673025       6.91900109       0.65893197       82       0.30479700       0.14760100      -1.03503000 
Pb      19.53373601       6.98539879      13.09818126       82      -0.38753800      -0.14293800       0.18512700 
Pb      19.22925216      19.68551419      -0.38288124       82      -1.17349600      -0.35698300       0.43017000 
Pb      18.93180613      20.09567807      13.09442869       82       0.08059400      -0.38715300      -0.25206400 
Pb      -0.61085008       6.59139872      -0.00622488       82       0.62398600      -0.29950600       0.67557500 
Pb       0.32867685       6.77056089      13.16088721       82      -0.90645700       0.07632800      -0.11648200 
Pb       0.01483692      19.32870527       0.01562656       82      -0.08488700       0.14389600      -0.44434500 
Pb      -0.16943003      18.98938297      12.60163236       82      -0.33221000       0.24423900      -0.08098300 
Pb      12.72439355       6.73614819       0.22916090       82       0.47236500       0.81194700       0.14023100 
Pb      12.96412589       6.87453999      12.62781821       82       0.19458100      -0.09975300      -0.09464900 
Pb      12.65899633      19.85573691      -0.43087090       82      -0.19674100       0.11376000       1.63099300 
Pb      12.12792931      19.82705644      12.93083429       82       0.39497100      -0.24459000      -0.59744000 
Pb       6.39639205       0.13995689       0.01439902       82       0.15932300      -0.05143400      -0.38518800 
Pb       6.15010640       0.14607939      13.03655283       82       0.92789000       0.03891900      -0.04917000 
Pb       5.74154715      13.30179288      -0.44809093       82       1.09353000      -0.56402600       0.65654200 
Pb       6.17743566      13.52104121      12.87540033       82      -0.08408500      -0.10433100       0.30191500 
Pb      19.11486076       0.65293212       0.04406882       82       0.78380000      -0.15409500       0.30649300 
Pb      19.57546328       0.17508321      13.31005927       82      -0.11350500       0.43108400       0.08840300 
Pb      19.53016185      13.67224363      -0.07522261       82      -0.39161100      -0.26697800      -0.04449500 
Pb      18.87950539      13.30111272      12.82666564       82       0.32167800      -0.32764100      -0.08946200 
I      12.08745594       3.56516485       6.34375274       53       0.55497100      -0.31801800       0.04291700 
I      12.68415534       3.28652727      19.23247965       53       0.35562200       0.65784800       0.55160600 
I      12.16780260      16.62636277       6.24606543       53       0.04394800       0.42245700      -0.06176500 
I      13.01135530      16.72966068      18.43278391       53      -0.07552700       0.13574900       0.23917900 
I      25.58537458       3.95528261       7.22504599       53       0.03702300       0.65755500       0.07281000 
I      26.28556044       4.52529845      19.68517462       53       0.11677300      -0.26690400       0.31140400 
I      26.05086192      17.22965095       6.25363949       53      -0.30776900      -0.13325300      -0.15247000 
I      25.15353158      17.34577266      18.83861439       53       0.20036500      -0.78289700       0.48330100 
I       6.61775892       9.85270920       6.22109191       53      -0.06021200      -0.11753400       0.07797900 
I       6.86087181      10.71170296      17.81267102       53       0.11270500      -0.84054100      -0.13837300 
I       6.49513255      22.74770964       5.81837742       53      -0.37995500       0.48296800       0.25804400 
I       6.77732504      23.00940290      20.68662394       53      -0.06526000       0.32208100      -0.35792300 
I      19.11109704      10.16398761       6.87014172       53       0.07178100      -0.62615300      -0.10893200 
I      19.79287790      10.17279428      20.07810730       53      -0.34383600       0.18463800      -0.08477800 
I      18.49890285      22.89013276       6.17933424       53      -0.09964500      -0.39111500       0.17344900 
I      19.39539388      23.62653969      19.63249984       53      -0.05721700      -0.40903100       0.00000100 
I      -0.08468613       9.71449986       4.80848027       53      -0.26483700      -0.81139900       0.12251000 
I       0.69464621       9.81022473      19.78419287       53      -0.07036600       0.34705300      -0.08902000 
I      -0.50248995      22.56590587       6.48064838       53      -0.06100900       0.96437800       0.12251800 
I       0.41981999      22.73907732      19.08126912       53      -0.01057300       0.35570700      -0.09069100 
I      12.30604235      10.36820844       6.49213111       53       0.09912400      -0.12586500       0.28799500 
I      13.34692401      10.28153554      19.91727918       53      -0.13400800      -1.66214800       0.12617300 
I      12.20456192      23.14280750       6.87246300       53      -0.13023700       0.21047600       0.00007100 
I      13.93961237      22.78796406      19.96903457       53      -0.47500300       1.15279900      -0.32302900 
I       6.89446143       3.22063133       6.38365542       53      -0.54482400       0.42609400      -0.12903200 
I       6.49684158       3.41413982      19.36367751       53       0.17745500       0.09622400      -0.10747900 
I       5.42896517      16.45461449       6.58093878       53       0.20543500      -0.10970600       0.12048600 
I       6.70106242      16.78762778      19.83343439       53      -0.20357300       0.04659500       0.18081400 
I      19.67183993       3.75446463       6.51201504       53      -0.20709500      -0.10341000      -0.02064200 
I      18.64024947       3.82197735      19.42898856       53       0.30826300       0.43423900       0.20685800 
I      19.45733452      16.53563118       5.50979737       53      -0.25048500       0.33938200       0.25690100 
I      20.03698620      16.45322477      18.28963298       53      -0.27867900      -0.23414900       0.33322500 
I       3.38281168       6.59273472       6.81806399       53       0.04877000      -0.01194300       0.12972400 
I       3.60471681       7.29951342      19.36737331       53       0.05524400      -0.16037200      -0.07736000 
I       2.88209868      19.70109920       5.68009814       53       0.21682900       0.26259500      -0.05190600 
I       3.26480963      19.79681089      18.87978922       53      -0.57060100      -0.25219000      -0.17392600 
I      15.91322742       6.83237381       7.70360852       53       0.06310400      -0.14618600       0.00644600 
I      15.97784209       7.19922708      20.21461978       53       0.15351700       0.03810700      -0.15884200 
I      15.88760820      19.43355915       6.20528289       53      -0.71215400       0.55575000       0.67488700 
I      16.01480211      19.38218084      18.99737972       53       1.14647900      -0.35893700       0.07964100 
I       9.17238801      13.32998882       6.28090387       53       0.27566600      -0.01073800      -0.00710900 
I      10.05889856      13.96211863      19.08545046       53      -0.32514100      -0.33994800       0.08752200 
I       8.76178624      26.66272262       5.98224551       53       1.29567300      -0.68455500       0.01810700 
I       9.53435443      25.89953178      19.99718692       53      -0.32734500       0.00520100      -0.07150800 
I      22.13946872      13.91301801       6.56198538       53       0.18085300      -0.62036500      -0.33712100 
I      22.66048024      12.75414038      19.38258529       53       0.10325000       0.20076200      -0.20369700 
I      21.87008584      26.33365348       5.61424173       53      -0.04901600      -0.03853500       0.09052900 
I      22.36101703      26.70569162      19.33820122       53       0.37445800       0.00696300      -0.16585700 
I       9.69027442       6.35815988       5.20590549       53       0.14903800       0.74771000       0.18709700 
I       9.77248520       7.69236907      19.84501240       53       0.02819600      -0.12365800      -0.17597800 
I       9.18525743      19.24839409       7.16739819       53      -0.66527400       0.04603500       0.16369700 
I      10.11439841      19.84285229      19.63737249       53      -0.80771400       0.39061300       0.29491500 
I      22.79165073       6.80017392       6.45885066       53      -0.63860000       0.26606300      -0.05844700 
I      22.47763646       7.25134536      19.97649510       53       0.45010200      -0.04710300      -0.07432500 
I      22.25867601      20.06028414       6.36473345       53       0.16227900       0.32594000      -0.22522600 
I      22.26386088      19.92905992      19.75892134       53      -0.00379100       0.31788200       0.34282200 
I       3.10404131       0.32958712       6.36907901       53       0.16407300      -0.08539700       0.07348200 
I       3.74462403       0.30590501      18.67787243       53      -0.10041400      -0.09288400       0.27227700 
I       2.74622278      13.03221437       6.83452682       53       0.10727200      -0.33070200      -0.00086500 
I       3.05538872      13.26719366      19.90951759       53       0.41369500       0.08642800      -0.19236400 
I      16.35450757       0.86956318       7.19634424       53      -1.34693000       0.00478000      -0.24039100 
I      16.15107739       1.24937608      20.59345146       53       0.09644800      -0.62850500      -0.52879500 
I      15.48709233      13.65290504       6.87378177       53       0.20050700      -0.02086500      -0.11863000 
I      16.55400172      13.18102658      20.25972152       53      -0.68516700       0.29221100       0.02516700 
I       0.60307227       9.68171914       0.32015401       53      -0.26292800       0.00021600       0.05239300 
I       0.52133995       9.93214660      13.23646561       53       0.20655100      -0.23435800      -0.22374000 
I       0.48685831      22.55827707      -0.49008276       53      -0.71594000       0.72064200      -0.18395000 
I       0.41101535      22.17919401      12.72560690       53      -0.04135600       0.05693300       0.15835900 
I      12.67901204      10.41177956      -0.20125791       53       0.12186600       0.07464000      -0.21955200 
I      13.73127304       9.73285519      13.13973823       53      -0.15617700       0.27616000       0.02400500 
I      13.56856457      23.66105579      -0.57902524       53      -0.41910900      -0.71693500       0.14097100 
I      12.29076043      23.01706210      12.06489798       53      -0.02912500      -0.47217200       0.13706000 
I       6.83558711       3.67380475       0.16051490       53       0.11904300      -0.16715400       0.02103300 
I       6.26159265       3.72513745      12.86778268       53       0.46808000      -0.50224600      -0.11649000 
I       5.67197163      16.54512206      -0.11166162       53       0.05657800      -0.26681200      -0.04869600 
I       7.68118638      16.88230250      13.22155063       53      -0.23231900       0.08371700      -0.10965900 
I      19.59711807       3.74981700       0.39147099       53      -0.28160300       0.42152400       0.18139000 
I      19.15447556       3.41557313      13.50425299       53       0.03224000      -0.16119100      -0.36347500 
I      19.65882962      16.61821092       0.68776550       53      -0.00007100       0.06868600       0.06231700 
I      18.53352944      16.61881303      13.54888641       53       0.75140700      -0.04869300      -0.50239700 
I      12.17016848       3.39274959      13.53768853       53      -0.07259000       1.01190000      -0.18450100 
I      13.40364228       3.67063099      27.41549507       53      -0.00008900      -0.00243700      -0.21337200 
I      12.53732078      16.30128744      13.50276494       53      -0.12204200       0.08075700       0.30881400 
I      12.63890967      16.56225999      25.81440066       53      -0.39494800       0.54149200       0.36886700 
I      25.02023342       4.10714188      13.83486086       53       0.13759700      -0.00520600       0.13762800 
I      25.50939071       3.71762218      25.78969982       53      -0.13108400       0.54961900       0.00906800 
I      23.78362133      16.82196040      12.49200922       53       0.81777500      -0.16093200      -0.36259000 
I      26.25532604      16.87400266      26.52167098       53      -0.36727900       0.01586100      -0.04551900 
I       5.46288727      10.39958321      13.18754846       53       0.18756000       0.05198000       0.09067700 
I       5.67878748       9.72307034      26.04718741       53       0.12755100       0.18308200      -0.17151200 
I       5.17782410      23.01930229      12.93102689       53      -0.20653100       0.42941800      -0.39282000 
I       6.07177084      22.85588731      25.15626948       53       0.07169700       0.10021000       0.09566200 
I      18.44046846       9.94248694      12.37749516       53       0.13529200       0.20029100       0.20782800 
I      19.15559768      10.06792823      25.79086249       53       0.17520800       0.28430100       0.25151100 
I      18.19125638      23.02696961      12.73636384       53       0.06694100       0.17238100      -0.33517100 
I      18.74644848      22.42679538      25.27924454       53      -0.12610300       0.52310000       0.28275000 
I       9.65390536       8.13796133      13.24433768       53       1.66457200       0.67267000       0.04880200 
I       9.87628184       7.27081674      25.34782566       53      -0.49838500      -0.27176900       0.47658200 
I       8.71327557      20.95788411      12.39469594       53       0.61416200      -0.00405400       0.05864400 
I       9.37615878      19.48701546      25.85179352       53       0.18853100       0.12558900      -0.16689100 
I      22.45906217       7.43423679      13.60063573       53       0.45619400       0.11355700      -0.03509700 
I      22.45859082       7.16881529      27.14005355       53       0.06559600       0.12591200      -0.00301300 
I      22.14944008      20.35453207      12.57987316       53       0.01692600       0.32276500       0.19181800 
I      22.31200764      19.50720248      25.53591208       53       1.05126300       0.30719200      -0.01071800 
I       2.98601087       0.80121419      12.62847709       53       0.14960200       0.10452300      -0.09836000 
I       3.48969694       0.18128477      26.17705130       53      -0.38753900       0.09538000      -0.22408500 
I       2.74246413      14.19107071      12.74331146       53       0.56796000      -0.36396300      -0.03689900 
I       3.06738943      13.46780689      25.45452744       53      -0.56704500      -0.12245500      -0.25319700 
I      15.87776862      -0.41459559      12.52866920       53       0.20465700       0.56031500       0.14266600 
I      16.60975397       0.30885171      25.14966752       53      -1.35013000       0.35209900      -0.20874100 
I      15.68742376      13.37147584      12.66908933       53      -0.02075200      -0.01025000       0.01322700 
I      16.27573513      13.77697891      25.29087526       53       0.65672200      -0.25739500       0.17292700 
I       3.02968234       6.27305308      -0.45392859       53       0.04541100       0.07194600       0.28698000 
I       3.04917297       5.86537166      13.62925740       53       0.42478100       0.68766200      -0.62320500 
I       2.90820445      20.29462889       0.55780531       53       0.55188200      -0.92789100      -0.04527600 
I       2.69429101      17.83600748      12.91131933       53       0.35063700       0.85244700      -0.49353100 
I      16.23656533       7.50420966      -0.88025120       53      -0.78002300      -0.29421900       0.26939100 
I      16.20437862       6.40425196      12.73789650       53      -0.63317000      -0.21846300      -0.08376900 
I      15.48886928      19.07738579       0.59016738       53       0.55193700       0.46424000      -0.25759000 
I      15.47046225      19.63283434      12.25845107       53       0.01558800       0.24035400       0.50133900 
I       9.63940700      13.76814386      -0.23342941       53      -0.19963200      -0.36244700      -0.36202100 
I       8.95009263      12.64840867      13.93413151       53       0.42618600      -0.04791500      -0.03946500 
I       9.36244702      26.55712167      -0.11079088       53      -0.47580900      -0.16429200      -0.04187700 
I       8.89023607      25.64625189      12.59405526       53       0.03257100       0.39416300      -0.07500100 
I      22.66348979      13.33351432       1.19227567       53      -0.07795900       0.22868600      -0.18542300 
I      22.32716995      12.24755221      13.27488429       53      -0.18886200       0.32240100      -0.08670800 
I      21.68595066      27.09540594       0.17801674       53       1.19625900      -0.40487800       0.07334800 
I      22.10884912      26.14221489      12.87191943       53      -0.02156000       0.04469100      -0.21267300 
I      11.93884950      13.75536163      10.36568747       53      -0.08382500      -0.33365000      -0.30041000 
I      12.90526475      14.69303863      22.69785891       53      -0.24120200      -0.21266300      -1.29441800 
I      12.43355354      26.97624122       9.50908797       53      -0.18960600      -0.05839200      -0.05597600 