320
Lattice="25.7342916715 0.494106680451 -0.289061252938 -0.992555480587 25.7380870353 -0.0530203543515 -0.332195103624 -0.0784614641464 25.3493226528" Properties=species:S:1:pos:R:3:Z:I:1:forces:R:3 energy=-101580.45426 stress="54.190403 431.358587 815.952192 431.358587 1103.662269 312.2562 815.952192 312.2562 2334.775431" pbc="T T T"
Cs       2.75605271       8.65580108       3.45691992       55      -0.15443600       0.35308300      -0.12974700 
Cs       3.31300639      10.40792719      16.22215515       55      -0.22025600      -0.03158900      -0.07381500 
Cs       1.53953286      23.06194748       2.83906183       55       0.21313800      -0.10792600       0.05025200 
Cs       2.32801270      22.06238395      15.85517320       55      -0.01411500       0.08998600       0.11286100 
Cs      15.11391091      10.04922340       3.38965797       55       0.25816400      -0.16292700      -0.05258500 
Cs      15.24240154       9.36957092      15.52090681       55       0.57655500      -0.48466500       0.18668400 
Cs      14.84787527      22.30094611       2.73704596       55       0.49664200      -0.22632100       0.11595400 
Cs      15.22645383      22.94037511      15.82396422       55      -0.54593200      -0.66481700       0.16776100 
Cs       9.33156640       3.33570274       2.79200291       55       0.01868800       0.05295000      -0.00600100 
Cs       9.06565547       2.97476504      15.55531452       55       0.07473000       0.19224300      -0.08405200 
Cs       9.42303427      16.10786122       3.46914211       55      -0.18696500      -0.16390700      -0.18635100 
Cs       8.47731222      17.32038717      15.79436656       55       0.50278400      -0.61993800      -0.01925700 
Cs      22.96718611       3.19010205       2.63518275       55      -0.16956700       0.01049500       0.09084800 
Cs      21.50248697       4.33147690      15.15001077       55       0.59414800      -0.00864400       0.59052900 
Cs      22.66897667      16.30107058       2.80560496       55      -0.04515800      -0.01340100      -0.02897100 
Cs      21.23397895      16.18974590      14.80419965       55      -0.00114800       0.02923700       0.34275100 
Cs       9.05663101       3.50335027       9.05528906       55       0.27562200      -0.19874500       0.19537200 
Cs       9.19575543       3.44639088      21.72643538       55       0.09641800      -0.02175000      -0.07298700 
Cs       9.05987063      16.58172696       9.65854039       55      -0.09772700      -0.11276600      -0.23266500 
Cs       8.89812568      16.38487489      22.27690781       55       0.46752300       0.02956100      -0.47851500 
Cs      22.31062109       3.63161940       9.69316360       55       0.01174500      -0.32524700      -0.02597200 
Cs      22.33142476       4.17571334      22.15686696       55      -0.43499800      -0.74609300      -0.12239900 
Cs      22.14783351      15.75190818       8.69613530       55       0.23015500       0.39795300      -0.12501600 
Cs      22.12437888      16.38043399      21.87455235       55       0.16536400      -0.24406400      -0.04142600 
Cs       3.07477847      10.17421499       9.54283267       55       0.05403400      -0.25330200       0.68768800 
Cs       2.31767922       9.27734678      22.32763538       55      -0.06567500       0.16199700       0.17206900 
Cs       1.36783455      23.27470436       9.51608554       55       0.47827600       0.56601100      -0.05112700 
Cs       0.72940726      22.59034958      22.43629313       55       0.21046700       0.03520500      -0.11324500 
Cs      15.02298581       9.08385306       9.20662370       55       0.19258300       0.16895400       0.38737100 
Cs      15.54256054      10.33837944      22.67484332       55       0.10985300       0.00475500      -0.21137400 
Cs      14.99093973      22.41736121       9.62327763       55      -0.00480900      -0.06466700      -0.27362700 
Cs      15.44166113      21.83896932      22.17075036       55       0.15738000       0.15415600      -0.75972500 
Cs       3.64283787       3.54779015      10.06293321       55      -0.58513400      -0.08251300      -0.07080100 
Cs       3.26118431       3.30787906      21.51952320       55      -0.25022700      -0.18013300       0.29374300 
Cs       2.74771269      16.16359041       9.63729174       55       0.27854300      -0.07623500      -0.10755400 
Cs       2.61382535      15.93832799      21.80388216       55      -0.04819500      -0.13025700       0.00161100 
Cs      15.88988222       2.82604944       9.36813719       55       0.28891400       0.15920700       0.07759000 
Cs      15.33156365       4.10515189      21.71170790       55       0.08745600      -0.07159900       0.00761500 
Cs      15.07386005      16.69326216       9.06164360       55      -0.03715700      -0.15834400       0.13193300 
Cs      14.78394374      15.89425128      22.06546294       55       0.11472100       0.15001000       0.01853000 
Cs       8.53235498      10.05419808       9.33698807       55       0.32672200       0.29688200       0.05966500 
Cs       9.62887988       9.74847973      21.43164517       55      -0.00967200       0.02959100       0.13222200 
Cs       9.14389644      22.08911512       8.91274242       55      -0.05367100       0.88426800       0.42584400 
Cs       7.84029972      23.09827482      22.42409788       55      -0.05800700      -0.17247300      -0.20447600 
Cs      21.60273187      10.03973998       9.31726494       55      -0.12025900      -0.14880000       0.12245400 
Cs      21.06350386       9.59696749      21.46175066       55      -0.08121300       0.40832700       0.37945000 
Cs      21.30471699      23.34657482       9.38142096       55       0.02907600      -0.13703600      -0.00869100 
Cs      21.44791116      22.12189753      21.89239575       55      -0.23169900       0.41111700       0.29891900 
Cs       9.07273337       9.61049371       2.58484429       55      -0.13238000       0.16754000       0.11950700 
Cs      10.03066264       9.55276906      15.87700353       55      -0.04068400       0.04276800       0.08731300 
Cs       8.84950531      23.68413871       2.99536018       55      -0.22758500      -0.22526200      -0.00552100 
Cs       8.35451963      23.15016574      15.53000611       55       0.13437000      -0.18656100      -0.08178200 
Cs      20.60153305       8.98241488       3.55092402       55       0.78698100       0.53454000       0.10484000 
Cs      22.61525491      10.31258314      15.74122848       55      -0.19255400      -0.05550300      -0.07019100 
Cs      21.16301243      22.35835747       2.21193084       55      -0.03540800       0.24427500      -0.10392000 
Cs      21.27579779      23.37848022      15.84692497       55      -0.05887100      -0.32159700      -0.36969400 
Cs       3.19190794       3.82887156       3.17494853       55       0.01871000      -0.65254600       0.26964200 
Cs       2.75400537       3.15402415      17.00508063       55       0.09523000       0.00054200      -0.33947500 
Cs       3.44643278      15.92240622       3.16466294       55       0.01459400       0.00677200       0.01753100 
Cs       1.24673111      16.45917283      15.59584230       55       0.68023000      -1.12841100       0.12838000 
Cs      15.73620690       3.43251645       2.45764573       55       0.00183300       0.20035800       0.53196500 
Cs      15.34532135       4.06412625      15.62140713       55       0.18352300      -0.20774100       0.01509000 
Cs      15.48024234      16.41697784       3.50210211       55       0.10363800      -0.08953000       0.04762400 
Cs      14.63832110      15.94303627      15.39165093       55       0.15403000       0.08260200       0.24451700 
Pb      -0.51940112      -0.17544478       6.03208623       82       0.35589400       0.53474800      -0.13701600 
Pb      -0.50913149       0.34411398      18.71378654       82      -0.04932600      -0.57791100      -0.04678600 
Pb      -0.67317721      12.22172197       6.35980852       82       0.64956300       0.92228200      -1.30980700 
Pb      -0.68590725      13.09103089      18.71331961       82      -0.42492900      -0.47409900       0.93335400 
Pb      13.01100100       0.38987186       6.16558546       82      -0.03426400      -0.47399300       0.04393200 
Pb      12.61990891      -0.05049410      18.76927728       82       0.15873900      -0.01895200       1.02162100 
Pb      12.44322994      13.04742711       6.29354629       82       0.19477100       0.43278300      -0.39056600 
Pb      12.39718671      12.81845313      18.24087064       82      -0.47613400       0.28872000       0.36635500 
Pb       5.60355933       6.82022585       6.71395567       82      -0.13102200      -0.40096800      -0.02286800 
Pb       6.03577085       7.09566910      18.53093561       82       0.38310600      -0.91296800       0.62490300 
Pb       5.41652292      19.38001956       6.46185531       82       0.34367800       0.61095500      -1.28371100 
Pb       5.72573033      19.50482656      19.33711519       82      -0.03168400       0.10974200      -0.10519100 
Pb      18.34905747       6.47442272       6.68082905       82       0.13583900      -0.02338400      -0.38618700 
Pb      18.97735580       6.83167181      18.85749354       82      -0.14937800       0.06596200       0.83962300 
Pb      18.56955773      19.66211167       6.25704036       82       0.00380600      -0.32522300      -0.03001100 
Pb      18.79968608      19.46735683      18.73495238       82      -0.26582100      -0.96099200      -0.66048800 
Pb      -0.76931246       6.26409431       6.60418245       82      -0.01467700      -0.43302700      -0.13437300 
Pb      -0.20328543       6.52734130      19.07827018       82      -0.55342200       0.84741400      -0.19211300 
Pb      -0.57461249      19.13921650       5.83672976       82       0.19407000      -0.16644600       0.60507600 
Pb      -0.76935237      19.45070871      18.58091389       82       0.16893600      -0.33641900       0.06677400 
Pb      12.06227778       6.66599879       6.32112354       82       0.17209300       0.16806600       0.46680500 
Pb      12.69251769       6.52579781      18.87448388       82      -0.59119800       0.25098600      -0.44282600 
Pb      11.63981907      19.49246569       5.40566663       82       0.22072100       0.26255200       1.02523900 
Pb      11.98355292      19.59591829      18.43397724       82      -0.69665400      -0.85647500       0.63603500 
Pb       6.11106452       0.31284613       6.50886834       82      -0.25478100      -0.54629100       0.25401700 
Pb       6.02002767       0.20243537      19.18670943       82      -0.07386200      -0.11257100       0.03260200 
Pb       6.03338827      13.07683919       6.35351085       82      -0.11877400       0.17326200       0.06077200 
Pb       6.10770018      13.28929076      18.71813964       82       0.13465500      -0.02971300       0.14112700 
Pb      19.30110313       0.18943295       5.85674921       82      -0.04868400      -0.11940200      -0.34061900 
Pb      18.93763219       0.13811373      18.62317473       82       0.06251200       0.30575700       0.39372500 
Pb      18.89582632      12.97667311       6.19947834       82      -0.23861200       0.65603100       0.07316400 
Pb      18.18680168      13.28654701      18.63730657       82       0.45305800      -0.16681900       0.14987600 
Pb      -0.00594647       0.19536346      -0.41616603       82       0.04228400      -0.51928300       0.45949700 
Pb      -0.01255743       0.67911171      12.57788354       82       0.01660500      -0.15365400       0.93198500 
Pb      -0.39595103      12.77811792       0.48249510       82      -0.21529200      -0.57830300      -0.18221900 
Pb      -0.87355526      12.42320550      12.26875695       82       0.38862800       0.49386700       0.44639500 
Pb      13.67516971       0.12963801      -0.51498617       82      -0.91696000      -0.51151700       0.16291400 
Pb      12.95178375       0.10069487      12.71251519       82      -1.21540900       0.41307100      -0.55754100 
Pb      12.24858784      13.29499678      -0.56540245       82      -0.01376200      -0.89320800       0.42097000 
Pb      11.91770475      13.43015822      12.23927204       82       0.44050400      -0.97269100       0.48316000 
Pb       5.95928888       6.50622136      -0.29430732       82      -1.23157200       0.22202600      -0.20823600 
Pb       6.12435029       7.15009725      12.98650873       82       0.61474400      -0.60471500      -0.45682400 
Pb       6.49824551      19.10182857      -0.13977595       82       0.18279300       0.46285900       0.48723900 
Pb       5.40437357      19.87422102      12.36889209       82       0.66643600      -0.62408700       0.23836000 
Pb      18.70616788       6.65643755       0.05921526       82      -0.19941900       0.23821500      -0.66160600 
Pb      19.11957319       6.76163318      12.37748254       82      -0.31820000      -0.22927700       0.10858700 
Pb      18.93460907      18.92478143      -0.24546944       82       0.11932500       0.11878400       0.08208400 
Pb      18.57727417      19.40988161      12.01765232       82       0.19456500      -0.02684100       0.33961500 
Pb      -0.72527167       6.22062622       0.30515463       82       1.08861400       0.70791500       0.51527200 
Pb      -0.01028659       6.51106933      12.63072630       82       0.10513400       0.18764200       0.02569400 
Pb      -0.11689002      19.07019256       0.10514076       82       0.22738500      -0.25292400       0.17452600 
Pb      -0.34261539      19.69096901      12.31809967       82      -0.38395800       0.08163800      -0.08731900 
Pb      11.86791405       6.49645558      -0.22670015       82       0.96672600       0.04206000      -0.18032200 
Pb      12.50256592       6.87723214      12.10436401       82      -0.21474600      -0.82321600       0.59625600 
Pb      12.85196288      19.37113078      -0.57011173       82      -0.28125000       0.50215600       0.43994200 
Pb      12.03381754      19.16241172      12.57101816       82      -0.32545700       0.62122600      -0.66813900 
Pb       6.64767050       0.34197285      -0.02619539       82      -0.47435400      -0.14927300       0.32121500 
Pb       6.28039821       0.10984505      12.71684235       82       0.14185700       0.31384700      -0.89657400 
Pb       6.14714343      12.83037999      -0.41441102       82       0.17157900      -0.27295300       0.24676600 
Pb       6.14180457      13.25431635      13.41304516       82      -0.78651400       0.10797600      -0.29446600 
Pb      19.28903958       0.64886354      -0.58318399       82      -0.42623000      -0.83883600      -0.13485700 
Pb      18.65138454       0.05973009      12.18205623       82       1.61472900       0.44052800       0.26117400 
Pb      18.83697024      13.01013497       0.06120473       82       0.02895400       0.47701900      -0.25715100 
Pb      18.03153298      12.99178672      12.25054439       82       0.10051800       0.08446900      -0.14958900 
I      12.91248816       3.30144370       5.23053613       53      -0.26932100      -0.04692000       0.13412600 
I      12.40694750       3.49955391      18.85449736       53       0.14596900      -0.61360000      -0.08652000 
I      12.20917253      16.38445085       6.05976425       53       0.12842300       0.01879700       0.04467700 
I      11.40249808      16.37979345      18.13353987       53       0.20757400      -0.03420100      -0.01635600 
I      25.15840308       3.49768316       6.65967418       53      -0.28121000       0.47439000      -0.08994700 
I      25.26862328       3.93933321      18.86652499       53       0.03323300      -0.07416800       0.09802500 
I      25.37144531      16.38022646       5.74903131       53      -0.03331300       0.32717500      -0.01775900 
I      24.67175044      16.63519829      18.64691670       53      -0.10971100       0.75212200       0.10642000 
I       5.82769432       9.80929834       6.54362325       53       0.28996400       0.23268600      -0.11065500 
I       6.69035038       9.96283697      18.75967812       53       0.03523200       0.30512600      -0.37266500 
I       5.18642849      22.49274767       6.37318508       53      -0.00846600       0.44189400      -0.20187000 
I       4.43957892      22.88604474      19.62171659       53       0.40058500      -0.27202500      -0.05627300 
I      17.87823680       9.60246897       6.83714735       53       0.19990100       0.14992100      -0.07508700 
I      17.71589520       9.95355409      19.38022709       53       0.29474000       0.29521100      -0.09781400 
I      17.96382804      22.72467593       6.08984780       53      -0.16192800       0.22187500       0.25647900 
I      17.98736349      22.26014196      18.82401073       53      -0.22308600       1.08732200       0.19952700 
I      -0.45449681       9.49487680       5.62666974       53      -0.14711700      -1.03774000      -0.24371300 
I      -0.17667299       9.84417997      18.67399010       53       0.12798000       0.04855500       0.13816800 
I      -0.60679426      22.79614830       6.35823210       53       0.16894200      -0.59403600      -0.08041900 
I      -1.42931665      22.69692707      18.76028374       53       0.15728100      -0.07562800       0.05473300 
I      12.59812249      10.04135431       6.69219219       53      -0.14257700      -0.63272500      -0.23122400 
I      12.94870774      10.05490049      19.54932731       53      -0.09121700      -0.27607600      -0.26297900 
I      12.56280286      22.44513701       6.38941016       53      -0.20387300       0.14885100      -0.30806600 
I      12.70540038      22.45395594      18.93868879       53       0.07417000       1.31918000       0.19294300 
I       5.84395731       3.34890570       7.27846315       53       0.23533300       0.21531600      -0.48719400 
I       6.56346211       3.71509944      18.87468143       53      -0.39730500      -0.51097200      -0.00978200 
I       5.34212721      16.39770370       6.70563560       53      -0.07851500      -0.76086200      -0.19961500 
I       6.60796884      16.36787158      19.25914959       53      -0.20107700       0.33504300       0.28661900 
I      19.43330930       3.46145360       6.54054426       53      -0.11652800      -0.60716400      -0.44471600 
I      19.17150802       3.85380981      18.27894800       53      -0.04935900      -0.45763300      -0.03850500 
I      19.75659268      16.12119388       5.17442481       53      -0.31671800      -0.33210000       0.32739300 
I      17.77494185      16.31770174      17.82930614       53       0.32665600       0.09294600       0.05267200 
I       2.43004553       6.96516705       7.54443495       53       0.33777700      -0.17445200      -0.21266500 
I       2.90942871       7.15034269      18.63396517       53      -0.00584100      -0.04310800       0.03207300 
I       2.36124708      19.91398055       5.23227717       53      -0.21374700      -0.29346800       0.07315600 
I       2.48807050      18.83555447      18.49482877       53      -0.22950200       0.11644000      -0.02144100 
I      15.41962527       5.88243077       7.34105373       53      -0.12157500       0.07555300      -0.18270500 
I      15.65968802       6.87055932      19.10721132       53       0.44568100      -0.28760300      -0.14117900 
I      15.39625345      19.24343435       6.64835594       53      -0.23164500       0.18761900      -0.50387800 
I      14.74795264      18.94278846      18.56479856       53       1.11186500      -0.18479300       0.02027700 
I       9.17265999      13.59120776       6.38076184       53      -0.31593100      -0.11489100      -0.16351700 
I       9.02217042      13.43588918      17.92324938       53      -0.15655900      -0.36466300       0.02398000 
I       8.22771318      25.15188990       6.55518993       53       0.25567600       0.43487800      -0.05777200 
I       8.21788853      25.74945716      18.34174311       53       0.24794000       0.02120900       0.23613100 
I      21.70275726      11.89044179       6.11150951       53       0.39817000       0.01318900      -0.06485500 
I      21.27483099      13.52973664      18.84187309       53       0.04121500      -0.06992400      -0.07945700 
I      21.47454256      24.66471744       5.01445581       53      -0.35087600       0.48154700       0.29830100 
I      21.05012929      26.52385306      17.54400932       53       0.24497200       0.24797900       0.22588300 
I       9.22101097       7.56274129       6.07513129       53      -0.30076000      -0.09205900      -0.16596900 
I       9.60185338       6.15269180      18.30757786       53      -0.66168200       0.46109400       0.05393900 
I       8.72301514      19.45315215       6.86172443       53      -0.02436300      -0.63420600      -0.59398200 
I       8.75921077      20.01846380      19.25029374       53      -0.36175700       0.15829800       0.22930900 
I      21.76644534       6.48875610       6.34061718       53       0.37657800       0.34401300      -0.10614600 
I      22.31316231       7.81769216      18.66285144       53       0.19005600      -0.46696800      -0.00682800 
I      21.43687227      19.85642552       7.14434334       53       0.83895600       0.24079100      -0.14376600 
I      21.80857348      20.03427383      19.03474921       53       0.30148100      -0.23814200      -0.38972800 
I       2.63617050       0.76960180       6.95548009       53       0.13793300      -0.25473800      -0.23739000 
I       2.80146837      -0.16408962      20.04347589       53      -0.17431400       0.49010400      -0.42898900 
I       2.73819435      11.77160918       6.57614924       53      -0.52745900       0.77113800      -0.47741500 
I       2.19888353      13.52299598      18.28468295       53       0.68634400       0.09109500      -0.03294400 
I      16.04558493       0.29760781       5.66289032       53      -0.05567900       0.15409200       0.36871700 
I      15.79072984       1.01934253      18.58067843       53      -0.23243100      -0.06749900       0.37404200 
I      15.53833515      13.14372399       6.69083528       53      -0.03152900       0.18246100       0.08096700 
I      15.02661555      13.88393667      18.99463548       53       0.08642200       0.04504900       0.07010400 
I       0.22391948       9.67826151       0.39244002       53      -0.00231600      -0.38422400      -0.09437000 
I      -0.86080428       9.41112337      11.66340839       53       0.24717100       0.15760800       0.16513100 
I      -1.72580201      22.35747348      -0.09948163       53       0.61429100       0.27945500      -0.13648500 
I      -0.43179746      22.95606840      12.87523692       53       0.03590700      -0.48812300       0.08291800 
I      12.64585587       9.90733028      -0.96470685       53      -0.25037000      -0.19115800       0.31584200 
I      13.12161231       9.81315457      12.47832009       53      -0.09978200       0.53496400      -0.20775400 
I      12.88742320      22.76454421      -1.28601572       53      -0.17688600       0.20273700       0.28731900 
I      12.20098117      22.93762338      12.05306375       53      -0.09980400      -0.34238000       0.11850300 
I       6.23112333       3.51555749       0.40386602       53       0.23309200      -0.70827300      -0.01647800 
I       6.65835918       4.05191004      11.79066183       53       0.16534000      -0.45285300       0.82072000 
I       7.35912761      15.71330003      -0.24928576       53      -0.46808500       0.50944300       0.44266500 
I       6.16354211      15.99131043      12.41438956       53       0.07490800       1.10797500      -0.22696200 
I      19.23988643       3.68488919       0.36987437       53       0.25839800       0.11122400       0.18902100 
I      19.24936885       3.42837188      12.79349692       53      -0.53567100       0.29284400      -0.37026500 
I      19.51370337      16.06708600       0.28455650       53       0.12717800       0.23288800       0.11504800 
I      18.68027979      16.22443696      12.26523496       53      -0.11374400       0.31347000       0.53339800 
I      11.80490742       3.51428639      11.99931704       53       0.17957500      -0.09429200       0.34012500 
I      11.93794270       3.23545885      24.92788162       53      -0.20780400       0.35121600       0.32192600 
I      11.26697945      16.22187878      13.04717768       53      -0.16530000       0.24306500       0.13147100 
I      12.15484714      16.23941887      25.11743530       53      -0.07073800       0.24002100       0.20407200 
I      25.24366208       4.19146250      13.40807447       53      -0.03105100      -0.52241300      -0.06702500 
I      25.41801634       3.61659558      25.12932425       53      -0.14175200      -0.02066200      -0.19216100 
I      25.32905178      16.53955193      10.97700128       53      -0.49898400      -0.00242500       0.44639400 
I      25.31698224      16.33058742      25.64548575       53      -0.12510500       0.51228300      -0.05990200 
I       6.06436578      10.14531076      13.48671753       53      -0.24802500      -0.48479700       0.13681400 
I       4.99251474       9.42721077      25.55134496       53       0.11632400       0.18181500      -0.00139200 
I       4.52476009      22.64708349      12.75206819       53      -0.14563500       0.30934700      -0.00274700 
I       5.55930004      22.19640798      26.06343173       53       0.05298300       0.04644400      -0.25287200 
I      17.97753785       9.84492128      12.53661644       53      -0.00470800      -0.14691800      -0.30018600 
I      18.22163043      10.05165687      25.47513936       53      -0.04317800      -1.25312300      -0.33721500 
I      17.67242512      23.02028528      13.10073581       53       0.12099900      -0.85137200      -0.57958800 
I      17.75109411      23.11535296      24.73112334       53       0.04171900       0.02037700       0.06425900 
I       9.45066939       7.42751200      12.97542395       53      -0.45743200       0.01135700      -0.05714600 
I       8.56657611       6.89886292      25.17253991       53       0.81315000       0.11250400      -0.07608700 
I       8.86188414      19.65171932      11.81287229       53      -0.60620500       0.14326500       0.32543500 
I       9.11804726      19.94446618      23.97280885       53      -0.50312700      -0.28124000       0.39464700 
I      22.12179576       7.45531174      12.46199723       53      -0.27338500      -0.15411800       0.13264600 
I      21.84926090       6.78194297      25.92967309       53      -0.83312200      -0.05762100       0.14369500 
I      21.41804811      20.78756574      12.51288544       53      -0.15624400      -0.31205300      -0.20176200 
I      21.44129321      19.65380756      24.91548783       53       0.58177400      -0.13561200       0.01008500 
I       3.14297828       0.78609627      12.81449813       53      -0.38921800       0.18710700      -0.01777900 
I       2.84025611      -0.06004337      24.78949252       53      -0.27967300      -0.09008400       0.01938400 
I       2.49164337      12.66401555      12.60073953       53      -0.20618800      -0.02014600       0.06602700 
I       2.87542309      12.84926702      24.58490106       53      -0.44350900       0.26320400      -0.16946100 
I      15.80514604       0.54884812      12.73537917       53      -0.24538000       0.46247300       0.06372600 
I      15.71816795       1.75570995      24.74226599       53       0.34829500      -0.19761500      -0.59184300 
I      14.99057755      13.75784958      11.36037892       53       0.13217400      -0.12347800       0.23630300 
I      15.27814920      13.42736358      25.28215050       53       0.23265400      -0.00917300      -0.03139500 
I       2.93203827       5.87784919       0.27830174       53      -0.21401000       0.33387400      -0.38563800 
I       3.14809863       6.89460561      12.16387560       53      -0.51889800      -0.00368000      -0.08931600 
I       2.92089263      18.81970254       0.77250021       53      -0.13168200       0.23620100      -0.04515100 
I       2.52461035      18.63495592      12.90277726       53       0.14020500       0.18043600      -0.04303700 
I      15.57233579       6.96971869      -0.48031606       53       0.18638500      -0.23542000       0.04269500 
I      15.51946210       6.05631810      12.03232593       53       0.44944400      -0.03532700       0.00250700 
I      15.97632652      19.83647491      -0.33695228       53      -0.70789900      -0.37208700       0.27865600 
I      14.92130518      18.90698792      13.09524331       53       0.70673300       0.05957100      -0.25151700 
I       9.28342594      12.48321296      -1.13308272       53       0.45794200      -0.24961800       0.56362700 
I       8.99209984      12.57787656      13.53649426       53       0.93351100       0.05910300      -0.04026400 
I       8.57035152      25.95418032      -0.50132625       53       0.04113100       0.12552200       0.67138400 
I       8.27174199      25.85296065      11.98264299       53       0.18913600      -0.13522100       0.20831600 
I      22.24851242      12.72250745       1.23471047       53       0.38957200       0.15308000      -0.22506900 
I      21.73875934      12.73294171      12.34454150       53      -0.15440900       0.01637700      -0.05465600 
I      21.12517453      25.84532502      -0.37966110       53       1.03558000       0.18654200       0.42028500 
I      21.02471712      26.15182260      12.70134062       53       0.04650800      -0.09763100       0.05949400 
I      11.25923707      13.07758748       9.42699426       53      -0.13184600       0.09625000      -0.01124600 
I      11.82759379      13.29525619      21.86984207       53       0.21604100       0.24974300      -0.55608600 
I      12.01613877      26.41674877       9.23252177       53      -0.18210000      -0.22101400      -0.18524900 