320
Lattice="25.8978642183 1.08809996354 0.474543947149 -0.444841667841 26.3399063516 -0.0467868524628 0.427243288207 -0.0572762218946 26.1567526194" Properties=species:S:1:pos:R:3:Z:I:1:forces:R:3 energy=-101583.478518 stress="676.197748 -1095.173958 -1403.599075 -1095.173958 -2203.240338 -509.17132 -1403.599075 -509.17132 -1619.788435" pbc="T T T"
Cs       3.63751836      10.33727865       3.50867783       55      -0.10803100      -0.14528000      -0.08723300 
Cs       3.02585814       9.89656470      16.92438637       55      -0.06608500       0.06837400      -0.23832800 
Cs       3.03414505      23.44856701       3.76167269       55       0.10787800       0.03627700      -0.24390000 
Cs       3.06282581      23.72695365      15.92132849       55      -0.07237900      -0.08830600       0.11680700 
Cs      15.59599150      11.07260477       2.60727646       55       0.32094400      -0.10570800       0.15278500 
Cs      15.93618115      10.44329947      17.45368320       55       0.46510700      -0.20321600       0.00183100 
Cs      15.82561324      23.27517966       4.10359567       55       0.01515800       0.07597000      -0.07179400 
Cs      15.23009833      23.57591689      15.51037368       55       0.15282300      -0.33566000       0.03454500 
Cs       9.29932864       2.77405844       2.78089430       55       0.16601500       0.01592100      -0.00685100 
Cs       9.86775600       4.37042776      16.86449847       55       0.47509300      -0.47581900      -0.13507800 
Cs       8.85256172      17.03849304       2.99705350       55       0.06789200      -0.42889600       0.11830700 
Cs       9.93696349      16.71733353      16.70132125       55      -0.11952400       0.09738100      -0.01189200 
Cs      23.12781976       4.51093860       4.41659215       55       0.01032700       0.02513300      -0.16318900 
Cs      23.31829371       3.95633426      17.02574841       55      -0.23784300      -0.07546000       0.32606800 
Cs      22.57400441      18.17628703       3.58962773       55      -0.01252200      -0.11529600      -0.15512800 
Cs      22.97909005      15.70778198      16.70521135       55      -0.06308700       0.77480500      -0.58745900 
Cs       9.78657559       4.34106260       9.67468052       55       0.03612700      -0.08429400       0.11664600 
Cs       9.43938660       3.93208585      23.24623895       55       0.22176900      -0.11907600      -0.26471100 
Cs       9.18361861      16.69641470       9.31655842       55      -0.24932800      -0.38665000      -0.08291200 
Cs       9.63600795      17.07058361      23.35875546       55       0.35766600      -0.15782500      -0.12136200 
Cs      23.15179401       4.24418876      10.11867024       55      -0.18525600       0.01408300       0.29825900 
Cs      22.97584474       3.87050827      22.88443288       55       0.08918300      -0.12887300       0.40486300 
Cs      22.24713210      17.39214523       9.71813372       55      -0.06482900      -0.05078100       0.03759700 
Cs      22.81180339      17.81029130      23.34467148       55       0.22047900      -0.04411200       0.10726700 
Cs       2.65310677       9.34537017       9.18177053       55       0.59319800       0.11696800       0.37243500 
Cs       4.23816625      10.40768943      22.68693623       55      -0.20951000      -0.13210500       0.17458300 
Cs       2.35545137      23.41109569       9.54832880       55       0.25930400      -0.03969500       0.07268500 
Cs       3.06995919      23.26193848      22.47108978       55      -0.00183300      -0.07046900       0.09548700 
Cs      15.57994571      11.12271004       9.56899581       55       0.44970500      -0.10141300       0.20109400 
Cs      16.73939674      10.18455628      23.30327452       55       0.12471900       0.12290000      -0.12923600 
Cs      15.80295702      22.95405061       9.62732401       55      -0.10829400      -0.01782800       0.33772500 
Cs      16.68448444      23.74626405      22.70475293       55      -0.08057300      -0.22137500       0.16964700 
Cs       3.23508603       3.53010945       8.88183853       55       0.21690100      -0.04284500       0.20134000 
Cs       3.02814286       3.38998244      23.48466648       55      -0.11024500       0.34790600      -0.20113300 
Cs       2.92499164      16.40394204       9.82317973       55      -0.16308800       0.11303400       0.00283000 
Cs       3.29348836      17.27887933      23.06476271       55       0.24227400      -0.36637800       0.05127600 
Cs      17.54114606       3.82564565       9.78463510       55      -0.36514200      -0.15086800       0.38601400 
Cs      16.75082031       3.68745202      22.98624780       55       0.05106600      -0.13508100       0.36700300 
Cs      16.28396924      16.71981523      10.71353832       55       0.02630300       0.15391900       0.05554500 
Cs      16.80212987      17.24809461      23.03442680       55      -0.14449700       0.03416600      -0.10361300 
Cs       9.75615540       9.99267494       9.77145688       55       0.00676100       0.20042300      -0.25601400 
Cs       9.69761091      10.42617733      23.47653392       55       0.33368700      -0.10398600       0.00492300 
Cs       8.61685858      23.96857572       9.48018446       55       0.26350700      -0.24225600       0.32210600 
Cs      10.80814878      23.88704601      23.25117698       55      -0.01976800      -0.16550800       0.01444100 
Cs      22.90827411      10.23282464      10.45129292       55      -0.12913400       0.08195900      -0.08475400 
Cs      23.09870744      10.10280621      23.85639532       55      -0.06645300       0.41716400      -0.05575000 
Cs      22.25759101      23.60184584       9.51117531       55      -0.30701200       0.00526800       0.20761900 
Cs      22.18473507      24.36983929      23.29284607       55       0.16323700      -0.05537100      -0.00377600 
Cs       9.39288610      10.63623177       3.31480626       55       0.19191200      -0.05197700      -0.05188200 
Cs      10.51648643      10.66540806      16.92956404       55      -0.02119700       0.12825700      -0.21118500 
Cs       9.58889007      22.87737464       3.75736930       55       0.09468500      -0.10035600       0.19311100 
Cs       9.36532637      23.76295869      16.64511325       55       0.09826000      -0.18257000      -0.05208900 
Cs      21.88705428      11.16731068       3.34338953       55       0.09669200       0.23625000       0.02537100 
Cs      22.04885052       9.81831380      16.54399594       55       0.31688900       0.38061700       0.18269600 
Cs      22.35915004      24.10281122       3.82868178       55      -0.05612600      -0.05358200       0.03987800 
Cs      22.70889384      23.71128967      15.76038419       55       0.03836100      -0.09518200       0.10613600 
Cs       3.34052196       3.42633171       2.85061256       55       0.51648400      -0.07829800       0.25986800 
Cs       3.62058610       3.18245742      17.33203901       55      -0.06741700       0.16369500      -0.27717000 
Cs       2.85536781      17.19909209       3.44871377       55      -0.02687100       0.04343100      -0.06922100 
Cs       2.80927450      16.86903032      16.89477243       55       0.19541700       0.14379800      -0.10206900 
Cs      15.71218386       3.08151882       4.23630091       55       0.18526600       0.12466700      -0.10903400 
Cs      16.37869850       4.61690763      17.70931919       55       0.14300300       0.01448300      -0.36403600 
Cs      15.40011040      16.12153328       2.88931255       55       0.00944100       0.19232500       0.25644300 
Cs      16.37588171      16.79379220      16.87839866       55       0.01286900       0.08655500      -0.04719200 
Pb      -0.20110243      -0.13202389       6.87987282       82       1.16946300       0.32791500      -0.00119600 
Pb       0.47984448      -0.23201307      20.27250475       82      -0.02082700      -0.53928300      -0.45457200 
Pb       0.03518762      13.26716059       6.01624435       82      -0.36152100       0.04054800       0.10531300 
Pb       0.63547606      12.96494388      19.85875751       82      -0.56105000       0.24142000      -0.09490500 
Pb      12.71917278       0.72811455       7.41353701       82       0.27594500      -0.02425500      -0.40200700 
Pb      13.46819397       1.04682282      19.89001441       82       0.09748800      -0.12095500       0.10729500 
Pb      12.82617247      14.01642346       6.95143104       82      -0.35839300       0.03169200      -1.04873200 
Pb      13.47587569      14.20453959      19.78208967       82      -0.21524100       0.17993900       0.15222600 
Pb       7.08691551       6.79173166       6.13710768       82      -0.63045500      -0.01906600       0.27633500 
Pb       6.53314179       7.07786500      19.80965650       82      -0.05035400      -0.26999500      -0.46260200 
Pb       5.88179764      19.68350381       7.01392453       82       0.30192900       0.59060200      -0.31173600 
Pb       6.46071742      20.20317743      20.15497507       82      -0.16728000      -0.31053400      -0.51195800 
Pb      19.44955939       7.41241090       6.74532863       82      -0.24514100       0.22660800      -0.07194500 
Pb      19.63677281       7.17244195      20.56071261       82       0.32186900      -0.12260200      -0.18581300 
Pb      19.04606188      20.12864198       6.92207197       82      -0.02501300       0.55760500      -0.06936300 
Pb      20.05614145      20.26006982      19.74752958       82      -0.45777600      -0.08035000       0.14146200 
Pb       0.38117942       6.75918212       5.73033947       82       0.16473200      -0.20186000       0.74921300 
Pb       0.22185169       6.34902035      19.94135241       82      -0.32613700       0.16474800       0.06833700 
Pb      -0.26229110      19.81094305       6.54925968       82      -0.28442700      -0.40158200      -0.96983200 
Pb      -0.09441956      19.27295923      19.36850287       82      -0.27568900       0.24883200       0.06778500 
Pb      13.21879272       7.33720425       6.67892778       82       0.11505400       0.29990300      -0.43320200 
Pb      12.49079900       7.79795463      20.49320494       82       0.76437600      -0.24643500      -0.38349000 
Pb      12.32652309      20.16820203       7.39369352       82      -0.18542700      -0.37100000      -0.33019300 
Pb      12.72939204      20.60221620      19.91836820       82       1.02535600      -0.54894300      -0.07944000 
Pb       6.62636111       0.25983986       6.23082963       82      -0.67807800      -0.41795000      -0.16124500 
Pb       7.05278495       0.24308124      19.87205657       82      -0.14806800      -0.00430200       0.07196600 
Pb       6.19294707      13.08956125       6.45438115       82       0.61650400       0.67507500       0.10308100 
Pb       6.67737824      13.36625111      19.37839923       82       0.26429000       0.55770500      -0.08473200 
Pb      19.42510789       0.97687711       6.86728152       82       0.39258600      -0.87295900      -0.17486000 
Pb      20.22846463       0.24924894      19.93165914       82      -0.99917400       0.17486500       0.08259300 
Pb      19.35806325      13.93245164       6.50101975       82      -0.13039600      -0.23841300       0.30448800 
Pb      20.55499677      13.79453725      19.98654809       82      -0.08374500       0.14926200       0.54060400 
Pb      -0.06431923      -0.22850579       0.65553177       82      -0.16959900      -0.19401100      -0.58005200 
Pb       0.28456146       0.08524720      13.02677734       82      -0.09255400       0.45592900       0.68404600 
Pb      -0.06805600      13.04461232      -0.02612594       82      -0.02092000       0.76855200      -0.27684900 
Pb      -0.30237004      13.26199815      12.90560939       82      -0.02973500      -0.33412300      -0.16278600 
Pb      13.29494879       1.55656150       0.45406581       82       0.06043100      -1.79912300      -0.41625900 
Pb      13.39374179       0.12725443      13.25660116       82      -0.30330700       0.21813000       0.11258500 
Pb      12.59433202      14.06804578      -0.01969422       82       0.12278600      -0.89166900       0.27007200 
Pb      12.76915620      13.82237012      13.48545523       82       0.04473500       0.27178500      -0.09612700 
Pb       6.44553677       6.82575153       0.10373204       82      -0.00145000       0.00303700       0.06373900 
Pb       6.28737881       7.16083358      13.22823619       82       1.19538900      -0.36029100      -0.10604900 
Pb       6.01685868      20.18432601       0.20979450       82      -0.32971200      -0.10807000       0.04059300 
Pb       6.23651400      20.22384646      12.99867233       82       0.60593600      -0.09750600       0.42306700 
Pb      19.13411572       7.26282518       0.38654799       82       0.02836900      -0.26515200       1.21415900 
Pb      19.15047427       7.18293843      13.38012998       82       0.39044400       0.10509600       0.03436700 
Pb      19.09905605      20.31135705       0.29094952       82      -0.39185000       0.15827400       0.34372600 
Pb      19.33973072      20.37719333      13.69267156       82      -0.40483500      -0.48647100      -1.60288600 
Pb      -0.42792261       6.75422277       0.15633019       82       0.44181800      -0.34732900      -0.19875800 
Pb      -0.07481571       6.93129815      13.37498176       82      -0.02440900      -0.18736700      -0.23975500 
Pb      -0.69340926      19.88328009      -0.23484307       82      -0.08251200      -0.31339000      -0.02237600 
Pb      -0.29169281      19.85609405      12.60655472       82       0.33484200      -0.47964300       0.64327300 
Pb      13.10946769       7.51599672       0.08937593       82      -0.74741600      -0.33404100       0.77887300 
Pb      12.74612020       7.37235329      13.16723843       82      -0.06141400       0.07110000      -0.13043500 
Pb      12.51419446      20.49441533       1.05189488       82       1.15402500       0.51237000       0.10936700 
Pb      12.15239955      20.12506768      13.13039465       82       0.08655700       0.27576400       0.18383700 
Pb       6.15285899       0.10001659      -0.37492642       82       0.88386000      -0.16745000       0.40683300 
Pb       6.83383739       0.73081356      12.74029368       82       0.03053200      -0.23272500       0.17809400 
Pb       6.27637360      13.53441713      -0.15048945       82      -0.77505800      -0.05843200       0.03269100 
Pb       5.98693707      13.20468233      13.06395114       82       1.13849100      -0.60731000       0.14799200 
Pb      19.49584361       0.52560981       0.49705903       82      -0.34323900       0.29306800       0.01097400 
Pb      19.43935333       0.37826007      13.76274217       82       0.43627900      -0.06273400      -0.38713100 
Pb      19.24935155      14.10147874       0.21046671       82       0.34340500      -0.21600700      -0.02554000 
Pb      19.40214297      13.61842144      13.60447759       82      -0.03317500       0.22582700      -0.33847100 
I      13.60003205       4.25004574       7.53273402       53      -0.20115500      -0.92593500      -0.17272700 
I      13.88538453       4.37675489      20.52643177       53      -0.32268900      -0.80654500      -0.85426700 
I      11.99642679      16.92847448       5.36210981       53       0.24563100      -0.13327900       0.69925300 
I      13.07283918      17.31637096      19.25891586       53      -0.02628900      -0.62896300      -0.10614400 
I      25.89567191       4.28635643       7.47144787       53      -0.08187400      -0.05250700      -0.29222400 
I      26.68645562       4.21423567      20.83786552       53      -0.13891800       0.30421400      -0.17991200 
I      24.82974686      17.41450292       6.51852674       53       0.51279700       0.18374500       0.16373000 
I      25.32865397      17.28930777      20.34349229       53       0.12804700       0.02964200      -0.27392100 
I       6.76379520      10.10977916       6.26587002       53       0.26385800      -0.64263500      -0.18969900 
I       6.88683459      10.45303133      18.40891545       53      -0.46626500      -0.16722300       0.02124500 
I       5.98282154      23.15674930       6.93698657       53      -0.14396500      -0.03593500      -0.22953200 
I       6.83761884      23.55709593      20.62884071       53      -0.02269600       0.04017500       0.00914800 
I      20.26596235      10.67867361       6.74572871       53      -0.35256400      -0.17953900       0.16982600 
I      19.79936920      10.39676241      20.15572649       53       0.02511400      -0.01827100       0.22156500 
I      18.64945710      23.25771126       7.42917663       53       0.29272500       0.07510700      -0.52049700 
I      19.54430084      23.51677533      20.11051355       53      -0.05648600       0.06737100       0.01924200 
I       0.35878721       9.80474362       6.08268684       53      -0.05190900       0.29240300      -0.19055500 
I       0.43930454       9.82985515      20.06158008       53       0.14789700      -0.13235800       0.03462500 
I      -0.51570025      22.84438847       6.92957700       53       0.00357100       0.37335900      -0.02479600 
I       0.37592154      22.85992756      19.90808395       53      -0.18197800       0.68163600      -0.10401500 
I      12.96805312      10.41410491       7.09355539       53      -0.33830000       0.28728800       0.12701300 
I      13.08734761      10.84510934      20.45660385       53       0.11287600      -0.19111500       0.20702100 
I      12.02578383      23.28163880       7.54008775       53       0.18526300       0.51658500      -0.04350600 
I      13.10029127      23.58041727      19.88101468       53       0.05105400       0.83608400       0.13147500 
I       6.32189320       3.27448666       5.28819174       53       0.11064700       0.12373300       0.21461100 
I       6.92163128       3.90367214      19.31633323       53       0.02254800       0.20710500       0.31752900 
I       5.39186996      16.45844919       6.73808863       53       0.02187800       0.04236600       0.08078500 
I       6.29351098      16.99379188      19.69680388       53       0.10605800      -0.08606100       0.14757700 
I      20.13386839       3.92348822       7.15914797       53       0.13125600       0.74224400      -0.17987900 
I      19.85633166       3.69227936      20.76158658       53      -0.28046200       0.55651200      -0.49680800 
I      18.46610028      16.95182526       6.66711226       53       0.05124100      -0.16810700      -0.03387700 
I      20.91336460      17.24758892      19.69709937       53       0.04238800      -0.56140900      -0.12532100 
I       3.66045890       6.64514754       6.45051135       53      -0.14811000      -0.03534900       0.06881100 
I       3.24738794       6.81843842      19.40978102       53       0.84989800      -0.03840100      -0.03289700 
I       2.77512667      20.43057945       5.87724345       53       0.37038200      -0.32428200       0.25835800 
I       3.04839353      19.87644525      19.34717584       53       0.56456600       0.06472500       0.00233100 
I      16.57384241       6.95294707       7.96626179       53      -0.07492300       0.42854000      -0.22441500 
I      16.53174886       7.33899547      20.32900518       53       0.04227100       0.19298800       0.23963200 
I      15.42047988      19.97015604       7.00707343       53       0.66720700      -0.02506200       0.31708300 
I      16.55595768      19.50496824      19.69369058       53       0.35645300       0.20659000       0.00275300 
I       9.56319873      13.55327464       6.00368452       53      -0.26920400       0.05344800       0.32989300 
I       9.89244612      13.47170939      19.96013580       53       0.14224400       0.16088600      -0.38388800 
I       9.17996002      26.56938999       6.29524533       53       1.18417600       0.17010400       0.30768400 
I       9.74530454      26.87729513      20.50329119       53       0.35169100       0.14045800      -0.07687100 
I      22.80136885      14.13467307       5.70324481       53      -0.16319300      -0.06468800       0.01767200 
I      23.44588222      13.26963011      19.05676652       53      -0.17240900      -0.54826600       0.48398000 
I      22.45271359      27.27934667       6.53788891       53      -0.99679000      -0.06247300      -0.18683900 
I      22.62509566      27.31385395      20.28999346       53       1.06998700       0.10610900      -0.09380800 
I      10.04452472       6.96121874       5.42814206       53       0.37261000      -0.12219700       0.12716100 
I       9.60257905       8.07309597      19.67311801       53       0.10213100      -0.11177700       0.00652900 
I       9.05054374      20.28003922       7.79790182       53      -0.41272600      -0.13687000      -0.22160200 
I       9.82264257      20.26321359      19.95444229       53      -0.86923200      -0.10217700       0.16209500 
I      23.26143077       8.07669160       6.39713133       53      -0.52437500      -0.28629300      -0.00216500 
I      23.04945513       6.67801795      20.35344552       53      -0.27138200       0.13250100      -0.20413800 
I      22.40617856      20.82124499       6.31499743       53      -0.27167800       0.05025800       0.45567600 
I      22.89107784      21.42385368      20.77812891       53       0.14484900      -0.19423100      -0.17637100 
I       3.33523159      -0.18511148       6.75657551       53      -0.12280400       0.16655400      -0.04609200 
I       3.74104325       0.27094661      19.66840541       53      -0.08834800      -0.30062200       0.02190000 
I       3.43934442      12.09841433       7.19679495       53      -0.48306300       0.75454800      -0.23715600 
I       3.59922353      13.51118110      20.38180743       53       0.16719000       0.07307400       0.07776400 
I      16.47281749       0.62445866       7.37983191       53      -0.76088300       0.01894300       0.04086900 
I      16.89986379       0.10415345      20.17224851       53      -0.58967600       0.43031800      -0.17320500 
I      15.93684016      13.30686483       6.06052817       53      -0.11649100       0.10272400       0.61476800 
I      16.53831665      14.08272379      20.60193695       53      -0.09893700      -0.06378700      -0.15124900 
I      -0.30956028      10.09971424       0.61343620       53       0.13638600      -0.66292000       0.13085900 
I       0.82753001       9.93327648      13.26653102       53      -0.15451200       0.15008500       0.02379200 
I       0.26015972      22.88040874      -0.04872226       53       0.06727300       1.26571000      -0.27382500 
I       0.03802168      22.85215751      13.04839783       53       0.14606700       0.38824000      -0.08527500 
I      13.20645730      10.33597383      -0.69059754       53      -0.24012000       0.96262500      -0.20773400 
I      13.65630401      10.79793155      13.05665631       53       0.00480200      -0.76524300       0.08970700 
I      12.44368010      23.81887323       1.29607583       53       0.12949600      -0.90581200      -0.47126800 
I      12.71047259      23.13345640      11.96855838       53       0.14628500       0.24583200       0.22367600 
I       6.78454750       3.64204615      -0.09156214       53      -0.19455300       0.06171100       0.35946700 
I       7.17885133       3.91040342      12.58890964       53       0.02315500       0.01621200       0.09693700 
I       5.44681375      17.07378931       0.50447064       53       0.48485700      -0.48606500      -0.12022900 
I       8.11278295      17.66892445      12.97583638       53      -0.36674500      -0.01066900      -0.00170300 
I      18.67964678       3.95242893       0.61748369       53       0.13437200      -0.00671800       0.01592400 
I      19.61150896       3.40150551      12.93959982       53       0.19266900       0.03976500       0.22654400 
I      19.79382192      17.12115699       1.09259932       53      -0.17463400       0.30487100      -0.14306400 
I      19.97609426      16.80553968      13.34313388       53       0.01740700      -0.10845000       0.10005700 
I      12.62522032       3.62606433      13.32140474       53      -0.02326000       0.30777900       0.23693800 
I      13.86861778       4.26478468      27.18435035       53       0.06951700       0.73790400       0.57220600 
I      13.32099248      17.06845730      14.03856994       53      -0.22335200      -0.23414700       0.03873000 
I      12.46577987      16.72132314      27.08373567       53      -0.06352600       0.77120000       0.01455100 
I      25.13670460       4.20500644      13.97381611       53       0.19556700      -0.08963100      -0.49156600 
I      25.10959775       4.30857805      26.65345422       53       0.23784300       0.01187400      -0.01056700 
I      24.81425346      17.27665554      12.74058510       53       0.07337800      -0.10473900       0.34983000 
I      25.32752887      17.69658471      26.65616947       53       0.13158200       0.01714000      -0.00255900 
I       5.07393037       9.93382176      13.02791869       53       0.02839000       1.12941700       0.01161100 
I       6.55797611      10.07211389      26.17836803       53      -0.03226600       0.45240400       0.06734100 
I       4.94522083      24.10546961      12.50340046       53       0.19740400      -0.15879800       0.15730400 
I       5.32542544      23.32724674      25.61421664       53       0.08618600       0.02993800       0.06055400 
I      19.23852912      10.34145612      13.12010532       53      -0.21690800      -0.07132400       0.01146700 
I      19.98379831      10.53613902      26.39740495       53      -0.21589700       0.12308700      -0.13949800 
I      19.43995040      23.28726021      12.75797228       53      -0.48598400       0.41280800       0.05364900 
I      18.96887211      23.73803908      25.92715931       53       0.16067700      -0.65213900      -0.07337300 
I       9.72004476       8.46375644      13.15054277       53       0.40065800      -0.17982400       0.16422000 
I      10.29848017       7.28100540      27.05128665       53      -0.18702100      -0.03655600      -0.22136400 
I       9.19184966      21.65840126      12.88369341       53      -0.32728100       0.03964200       0.04680500 
I      10.14784247      20.54021722      26.30076872       53      -1.21082300      -0.11050200      -0.19155600 
I      22.51968004       7.55886402      13.48220789       53       0.67751900       0.03885400       0.08518400 
I      23.13257399       7.90800466      27.90754718       53      -0.52260800      -0.24568300      -0.05729300 
I      22.58291783      21.11260271      12.69407953       53      -0.40591000      -0.15621200       0.04301400 
I      22.29922050      21.38688906      25.68839060       53       0.84410100      -0.12230900       0.09646600 
I       3.05730797       1.44244975      12.52688223       53       0.22618300      -0.03927700       0.11586300 
I       3.67782576       1.15415354      26.19733521       53      -0.67292500      -0.55331800       0.29912100 
I       3.23789267      13.95445393      12.73056182       53      -1.10284000       0.29676100      -0.20157100 
I       3.49062454      13.64482155      25.05433106       53      -0.00344600      -0.12809400       0.06712300 
I      16.29246025      -0.12186352      12.22218991       53       0.34326500       0.04395900       0.02360700 
I      16.80849458       0.02982819      25.99458372       53      -0.91264700       0.52960100       0.07715100 
I      16.33869369      14.08199166      13.85820254       53       0.10308600       0.04541600      -0.14159300 
I      16.43152207      13.38836510      25.87293445       53       0.01646000       0.38762800      -0.17821800 
I       3.22855988       6.55599196      -0.20173809       53       0.13573900      -0.01656400      -0.12790200 
I       3.49237412       6.50289321      13.58568202       53      -0.98594700      -0.64413400       0.28591700 
I       2.74258323      19.82761840       0.42122180       53       0.20843000       0.05559300      -0.10794400 
I       2.89243702      19.45496045      13.04628879       53       0.13015300      -0.24694700       0.23806200 
I      16.17785094       7.07039551      -0.30360480       53       0.31375700       0.12825600      -0.34151600 
I      16.35889157       6.04778557      13.39435206       53      -0.61508500       0.05850700      -0.01155300 
I      15.71332013      19.18296288       0.31545789       53       0.17725400       0.16336500       0.04332800 
I      15.85985347      20.27988386      13.39915808       53       0.29778900      -0.00433300      -0.04915500 
I       9.37200078      13.28059470       0.04692292       53       0.33554300       0.03177500       0.21608900 
I       9.71085107      13.51482140      13.68696688       53       0.05852000      -0.00866300       0.19473800 
I       9.17206101      26.65923099      -0.61337933       53      -0.52049500       0.02267800       0.29802100 
I       9.76378025      26.21288141      13.05028450       53      -1.08871500      -0.18761500       0.53245300 
I      22.59704345      14.04070031       0.35590847       53      -0.11388300      -0.13378500       0.35232500 
I      22.62979100      12.59799061      13.90276764       53       0.55236600       0.46153900      -0.15045900 
I      22.23584054      26.39752477       0.73699752       53       0.52505900       0.07968600       0.07060600 
I      21.99464292      26.28251437      12.81654621       53       0.11775800       0.23964300       0.18775800 
I      12.64480792      13.60293617      10.08093491       53      -0.06468600       0.27046200       0.20440100 
I      12.53778488      14.68446835      23.21694995       53       0.22448200      -0.04087600      -0.50944300 