320
Lattice="25.7467801879 0.578943561641 -0.116688425624 -0.907754857463 25.7122998229 -0.0218893661608 -0.159674173389 -0.041059643137 25.5843360546" Properties=species:S:1:pos:R:3:Z:I:1:forces:R:3 energy=-101581.91846 stress="-226.917513 619.232919 -281.71935 619.232919 -1060.072806 -172.866373 -281.71935 -172.866373 -2246.550531" pbc="T T T"
Cs       2.85872130       8.59359060       3.47606925       55      -0.07850000       0.34877600       0.01020200 
Cs       3.20349403      10.59622073      16.41523517       55       0.00661300      -0.17184600      -0.09075000 
Cs       1.68734945      23.23583100       2.64869610       55       0.28319200      -0.29897000       0.21507600 
Cs       2.33880072      22.48212960      15.98271047       55       0.00930200      -0.11028500       0.36225800 
Cs      15.70983401       9.98764448       3.52086540       55      -0.14826700       0.01950200      -0.09137000 
Cs      16.03555317       9.42425638      15.93661662       55       0.16542900      -0.01482000       0.10971100 
Cs      14.76694645      22.30014912       2.88120814       55       0.24408500       0.03750200       0.35636600 
Cs      15.12613254      23.06877558      16.15387045       55       0.27069700      -0.06214800      -0.48228800 
Cs       9.27199637       3.31588238       2.85107473       55       0.44390500       0.08902800       0.25913400 
Cs       8.95446740       2.88418857      15.43738546       55       0.23313500       0.28659000       0.19252700 
Cs       9.25922782      15.96450474       3.43421363       55       0.03241500      -0.13101700      -0.14896300 
Cs       8.77275424      17.34301912      16.14702086       55      -0.35881700       0.07411800       0.16429600 
Cs      22.70572531       3.31972461       2.84014750       55      -0.02391900       0.02284800      -0.12956700 
Cs      21.81155094       4.28945396      15.98420866       55       0.09188400      -0.16366400      -0.00124000 
Cs      23.04233678      16.28238382       3.12789018       55      -0.35672700       0.27113100       0.00836400 
Cs      21.35865202      16.03301861      15.05838872       55      -0.04378400       0.11586400       0.10074400 
Cs       9.32758010       3.18346992       9.30536157       55       0.09970100       0.03112100       0.10235500 
Cs       9.57448157       3.49875360      21.69755566       55      -0.19575100      -0.04925400       0.18842600 
Cs       8.68686054      16.36124040       9.73464750       55       0.25775100      -0.25714200      -0.28905500 
Cs       9.13664936      16.76783899      22.35499772       55       0.38164100      -0.06930900       0.28594100 
Cs      22.47106173       3.87617534      10.10099938       55      -0.06364100      -0.39829700       0.01621800 
Cs      22.29819209       3.87794784      22.20732205       55      -0.03940700      -0.19464800       0.10025900 
Cs      22.32839234      16.07872444       8.78537217       55      -0.15458900       0.08303600      -0.15243500 
Cs      22.43869699      16.48813489      21.91588975       55       0.11549500       0.00600600       0.12822000 
Cs       3.07642399       9.72614012      10.15291543       55       0.07650500       0.99511900      -0.74556100 
Cs       2.36999344       8.99667712      22.50979927       55      -0.02314600       0.26342500       0.27122800 
Cs       1.64664989      23.63610865       9.58703168       55      -0.25175000      -0.25694300       0.05528900 
Cs       1.27146346      22.52518916      22.68136023       55       0.20502400      -0.11090800      -0.30832800 
Cs      15.26711422       9.47970745       9.54107149       55      -0.02108600       0.17791400      -0.01501100 
Cs      15.69549047      10.58094755      22.86792606       55       0.01898200      -0.03984000       0.03293600 
Cs      15.27009465      22.26399201       9.97625144       55      -0.16542700       0.06844200      -0.20191900 
Cs      15.94615338      21.76292652      22.39907768       55       0.00009200       0.06613800      -0.26267100 
Cs       3.86161635       3.70839876      10.33334785       55      -0.25781100       0.06060700      -0.10711700 
Cs       2.92726708       3.45181988      21.92729177       55       0.10153900      -0.11120000       0.17478300 
Cs       2.46933895      16.07507871       9.47431516       55       0.19764300      -0.03505400      -0.04972700 
Cs       2.93810553      16.05279933      21.93189108       55       0.03584300      -0.09647100       0.07337200 
Cs      15.96371674       2.81239703      10.03815211       55       0.43706700       0.34112100      -0.23538500 
Cs      15.19181261       4.25534764      22.18789343       55       0.30152600      -0.21676700       0.04780200 
Cs      15.43787322      16.57454726       9.36133830       55      -0.02308900      -0.13098900       0.13384600 
Cs      15.11224484      16.31010537      22.43646167       55       0.07449300       0.03918200       0.03414400 
Cs       8.92441977      10.17623017       9.35258056       55       0.03577900       0.08994800      -0.06859100 
Cs       9.96132837       9.96809118      21.99347157       55      -0.31871200       0.00087300       0.11099700 
Cs       9.10275351      22.54458785       9.09577924       55       0.12892400      -0.25334400       0.31488600 
Cs       8.31621956      22.77901204      22.68873748       55       0.06153100       0.11770100       0.07328500 
Cs      22.01059704      10.06497693       9.54360904       55      -0.06360500      -0.06181600       0.02518500 
Cs      21.39962289      10.06629957      22.17311698       55       0.12411700      -0.07478100       0.04953500 
Cs      21.36093721      23.31428560       9.45772632       55       0.04102600      -0.21331000      -0.00551900 
Cs      21.42465626      22.14331373      22.20405734       55      -0.04690300       0.26491500       0.24794100 
Cs       9.19731019       9.49630726       2.68025289       55       0.00342500       0.10840600       0.03527800 
Cs      10.46234798       9.58154761      16.60865258       55      -0.24758200       0.10917000      -0.29404100 
Cs       8.79301075      23.67238346       2.68987045       55       0.36885400      -0.04902600       0.99381300 
Cs       8.85672282      23.46566685      15.71753344       55       0.09022700      -0.28335800      -0.04760800 
Cs      21.05419283       9.04551300       3.87976422       55       0.10184500       0.39652200      -0.47204900 
Cs      22.75990860      10.36347727      16.16312393       55      -0.43137700      -0.52140100      -0.15100500 
Cs      21.14427687      22.43912390       2.31116895       55       0.01313900       0.10369100      -0.05534400 
Cs      21.76531944      23.36155645      15.95909848       55      -0.00726400      -0.21292200      -0.23990500 
Cs       3.29843871       3.86247117       3.24355421       55       0.26729800      -0.64441800      -0.01895800 
Cs       3.15446264       3.03129768      16.61112530       55      -0.02649400       0.03013900      -0.01092000 
Cs       3.24241111      16.04090157       3.25657212       55       0.07490600      -0.00342300       0.03218400 
Cs       1.66084980      16.10552333      16.26356864       55      -0.10905900       0.53910500      -0.65078700 
Cs      16.37294066       3.30737201       2.92641425       55      -0.21469800      -0.07548100       0.09443300 
Cs      15.13564736       3.93348668      15.28834028       55       0.71450500      -0.60422300       0.07951800 
Cs      15.51121881      16.64046173       3.78198972       55       0.03188900      -0.05140200      -0.05679800 
Cs      14.74013160      16.10682901      15.48132778       55       0.18332200       0.00300400       0.22038500 
Pb      -0.36388415      -0.07482782       6.08486077       82      -0.12758100      -0.50969500       0.19763800 
Pb      -0.31400991       0.13923612      18.95195785       82      -0.44317700      -0.02927600       0.24214900 
Pb      -0.46992564      12.42233250       6.11824691       82       0.37782100      -0.31327300      -0.20149900 
Pb      -0.75648233      13.12693768      18.82999384       82       0.33157800       0.15871800       0.31759900 
Pb      13.01261923       0.55962965       6.25761270       82      -0.29239800      -0.52538200      -0.02555300 
Pb      12.60590493       0.09304751      19.26364767       82       1.63727000      -0.33214400       0.01951200 
Pb      12.32401039      13.04152875       6.21840735       82       0.15681100      -0.17714300      -0.21675000 
Pb      12.70213336      12.61108277      18.74022001       82      -0.11222000       1.07899100      -0.12332300 
Pb       5.75950569       6.72890886       6.62987855       82       0.22582100      -0.04763800       0.31317200 
Pb       6.31907349       7.25530198      18.83543700       82      -0.03184600      -0.73068500       0.02427600 
Pb       5.57425352      19.47545833       6.83758864       82      -0.04651600      -0.09825300      -0.40999900 
Pb       6.08848555      19.56651989      19.40857831       82      -0.75918400       0.24483600      -0.03531300 
Pb      18.61768245       6.47164671       6.74473464       82      -0.57851600       0.11092100      -0.13438100 
Pb      18.98528116       6.74460596      19.34862768       82       0.37231800       0.14477100      -0.21699900 
Pb      18.51701630      19.51140098       6.44557298       82       0.51138300      -0.49025900       0.04603700 
Pb      18.96337583      19.60171943      18.86145587       82      -0.41444000      -0.40438200      -0.25092900 
Pb      -0.71314847       6.24417386       6.58561106       82       0.53658500       0.56380500      -0.12251900 
Pb       0.02299555       6.83612336      19.21919365       82      -0.71572800      -0.20209000      -0.07017500 
Pb      -0.41878662      19.08414888       6.10025364       82      -0.30088400       0.28439200       0.17129100 
Pb      -0.69892861      19.49100980      19.03371307       82       0.35476200       0.36156600      -0.26841900 
Pb      12.03035774       6.61267328       6.35292645       82       0.26265500       0.42233900      -0.21585200 
Pb      12.89891123       6.40906876      18.74085340       82      -0.41510000      -0.00724100       0.94651100 
Pb      11.66402082      19.32970178       5.98208698       82       0.17296700       0.64951400      -0.11285200 
Pb      12.11585045      19.61166016      18.62198052       82       0.58919200      -0.26800100       0.05417700 
Pb       6.02701878       0.26758391       6.65874319       82       0.16083800      -0.44271800      -0.31259100 
Pb       6.33719444       0.01011629      19.28452062       82      -0.12315000       0.14884500       1.19206700 
Pb       5.94666600      12.89282769       6.28130349       82      -0.13633400       0.42174100       0.29377800 
Pb       6.21690417      13.51741824      18.97667304       82       0.04259900      -0.17613200       0.08159900 
Pb      19.45947096       0.06747550       5.88297787       82       0.17064200      -0.41642600       0.14738400 
Pb      18.77685190       0.47209513      19.14233200       82       0.06635200       0.05522800      -0.35015500 
Pb      18.73740915      13.20132861       6.25775933       82       0.43192300       0.11472700       0.34649900 
Pb      18.78435583      13.09267177      18.86288524       82      -0.77901200       0.49778400      -0.18006300 
Pb       0.16215686      -0.07700030      -0.43689758       82      -0.91168200       0.09586700       0.10602300 
Pb       0.06944949       0.68293027      12.96155801       82      -0.74838100      -0.26447900      -0.16643500 
Pb      -0.72963656      12.69999779       0.31586121       82       1.20339800      -0.05145500      -0.13521000 
Pb      -0.45579855      12.65406752      12.44075368       82      -0.59537400       0.18221200      -0.27362200 
Pb      13.70741335      -0.18945648      -0.38682485       82      -0.84828500       1.55030700       0.47669400 
Pb      12.76674315       0.50057075      12.58361758       82       0.07930200      -0.57169800       0.89707100 
Pb      12.33048095      13.08860710      -0.53789389       82       0.17378100       0.15800800       0.05485300 
Pb      11.96615292      13.28143102      12.63732009       82       0.08293500       0.21602400       0.02207800 
Pb       5.92449934       6.66818220      -0.28450091       82       0.43541500      -0.74998100      -0.08124600 
Pb       6.61496745       7.07957860      13.05204004       82      -0.62328100      -0.61577900      -0.38677700 
Pb       6.57269988      19.45047283      -0.07029434       82      -0.07796200      -1.27570100       0.52004000 
Pb       5.68063016      19.87355254      12.79324579       82       0.08853100      -0.61710000       0.30690400 
Pb      18.47956748       6.68546029       0.06265675       82       0.41002600       0.17584600       0.46853600 
Pb      19.23071437       6.67012726      12.68701279       82       0.34307800      -0.41156000       0.50871000 
Pb      18.86010630      18.98655692      -0.27678353       82       0.07498700       0.22666500       0.19927800 
Pb      18.45129134      19.71926667      12.41182221       82       0.50664200      -0.10671900      -0.00959400 
Pb      -0.23438030       6.35212250       0.49675645       82      -0.73064400       0.25128700      -0.46056700 
Pb      -0.02769262       6.61786708      12.79747205       82       0.03077600      -0.02051500       0.04760700 
Pb       0.15796153      19.12779295       0.23651188       82      -0.53066300      -0.19983300      -0.34746000 
Pb      -0.38986113      19.32297488      12.35343561       82      -0.04707800       0.22814700       0.15165900 
Pb      11.98441151       6.61675092      -0.14837589       82       0.87198000      -0.11732900       0.63093700 
Pb      12.72826893       6.98796544      12.38635793       82      -0.21982700      -0.63223300      -0.32326200 
Pb      12.82570728      19.60121371      -0.38072036       82      -0.93405700      -0.52324200      -0.22193500 
Pb      12.13405418      19.17979080      12.33565679       82      -0.04764500       0.29309100       0.72088300 
Pb       6.55417496       0.40320821      -0.03398562       82       0.07145700      -0.14906100       0.11720200 
Pb       6.38122254       0.07503230      12.92555551       82      -0.51939400       0.28232400      -0.17248300 
Pb       6.18819812      12.76166206      -0.22363760       82       0.10817200       0.47094300       0.07715600 
Pb       6.14002755      13.42683945      13.53905624       82       0.10600400       0.35205100      -0.91684300 
Pb      19.03512149       0.66036961      -0.61020012       82       0.57772200      -0.14395500       0.36986200 
Pb      19.01285807       0.37223892      12.59597517       82       0.42049400      -0.29604100       0.10095200 
Pb      19.03158448      13.07347556      -0.08455011       82      -0.53185800      -0.29399800       0.38267200 
Pb      18.16060715      12.72098744      12.34946869       82       0.60545800       0.64313300      -0.17544200 
I      12.60923347       3.71424690       5.55537251       53      -0.01786500      -0.83330000      -0.11402300 
I      12.61501877       3.41391522      19.29759538       53      -0.01255400       0.19823600      -0.20030000 
I      12.13795327      16.30924854       6.22194236       53       0.14315700      -0.02874800       0.04465600 
I      11.77789340      16.41713235      18.21894188       53       0.20464700       0.35836400       0.13198400 
I      25.39433496       3.96903932       6.95914769       53      -0.18466600      -0.74433100      -0.09456000 
I      25.73558763       4.04138245      19.33191217       53       0.00380600       0.19957700      -0.04672800 
I      25.60429632      16.45398668       5.72666615       53       0.13420700       0.15797600       0.29629200 
I      24.88695651      17.07890439      18.88200265       53      -0.21796800      -1.21958700       0.05014300 
I       6.12505660       9.88104142       6.52592576       53       0.04678900      -0.26411800       0.00798800 
I       6.96286224      10.30097812      18.64691515       53      -0.04348100      -0.17097500      -0.17626400 
I       5.68658303      22.79571659       6.18287465       53      -0.30943600      -0.15976500       0.06739000 
I       5.43671808      22.70950470      20.04769494       53      -0.16947600       0.23539400      -0.03414700 
I      17.86816940       9.90510925       6.75313728       53       0.31482100      -0.44388500       0.15338800 
I      18.09234165      10.10841354      19.81553001       53       0.27472600       0.07300800      -0.12053900 
I      18.08014565      22.46911567       6.11793171       53      -0.06396700       0.47571900       0.12448400 
I      18.34989206      22.67393511      19.40991292       53       0.04509600      -0.00830900      -0.02107300 
I      -0.58031109       9.41836635       5.21839597       53      -0.01678000      -0.00453600       0.10455200 
I       0.24162190      10.17366270      19.07961341       53      -0.07486300      -0.10449800      -0.03092700 
I      -0.65346516      22.42718225       6.66252957       53      -0.04827800       0.71134000      -0.31166500 
I      -0.82640661      22.74394716      18.84232450       53       0.01994900       0.05486900      -0.09007500 
I      12.31681767       9.70466370       6.61200897       53       0.32263800       0.76440000       0.05590700 
I      12.98759284       9.88369568      19.83826123       53       0.14667200      -0.54175300      -0.07885900 
I      12.83385657      22.64450191       6.78196401       53      -0.40245900      -0.05017900      -0.18425500 
I      13.17335570      22.79625721      19.01654869       53      -0.52383800       0.09206000       0.58386300 
I       6.13321786       3.46884461       7.35830020       53      -0.00554900      -0.00997200      -0.30607200 
I       6.69479756       3.88274764      19.21810641       53      -0.32379000      -0.34717100      -0.13029100 
I       5.60566469      16.24266677       7.10143704       53      -0.20991500       0.92486900      -0.62904900 
I       6.66597381      16.54703419      19.79529244       53      -0.30012100       0.00581400      -0.20034200 
I      19.23846168       3.05994088       6.52776608       53       0.03885300       0.63743600      -0.11496200 
I      18.70148246       3.82017467      18.57109685       53       0.22743400      -0.15685900       0.09967400 
I      19.86018352      15.98859651       5.38396316       53      -0.31779200       0.08775400       0.09097600 
I      18.04096024      16.33133441      18.05666732       53       0.49784100      -0.17810000       0.10388300 
I       2.65017933       6.94797309       7.59309046       53       0.33640900      -0.18072600      -0.32103400 
I       3.06961330       7.30325311      19.04905208       53       0.38878800      -0.01558900      -0.13546300 
I       2.48632677      19.89259115       5.51600058       53       0.16577800      -0.18196800      -0.05856600 
I       2.17597755      19.03491401      18.63639489       53       1.28765800       0.11859600       0.06436300 
I      15.56382710       6.29277932       7.63674351       53       0.28186200      -0.18921200      -0.20889800 
I      15.99630791       6.91497296      19.62975417       53      -0.52660500      -0.01432000      -0.15668900 
I      15.45695872      19.50630892       7.14804259       53      -0.33547900      -0.17249800      -0.44512500 
I      15.29257352      18.87229931      19.05387682       53      -0.13923000       0.27045300      -0.21775800 
I       9.11816235      13.41309738       6.66653040       53      -0.24822100      -0.03909600      -0.32570900 
I       9.13671121      13.72888178      18.35189896       53       0.10094600      -0.26966500      -0.05460200 
I       8.71034585      25.01371235       6.61462333       53       0.02325600       0.87848900      -0.26124600 
I       8.89134982      25.70894036      19.05942073       53      -1.44660200      -0.10551200      -0.20277600 
I      22.04345154      12.34908167       6.42936518       53      -0.26238600       0.11898600      -0.04228300 
I      21.72024899      13.49739413      19.29635254       53       0.40880700      -0.10571300      -0.07100300 
I      21.66422338      24.76849459       5.12099253       53      -0.42072400       0.44551400       0.29485500 
I      21.37302649      26.41027386      18.02921010       53       0.37372100       0.22948800       0.28591100 
I       9.18924768       7.48781104       5.84975431       53      -0.34750100      -0.35603900      -0.06321100 
I       9.52861914       6.54687651      18.92940418       53       0.33343700       0.26414200      -0.04309000 
I       8.74556933      19.05062209       7.18655870       53       0.08772500       0.23526500      -0.18992300 
I       8.89986218      20.39929531      19.78571678       53       0.44151900      -0.09827600      -0.06297500 
I      22.03807421       6.69296920       6.20029338       53      -0.29432800      -0.39821900       0.38376500 
I      22.64900647       7.82187299      18.92063746       53      -0.49763500      -0.13574800       0.39001400 
I      21.63369198      19.83743134       6.99134485       53       0.36554200       0.04570900      -0.11347800 
I      22.10070403      19.78394927      19.47399704       53      -1.08087900      -0.01270800      -0.11545600 
I       2.46304893       0.90428069       6.75734359       53       0.84744300      -0.19683500      -0.01544100 
I       3.24120219      -0.00448161      19.35914794       53      -0.01454600       0.12461400       0.02303400 
I       2.82086052      12.18747940       6.71829982       53      -0.30608900       0.08068700       0.14852300 
I       2.53672169      13.67386860      18.54365360       53      -0.22707500      -0.39933700       0.51088900 
I      15.92373237       0.32857390       6.02526823       53       0.09830400       0.23262300       0.31935800 
I      15.81852277       1.12055002      19.06757401       53      -0.01906600      -0.07020000       0.17689600 
I      15.33470543      13.35205951       7.01680714       53       0.11311900       0.05371600      -0.02813200 
I      15.27787587      13.80657831      19.68933973       53       0.27005100      -0.33070600      -0.28067400 
I       0.40389746       9.74566948       0.43146040       53      -0.04944700      -0.30726500      -0.11560000 
I      -0.33558109       9.47242795      11.76698712       53       0.03588200       0.01684000       0.42419000 
I      -1.32974433      22.24597580      -0.33290788       53       0.27579300       0.24664500       0.09358700 
I       0.00710195      22.35974665      13.27695939       53      -0.23581700       0.11407900      -0.42813600 
I      12.53990568       9.95263347      -0.66875131       53       0.08844700       0.23815700       0.00138000 
I      13.31600714       9.77454509      13.14189566       53      -0.06542200      -0.29660700      -0.61628600 
I      13.08019847      22.81859344      -0.97734698       53       0.17785500      -0.98975900      -0.34666900 
I      12.07885448      22.81385848      12.44111576       53      -0.02304900      -0.05885700      -0.16241400 
I       6.61534250       3.34358697       0.60255854       53      -0.31229200      -0.00698600      -0.33536700 
I       6.80985313       3.71021315      12.54535483       53      -0.08786300      -0.10075500       0.02458300 
I       7.15262295      15.90175622      -0.15592371       53      -0.38504900      -0.10745500       0.04102400 
I       6.73167084      16.60493503      12.62719881       53      -0.57006400      -0.64560800       0.48661500 
I      19.41289833       3.70287780       0.42999413       53       0.07166700      -0.01103200       0.10432500 
I      19.12933803       3.57772688      13.01655223       53       0.08110700      -0.29305800       0.22737400 
I      19.41834150      16.07585374       0.14643183       53       0.14328100       0.21411100       0.32610100 
I      18.70809067      16.32624634      12.60033309       53      -0.14982700      -0.14238600       0.34972300 
I      11.81978194       3.45293605      12.43219443       53       0.09223200       0.50266200       0.43598500 
I      12.35092199       3.58015171      25.61115389       53      -0.17245000      -0.17618100       0.24307900 
I      11.10747333      16.22753223      13.81051431       53       0.69163300      -0.13617800      -0.74707000 
I      12.22329038      16.49548321      25.41203198       53       0.08699900      -0.10702700       0.03921400 
I      25.19394826       4.12871549      13.91224275       53       0.10701800      -0.08499300      -0.30919400 
I      25.80878161       3.70436601      25.54946967       53      -0.27185000      -0.09912400      -0.14671600 
I      25.04560130      16.69538813      11.23379528       53      -0.11285900      -0.28550200       0.38004800 
I      25.55407896      16.63950716      26.16729242       53       0.02543300      -0.14307700      -0.09610500 
I       6.09397161       9.99684011      13.54577517       53      -0.24162700       0.50550300       0.15739700 
I       5.25183498       9.39860957      25.76905059       53      -0.11788000       0.89056200       0.12657100 
I       4.64752888      22.82158783      12.95430843       53       0.05236900       0.06734900       0.07466900 
I       6.48814778      22.17265615      26.20732268       53      -0.92789400       0.85312500      -0.39063800 
I      18.18361766       9.39347761      12.71931569       53      -0.37086500       1.38001700      -0.26934500 
I      18.30247956       9.84663687      25.90450033       53       0.18982600       0.25195700      -0.26508400 
I      17.45868215      22.92839936      12.95350647       53       0.08806800       0.20599400      -0.19832400 
I      18.20439884      23.32349020      25.27115902       53      -0.26691600      -0.68523700      -0.06840100 
I       9.53634550       7.62495547      13.08718771       53       0.74218200       0.13583400       0.21061100 
I       8.89991604       6.97359098      25.33825350       53      -0.22403700       0.08516700      -0.09203800 
I       8.77288391      19.50630493      12.06052906       53       0.31511100       0.59805100      -0.00725400 
I       9.37762590      19.77899287      24.92646709       53       0.06728900       0.00500500      -0.42312100 
I      22.33186052       7.61684908      12.96712486       53      -0.02187300      -0.15400200       0.00087600 
I      22.09296170       6.98881927      26.30709809       53       0.22363900      -0.07076100       0.18411600 
I      21.39901044      20.62966481      13.05571071       53       0.33830400      -0.03908400      -0.46356200 
I      21.63536473      19.37324112      25.43972859       53       0.26912200       0.12917300      -0.10422100 
I       3.05461541       0.55544728      12.84483268       53       0.16254600       0.26561400       0.02396100 
I       2.93432813       0.44268887      25.32708588       53       0.34592700      -0.30784400      -0.08495700 
I       2.46903672      13.02797720      12.62051081       53       0.43817200       0.00610800       0.13162000 
I       3.13999940      12.89163971      24.76339954       53      -0.36444400       0.17251800       0.09559100 
I      15.82587109       0.93353334      13.35048850       53      -0.17332000      -0.15032600      -0.38398400 
I      15.87400974       1.68201500      24.72354384       53       0.04836800      -0.12842900       0.02989500 
I      14.90451081      13.56687155      11.63411582       53       0.59310400      -0.08761700       0.05405500 
I      15.60327085      13.60891868      25.46725962       53       0.46036500      -0.12807200      -0.07166500 
I       3.06111988       5.98712417       0.05119189       53      -0.71187300      -0.10107200      -0.02184100 
I       3.35599144       7.17331636      12.19871784       53      -0.27255800      -1.03148000       0.68053700 
I       3.03742411      18.99539346       0.72501730       53       0.22422600       0.22863400       0.14012900 
I       2.57589812      18.52537306      12.86084498       53       0.09303300      -0.04207200       0.18572500 
I      15.60515406       7.21971443      -0.30836027       53      -0.40433000      -0.23540900      -0.17960000 
I      15.90963420       6.14218607      12.16071941       53      -0.49633900      -0.00353900       0.11844300 
I      15.70300636      19.84802342       0.15096331       53       0.25465600      -0.19971700      -0.07303000 
I      15.42200057      18.89070553      13.01956657       53      -0.86932000       0.04467200      -0.31440500 
I       9.39159141      12.90491597      -1.00778562       53       0.06920700      -0.29552000       0.17211800 
I       9.13130295      12.66921702      13.61242577       53      -0.36733400      -0.22141900       0.26670000 
I       8.69399641      25.68806143      -0.25257406       53      -0.09193700       0.36405100       0.02360700 
I       8.27449361      26.18812746      12.15852399       53       0.63950700      -0.40734300       0.05136200 
I      22.54263781      12.98126293       1.59309799       53      -0.74071400      -0.27973100       0.05210900 
I      21.71824907      12.48761059      12.49061495       53      -0.30889200       0.06607200       0.15418900 
I      21.28557375      26.07652810      -0.01547068       53       0.29154200       0.23988300       0.06569600 
I      21.34819560      26.20636511      12.85268771       53      -0.16034400      -0.04039900       0.14066700 
I      11.17844396      13.09819274       9.69099744       53       0.27330500       0.18356500       0.21386600 
I      11.93981885      13.87433111      22.00617129       53       0.19189500      -0.22131100      -0.18629200 