320
Lattice="24.9312017562 0.742555567061 0.131602706445 -0.706046781938 24.9754462479 0.0543589132936 0.102262290628 0.0256082938335 25.0329992404" Properties=species:S:1:pos:R:3:Z:I:1:forces:R:3 energy=-101584.333359 stress="1335.097136 305.657368 -879.268331 305.657368 1590.991814 583.607187 -879.268331 583.607187 771.334193" pbc="T T T"
Cs       2.74153752       9.82452111       3.72964367       55       0.14322200      -0.03070400       0.04692900 
Cs       2.37204182       9.02355617      15.08875240       55       0.18646600      -0.09387900       0.37485900 
Cs       2.45476564      21.61305920       3.13055216       55       0.02734200      -0.04673700       0.02554800 
Cs       2.11185081      21.28669187      15.06126633       55       0.22269100       0.14337800       0.37074300 
Cs      15.29439603      10.67702682       3.26831843       55       0.07558900      -0.10319600       0.17341500 
Cs      15.14635910      10.86820775      15.83071524       55       0.10954200       0.00290400       0.01320200 
Cs      15.71459469      21.92013609       3.19361740       55       0.08672000       0.34658600       0.01416500 
Cs      15.33251406      22.47071587      16.26729833       55      -0.68764200      -0.71200800      -0.17113300 
Cs       9.22173556       3.65965320       3.48339099       55      -0.19812100      -0.07585500      -0.23278700 
Cs       8.62346430       2.67529382      16.15157911       55       0.58326500       0.38540000       0.13007300 
Cs       8.54885603      16.54502015       2.79456353       55       0.39038500      -0.06188300      -0.20374800 
Cs       9.21037807      16.14775617      15.27945583       55       0.16691500      -0.08448800      -0.01916400 
Cs      21.85544988       3.42978104       2.68794417       55      -0.21250100       0.04404700       0.24602000 
Cs      21.53035393       4.56930569      16.38278221       55       0.16083700       0.01911200      -0.10581900 
Cs      21.29997206      15.94705941       3.12405463       55       0.10326800       0.20287500       0.05214600 
Cs      21.83220859      16.54596929      15.99625272       55      -0.09826500      -0.08214700       0.06066100 
Cs       9.25328869       3.17403792       9.84921736       55       0.30470600       0.20738700      -0.18077200 
Cs       8.51289213       4.21911313      22.44094776       55       0.71464200      -0.05636000       0.04842800 
Cs       9.03991228      16.10959615       9.54426824       55       0.28604900       0.12158000      -0.33834600 
Cs       9.02474846      14.94527370      22.07988595       55      -0.15237200       0.18017700       0.15375000 
Cs      21.64963048       4.16401990      10.41132942       55       0.02659200      -0.14905500      -0.17271300 
Cs      21.71084334       4.87482118      21.94314401       55      -0.72504700      -0.10117500       0.37385700 
Cs      21.86973194      14.97319333       9.46318588       55      -0.19972600       0.25595700       0.07026300 
Cs      20.62331354      16.30000664      22.26519039       55       0.11776900      -0.67865800      -0.19145600 
Cs       2.72416294       9.75362153      10.26719550       55      -0.22449600      -0.06641000      -0.14684000 
Cs       3.16505427       9.54284843      22.22374939       55      -0.16936800       0.17334000      -0.11351400 
Cs       3.71299071      22.22971180       9.03507087       55      -0.65511900       0.05863400       0.56426700 
Cs       2.74476773      22.62702851      22.21725968       55      -0.16235200      -0.08363200       0.01481700 
Cs      15.52324288       9.03423500      10.07030995       55      -0.26467200       0.00607800       0.14942800 
Cs      14.59954464       9.38941349      20.92155813       55       0.32052100       0.28908200       0.23284900 
Cs      15.87986950      22.78840324       9.18310683       55      -0.05913400      -0.07744000       0.11378100 
Cs      15.22809570      21.67003802      21.95288932       55      -0.23096200       0.46417400       0.13468700 
Cs       2.21008999       3.80359280       9.28479983       55       0.00340600      -0.50647200      -0.47387600 
Cs       1.62709777       3.61108093      21.79759809       55       0.83580700       0.00673500       0.41723200 
Cs       2.71048923      16.00537504       9.38303705       55      -0.03468300      -0.01784500      -0.03636800 
Cs       2.22546473      15.60464552      21.66803428       55       0.15905700       0.18139000       0.09414500 
Cs      16.07916012       3.13189580       9.35200829       55       0.00247500       0.14982800       0.05125600 
Cs      16.12552359       3.11116602      21.41777509       55      -0.00730500      -0.06007600      -0.09298100 
Cs      14.97162314      16.49218260      10.05494693       55       0.23421000      -0.05549100      -0.37035500 
Cs      15.42232814      16.10705730      22.29635293       55      -0.16863500      -0.28080900      -0.06166000 
Cs       9.20548003       9.38411802       9.64576692       55       0.02948700      -1.12227400       0.18605300 
Cs       9.20883620       9.00554981      21.94304831       55      -0.14194000       0.06997800      -0.19164900 
Cs       8.35755305      21.90350852       9.09486489       55       0.25951500       0.17795900      -0.07123600 
Cs       8.97243137      22.73803424      22.24478969       55       0.04488000      -0.13658500      -0.15983600 
Cs      21.59034521       9.76350746      10.15343706       55      -0.39923400       0.33569700       0.01328100 
Cs      21.65336749      10.23919970      22.98839888       55       0.00544200      -0.05079700      -0.46417300 
Cs      21.40238472      22.62734391       9.51879567       55       0.08215100       0.15471000      -0.21222400 
Cs      21.51885681      22.40431984      22.11370061       55       0.48836700       0.11095000       0.83555700 
Cs       8.80620157       9.17191339       3.06915475       55       0.03490800       0.62589000       0.54821200 
Cs       8.96147327       9.43446163      15.62865433       55       0.11018300      -0.13420700       0.02341000 
Cs       8.36234465      21.90358273       2.84423337       55      -0.22126000       0.23391300       0.10718500 
Cs       8.94953966      21.54839252      15.89360765       55      -0.06780000       0.17477300      -0.01661300 
Cs      22.70430257      10.58464167       2.85736903       55      -0.52709800       0.17925300       0.18128700 
Cs      21.86335745      10.72789188      15.97012494       55      -0.04183600       0.00694800      -0.10877800 
Cs      22.44892270      22.59563455       3.86886002       55      -0.26885200       0.13665400       0.01713800 
Cs      22.01662736      22.68008967      14.63609249       55      -0.34989300      -0.12829300       0.50057000 
Cs       3.35329696       3.41355090       2.65990443       55       0.01503400      -0.17729500       0.53976100 
Cs       2.87316268       3.09268020      14.91038099       55      -0.12603500      -0.00336600       0.07263800 
Cs       2.78366988      15.63284442       3.03905853       55       0.07440800       0.03968600      -0.12072200 
Cs       3.87953885      15.39034145      15.12169116       55      -0.07492300       0.29503000       0.21230100 
Cs      15.78088722       3.59261464       3.69347177       55      -0.15911600      -0.00983900      -0.36068000 
Cs      14.61276038       3.38759596      15.45859182       55       0.12077800      -0.08668100       0.16553600 
Cs      14.34543713      15.89377854       2.43950710       55       0.25957500       0.35035400       0.54043900 
Cs      15.86167760      16.43644196      16.05973493       55       0.02162600      -0.02320100      -0.05824200 
Pb       0.35916548       0.36902601       6.29906416       82      -0.13034200       0.20728400       0.25899300 
Pb       0.04110119       0.19491207      19.29449258       82      -0.16575300      -0.35885100      -0.64923700 
Pb      -0.38625412      12.63615944       6.43135529       82       0.47653700      -0.34913400       0.18983800 
Pb      -0.29165820      12.80140593      19.39004154       82       0.08265900      -1.01025300      -0.21776800 
Pb      12.76677394       0.53985994       5.95315934       82      -0.25103500      -0.07851100      -0.05262000 
Pb      12.51299648       0.04120274      19.03430841       82       0.11816800       0.02080700      -0.09029100 
Pb      11.55925769      13.07256285       6.40456642       82       0.36727100      -0.60151600       0.29382200 
Pb      12.13454642      13.05953167      19.17411944       82       0.39961700       0.34216500      -1.04568400 
Pb       5.60870557       6.61583753       6.63556739       82       0.32829100      -0.45945400       0.14966500 
Pb       5.56941771       6.30933872      18.89194582       82       0.41048000      -0.35632600      -0.02884600 
Pb       6.07336257      19.03240817       5.97505894       82      -0.07738600      -0.12690400       0.06152100 
Pb       5.03408573      18.40068452      18.68539504       82       1.35800800       0.18734500      -0.88714200 
Pb      18.52288564       6.68313583       5.97598856       82       0.04246900       0.45104800       0.36096300 
Pb      18.49797065       7.26557536      18.87588950       82      -0.20792500       0.13347600       0.11862100 
Pb      18.78824713      19.37161919       6.00324906       82       0.74989100      -0.23112400       0.28735800 
Pb      17.82730579      19.42613142      19.33227079       82       1.15512700       0.30426300      -0.42872500 
Pb      -0.53913832       6.71830781       6.26938978       82      -0.18983800      -0.80838300      -0.39337400 
Pb      -0.43082378       6.76864361      18.98166322       82       0.03719900       0.06277700      -0.40479800 
Pb      -0.05697394      18.62255731       6.50910978       82       0.28180400       0.51936600       0.20115200 
Pb      -0.85581795      19.11864733      19.30901290       82       0.17886700      -0.55138100      -0.07446300 
Pb      12.41253971       6.83853253       5.68081208       82      -0.43201000       0.48997900       0.85619000 
Pb      11.95762119       6.86166739      18.54431555       82       0.11956800      -0.43814700      -0.15957100 
Pb      12.66744696      19.65870843       5.70657368       82      -0.39630000      -0.69757400       0.33714700 
Pb      11.25481829      19.11852430      18.99306856       82       1.00733100      -0.25297900      -0.02990300 
Pb       6.57208616       0.54293977       6.37571132       82      -0.28979900      -0.92963300      -0.20115300 
Pb       6.05439436      -0.25805739      18.55950867       82       0.26306300      -0.03724300       0.57362600 
Pb       5.90151895      12.64852368       6.66324290       82      -0.13054600       0.12945700      -0.19079900 
Pb       6.32713124      12.51771485      18.91049511       82      -0.63184400      -0.10352200      -0.32414600 
Pb      19.03266108       0.54425998       5.99070417       82       0.33400100       0.17334500       0.26536200 
Pb      19.17881730       0.34286600      18.22616045       82       0.05120300       0.24966100       0.56417500 
Pb      18.08710718      12.77002173       6.52251983       82       0.42497500       0.44237600       0.10437400 
Pb      18.65872531      13.40107454      19.07339999       82      -0.93826800       0.00757800      -0.24556600 
Pb      -0.11541651       0.36632310       0.32664660       82       0.35331600      -0.53980200      -0.20439600 
Pb       0.16848548      -0.19504487      12.39864044       82       0.29108400       0.52318800      -0.33881300 
Pb      -0.20462418      12.80398091       0.32048011       82       0.13425600      -0.22686000      -1.08891200 
Pb      -0.09924691      12.36492342      12.91573170       82       0.45267800       0.58947400      -0.26243900 
Pb      12.52383350       0.50176535      -0.33051836       82      -0.54296800      -0.12673800      -0.16864300 
Pb      12.60644601       0.28935566      12.52405517       82       0.11072900       0.11694200       0.12478800 
Pb      12.08783826      11.96783131      -0.02207147       82      -0.08461400       0.47768900       0.27429900 
Pb      12.09664810      13.09168338      12.62931722       82       0.30803800      -0.54151200       0.42572200 
Pb       5.54905118       6.77806082       0.14377165       82       0.26091100       0.34198200       0.24571400 
Pb       5.94577028       5.91854591      12.73859750       82       0.62537000      -0.65470000      -0.58554300 
Pb       5.57513795      19.18537537      -0.33693386       82      -0.02820900      -1.45653000      -0.19177800 
Pb       5.85053672      18.58184184      12.44084213       82       0.34696900      -0.16135100       0.21778100 
Pb      17.39933139       6.78510323      -0.26466623       82       0.65377800      -0.29568500      -0.14110400 
Pb      18.27148494       6.96387109      12.89670296       82       0.41757500      -0.17754400      -0.16470800 
Pb      18.40748085      19.02707364       0.21850197       82      -0.50403600       0.36702600       0.88003300 
Pb      18.05939456      19.36102532      12.47212867       82       0.12215600       0.10951300       0.01639500 
Pb      -0.22659507       6.50773294       0.29141799       82      -0.15680500       0.18352900      -0.01042600 
Pb      -0.50216473       5.95267012      12.56937867       82       0.26339500       0.09743700       0.28845100 
Pb      -0.78388916      18.81294143       0.25452447       82       0.36562000       0.44585100       0.01228200 
Pb      -0.40689211      18.91563142      12.64622504       82      -0.15889700      -0.84243300      -0.80729200 
Pb      12.14728564       6.56405361       0.12531122       82      -0.18572400      -0.47149400      -0.65542500 
Pb      12.39950658       6.01219170      12.13896794       82      -0.35929500       0.56415800       0.29618100 
Pb      12.03410918      18.67643775      -0.01837938       82      -0.13181100       0.79871300      -0.15344400 
Pb      11.84689083      19.24565471      12.52985353       82       0.27578800       0.05400600      -0.01167300 
Pb       6.59116764       0.47382814       0.27172621       82      -0.23068600      -0.39955200      -0.53880800 
Pb       6.49906469      -0.16245570      12.89034214       82      -0.21095300       0.60861700      -0.39641400 
Pb       6.11041525      12.79064898       0.24486509       82      -0.54712800      -0.40228000       0.11574500 
Pb       6.36286958      11.91811948      12.45447189       82      -0.42189200       0.57079200       0.34078600 
Pb      18.56804607       0.52321479      -0.13893903       82       0.19282400      -0.29593100      -0.52475700 
Pb      19.01937113       0.67617223      12.72812763       82      -0.40414200       0.45032800      -0.64738300 
Pb      18.41789017      12.63522201       0.19276283       82       0.00969000       0.46472400       0.12554200 
Pb      18.46644095      13.20296448      12.77648898       82       0.37919500       0.32076900       0.23253000 
I      11.85080946       4.03956505       5.83553500       53       0.14740400      -0.58125100       0.01420400 
I      12.42953639       2.85892848      18.57527889       53      -0.02950900       0.94383200       0.00599000 
I      12.10138503      16.71939872       5.33008928       53      -0.05710900      -0.50934000       0.14259900 
I      11.21810249      15.85022832      19.31229388       53       0.06273600      -0.22005000      -0.08668200 
I      24.13674997       4.26122009       6.19740436       53      -0.03740100      -0.28584000      -0.09598900 
I      24.04615764       3.71694352      19.85422006       53      -0.10798600       0.18177000      -0.91966000 
I      24.60410402      16.44295902       6.99494574       53      -0.11686200      -0.39445700       0.02527700 
I      23.84136941      16.22412699      20.02384999       53      -0.01835400       0.67382300       0.12835900 
I       4.98932370       9.38755817       7.33523578       53       0.09395900       0.45465500      -0.02529100 
I       5.22407046       9.15887049      18.15314972       53       0.23010600       0.85371900       0.17949500 
I       5.54838131      22.18944453       6.21803454       53       0.18126700      -0.43759800      -0.57386900 
I       4.54796756      21.80841265      17.86304217       53       0.20571900       0.19701100       0.13400500 
I      17.24182353      10.12034890       7.25109313       53       0.14275900      -0.54622600      -0.67828000 
I      17.72618501      10.46316706      18.95476792       53       0.05267800      -0.94923100      -0.15704900 
I      18.12817321      22.59451257       5.92617225       53      -0.08542900      -0.16035400       0.28642400 
I      19.14999833      22.39095763      19.91155139       53      -0.97321100       0.02026100      -1.02973200 
I       0.54730563       9.34452647       6.66471446       53       0.28208500       1.24323700       0.16477700 
I       0.02299425       9.55710217      18.12481704       53       0.08495700       0.06085400       0.05217600 
I      -0.19943905      22.29388926       6.67472147       53       0.27529700      -0.12967200       0.01478100 
I      -0.15262934      21.90676412      18.67735076       53      -0.06730800       0.20581400       0.08800700 
I      12.48082329      10.17641373       6.77957535       53       0.06304200       0.32019900       0.02273500 
I      12.23814845       9.82955098      18.14227462       53      -0.08604500      -0.00564100      -0.10033400 
I      12.69660771      22.54311533       6.58419066       53       0.01963900       0.59586600       0.03816000 
I      12.05121035      21.91044839      19.68605291       53      -0.17958700      -0.06405300       0.02973900 
I       6.97995769       3.26799522       6.41847253       53       0.23637200       1.19161700      -0.27270100 
I       6.72271469       3.23222661      19.75668689       53      -0.50214700      -0.21529500      -0.75391200 
I       6.96999169      15.78230214       5.83259871       53      -0.22482100      -0.19723400       0.49834200 
I       5.74391834      15.43964999      19.64339423       53       0.16548100       0.11194300      -0.08553300 
I      18.66631356       3.75795585       5.89683085       53       0.26727300       0.37966000       0.09111800 
I      19.05871074       3.64023484      18.84601690       53      -0.19246600       0.13140100       0.17151100 
I      19.38732887      16.42631582       6.28261138       53      -0.11203400       0.00776100       0.00800100 
I      18.84054761      16.50239174      18.98325392       53      -0.21103900       0.00975100      -0.11947100 
I       2.72132528       5.82178317       6.16627698       53       0.24467300      -0.02489800       0.01821100 
I       2.63639558       6.27926790      18.58727792       53      -0.21786700      -0.35065700       0.19589400 
I       3.03997350      17.92780259       5.97509410       53       0.32880700       0.14479900      -0.00502700 
I       2.44248635      17.71556769      18.13091225       53      -1.27283700      -0.30113500      -0.35850400 
I      15.39368493       6.48470549       6.46950163       53       0.31698700      -0.04530100      -0.05491600 
I      15.51115303       6.42871194      19.11910140       53      -0.01724000      -0.12209300      -0.11895900 
I      15.91072053      18.96399863       5.87405436       53      -0.92218700      -0.06015100      -0.24884400 
I      15.09210760      19.54101769      18.68145688       53      -0.65950700      -0.16507700       0.09286700 
I       9.10765586      12.13306119       7.89724043       53      -0.21165600       1.02619700      -0.86292700 
I       9.15145410      12.14700734      19.55916174       53       0.06044500      -0.18402700      -0.19033300 
I       8.74971001      24.76172221       5.53294896       53       0.32248800       0.09463600       0.08350800 
I       8.60590028      24.36537222      18.84712130       53      -0.35540900      -0.03452100      -0.38353400 
I      21.66303956      13.05345208       5.93782658       53       0.20118100      -0.04890300       0.31647500 
I      21.42247588      13.21659522      18.71689348       53       1.11247200      -0.14218800      -0.09145900 
I      21.27256801      25.32475021       6.67248825       53      -0.01605100      -0.01331900      -0.33932300 
I      21.05630316      26.03907465      17.06298244       53       0.25812600      -0.38230100       0.19275700 
I       9.17409974       7.33637729       6.90707682       53       0.18258200      -0.34895700      -0.63586900 
I       8.97026455       6.43608830      18.73197235       53       0.14243400       0.20918700       0.01915900 
I       9.16834922      19.78831130       6.03013948       53      -0.13218100      -0.00759400       0.16495200 
I       8.51378756      18.57730900      19.15442180       53      -0.56617400       0.24367500      -0.00413400 
I      21.76825572       8.66387706       5.60678971       53      -0.63053400      -0.31984700       0.35558500 
I      21.58418262       8.18512257      18.54716786       53      -0.36489300      -0.20369700       0.23130700 
I      22.00930568      19.67257548       6.95261906       53      -0.62112900       0.21028400       0.13205200 
I      21.30069758      19.16423449      20.20578947       53       0.12870600       0.31424100      -0.28051700 
I       3.36545613       1.26032060       6.33669199       53      -0.21542200      -0.06260800       0.08052700 
I       2.98185903       0.52346282      19.54218068       53       0.09203100       0.16590900      -0.00961100 
I       2.94121776      12.95424228       5.86663211       53      -0.03980200       0.13453400       0.22934400 
I       2.68455675      12.66768230      19.41703449       53       0.13412300       0.03664800      -0.09043700 
I      15.84904775       1.01889860       6.29854369       53      -0.40550400      -0.19157100       0.06622800 
I      15.81042098      -0.10002321      18.77861704       53      -0.11405900       0.21472100       0.41973300 
I      15.33053571      13.54714678       6.44546646       53      -0.50422000       0.29444000      -0.18334600 
I      15.44177482      13.48796502      19.39045557       53      -0.71495100       0.18137900      -0.02897900 
I       0.30008429       9.62728989       0.40662162       53       0.35037200       0.10248000      -0.31989700 
I      -0.50789376       9.23821177      12.86312851       53       0.24176900      -0.46490800      -0.06553200 
I      -0.04545240      22.08909224       0.16826382       53      -0.11026300       0.10503100      -0.01960000 
I       0.12864005      21.78556390      12.17040780       53      -0.00491700       0.29940700      -0.24827900 
I      13.66145889       9.55639617      -0.29841547       53       0.16102600      -0.32669600       0.07395700 
I      12.78864523       9.77033796      13.08678631       53      -0.00845100       0.26042500      -0.20654000 
I      11.90714575      22.14344627      -0.83197221       53      -0.05847500      -0.05275200       0.17133800 
I      12.53418228      22.29668493      12.34076032       53      -0.01375400      -0.15035000      -0.01547100 
I       6.36075647       3.40134583       0.12910779       53      -0.07041500       0.34381200       0.39830200 
I       6.94215213       2.84867149      12.55989018       53      -0.10935200       0.49494400       0.41423200 
I       6.15768685      15.70027162      -0.00232208       53      -0.06029400      -0.34766100      -0.02000700 
I       6.61583070      15.44118795      11.93559464       53      -0.29021000       0.05900200       0.46287500 
I      18.44940814       3.76465550       0.17056149       53       0.24216800      -0.13279000      -0.24868000 
I      19.44058045       3.58035195      13.48420751       53      -0.20650300       0.16169300      -0.14373500 
I      18.26356565      15.95129247       0.82224545       53      -0.09197300       0.17811500      -0.26726900 
I      19.13232690      16.39254217      13.24957304       53      -0.15297000      -0.01386300      -0.24370500 
I      11.50911426       3.40585426      13.03273695       53      -0.07049000      -0.36429900       0.21414200 
I      11.42181073       3.50236213      25.44805866       53       0.20125100       0.37601000      -0.16893600 
I      12.29308056      16.11339956      12.78485647       53      -0.32357800       0.13904800       0.07328800 
I      11.70216613      15.68843468      25.15837296       53      -0.07667500      -0.25142300      -0.02660300 
I      24.37136979       3.65894134      13.34240054       53      -0.06286300       0.11084100      -0.19971800 
I      24.05693607       4.22137466      24.81523647       53       0.26503200      -0.42910900       0.14872500 
I      25.30942039      16.19801190      12.57427281       53      -0.21886400       0.15780000       0.01007300 
I      24.10492733      16.63363217      25.39634895       53      -0.01015900      -0.36476700      -0.15544000 
I       5.42226645       8.81564514      12.70245782       53      -0.08426200       1.10250000      -0.10681200 
I       4.88359196       9.79385365      25.73847673       53       0.00441700      -0.62487900      -0.45378400 
I       5.21694115      21.97664424      13.03714870       53       0.03549900      -0.93409200      -0.08887100 
I       6.07010306      21.88093514      24.26526601       53      -0.03126400       1.01641400       0.29010800 
I      18.30476547      10.01769797      12.50587108       53      -0.07716700      -0.42807600       0.33624900 
I      18.57668112       9.68129141      24.93491532       53      -0.08456100       0.51190500       0.24583800 
I      18.45070686      22.60614151      12.23468389       53      -0.25991500      -0.68839000      -0.25772000 
I      17.96189360      22.23381010      24.80945666       53      -0.07631800       0.12177800       0.01814500 
I       8.95865709       7.10688694      12.51016761       53       0.10211100      -0.27154400       0.10200300 
I       9.22386722       6.80965497      25.71890409       53      -0.41363000      -0.24595100      -0.57284800 
I       8.67319956      19.34864936      12.01928713       53       1.08295200       0.25805200      -0.01708200 
I       8.54145331      18.34195388      23.92727657       53       0.23743500       0.50485800       0.14322400 
I      21.47646080       7.00784021      13.08948434       53      -0.00856700       0.15925200      -0.09575100 
I      21.88823924       7.33463134      25.08419825       53      -0.40153700       0.06066600       0.50218300 
I      21.57617447      20.05411025      12.07371928       53       0.08182300      -0.31038800       0.12169700 
I      21.11752383      18.96458354      24.16601617       53       0.91085000       0.67571600       0.25965700 
I       3.26995307       0.33512639      11.86739602       53      -0.11694000       0.07200500       0.06760100 
I       3.09982514       0.95599838      25.05197233       53      -0.52967200      -0.09088100      -0.39940300 
I       3.29402144      12.51216159      13.36845216       53       0.22009000      -0.57621700      -0.32620500 
I       2.79624406      13.28115253      24.56842915       53       0.11097700      -0.01780600       0.20240000 
I      15.66978286       0.88039605      12.29696794       53      -0.08931200      -0.00000000       0.06627800 
I      15.47799359      -0.02678789      24.35513867       53       0.63457200       0.17597200      -0.10216200 
I      15.58779336      13.52887091      13.03626108       53      -0.48908000       0.10903100      -0.05119300 
I      15.34601493      13.31144014      25.43026224       53      -0.25449400      -0.43559500      -0.33774000 
I       2.81103389       5.61725371      -0.07427333       53       0.12614100       0.13696900      -0.25344100 
I       2.79373059       5.59086520      12.10995465       53      -0.10937800       0.42583300       0.45604200 
I       2.28000136      18.61649628       0.26513690       53      -0.04266500      -0.00742800      -0.01805300 
I       3.03040103      18.41205763      12.37002848       53      -0.88766500      -0.05287200       0.26589300 
I      14.94896188       5.32045334      -0.28760873       53      -0.62307300      -0.40213700      -0.00707900 
I      15.41028907       6.01251882      12.80120868       53       0.00156000      -0.05365000      -0.01381600 
I      15.12264030      19.51227879       0.74652888       53      -0.62947800      -0.62370600      -0.20404800 
I      14.94126132      18.93053354      12.56371995       53       0.61257100       0.25189100       0.11307900 
I       8.54367969      10.94926569      -0.12450562       53       0.63216700       0.34239000       0.03237500 
I       9.42864862      11.97671829      11.71342108       53      -0.31764900       0.48804000       0.61187100 
I       8.81981668      24.80043004       0.57053423       53      -0.28121800      -0.02899100       0.19964300 
I       8.77388385      24.82994524      13.39172568       53       0.06512400      -0.28587700       0.10750300 
I      21.49288429      13.12923701       0.14685832       53      -0.00553600       0.06415000       0.14141600 
I      21.94196441      12.77283791      12.74629121       53      -0.67633800       0.26126300      -0.15403700 
I      20.77938791      24.53635751       0.75631032       53       0.80250400       0.27482200      -0.47686700 
I      21.18922607      25.27149180      12.41601404       53       0.57986200       0.15760300      -0.09503300 
I      12.48441870      13.94167270       9.79177374       53      -0.16049400      -0.34797000      -0.87767900 
I      11.99026993      12.01840927      21.92943808       53       0.06937500      -0.12714200       0.72214600 
I      11.52472238      26.15231848       9.76686656       53       0.18473300      -0.40937700      -0.40755000 