320
Lattice="25.8708265965 1.33780790308 0.22771245198 -0.166933618356 25.8557840153 -0.243209413181 0.185603233071 -0.252508190405 25.7836797094" Properties=species:S:1:pos:R:3:Z:I:1:forces:R:3 energy=-101580.126897 stress="-1104.466388 -1642.512602 -282.086343 -1642.512602 -1844.739395 721.694416 -282.086343 721.694416 -2406.339376" pbc="T T T"
Cs       3.26108047       9.10316162       3.37253069       55       0.22452600      -0.01582700      -0.09178700 
Cs       3.40633996      10.61412534      16.30813364       55       0.17243000      -0.13528000      -0.00028600 
Cs       2.96729776      23.31421832       2.39555657       55      -0.10747400      -0.08995400       0.11601000 
Cs       3.16017608      23.19324415      16.14956302       55       0.20585800      -0.26682400      -0.60621300 
Cs      16.63290627      10.56826198       3.46147808       55      -0.36454700       0.10213800      -0.03159700 
Cs      17.54896544       9.88085005      16.68832262       55      -0.51066700      -0.28860900       0.07427500 
Cs      15.58435029      22.92596660       3.53898690       55       0.06026900      -0.09177600      -0.09366800 
Cs      15.81957403      23.50287411      15.61172619       55      -0.08212300       0.00200700       0.06369500 
Cs       9.85295772       3.61257345       3.33995044       55      -0.56164000      -0.20597600      -0.44575000 
Cs       9.74316189       3.18606373      16.14409044       55      -0.10979200       0.15910900       0.20660300 
Cs       9.48365585      15.90344517       2.93664512       55       0.08044800       0.20930800       0.06891400 
Cs       9.30570602      17.48610486      16.75068878       55       0.24441500      -0.25212100      -0.00795200 
Cs      22.49916964       4.25816340       3.21565848       55       0.29606100       0.04447100       0.26956100 
Cs      22.80581711       4.43185067      17.41676387       55       0.03415200       0.31015800      -0.20680800 
Cs      23.47878697      17.33903586       3.43981596       55      -0.07737400      -0.00810400      -0.19639000 
Cs      22.08396438      16.34018445      15.44616772       55       0.28164700      -0.04904600      -0.23649100 
Cs       9.88335515       3.05170235       9.61894500       55      -0.44565200       0.34952300      -0.09076100 
Cs       9.95036819       3.57370995      21.75148430       55      -0.15774000       0.09995200       0.24410000 
Cs       8.78073895      15.74307705       9.35306663       55       0.07368000       0.31735800      -0.00997200 
Cs      10.46995376      17.47385662      22.37257877       55      -0.18593100      -0.12796500      -0.08782100 
Cs      22.93744320       4.29494717      10.61060840       55       0.11474500       0.16820100      -0.15754800 
Cs      22.47459509       3.33932491      22.33107305       55       0.63153300       0.71435000       0.17205800 
Cs      22.85649150      17.28971961       8.47023726       55       0.00551500      -0.14363800       0.29174100 
Cs      23.42143200      17.14030765      22.10412324       55      -0.24062100      -0.04692200       0.18607700 
Cs       3.75129347      10.19311522      10.10593330       55      -0.49063100      -0.64701600       0.18815100 
Cs       2.77178324       8.88012507      22.87863502       55       0.36051500       0.18015700      -0.27257500 
Cs       2.49431417      24.01529769       9.49137431       55       0.14632000      -0.26815900       0.06821600 
Cs       3.30237301      22.15013372      22.10567754       55      -0.21605400       0.13577500       0.07646800 
Cs      15.94495889      10.76339218       9.90934689       55      -0.24909000      -0.35002800      -0.48547300 
Cs      16.35472061      11.02773127      22.80325297       55       0.11703600      -0.43445400       0.07792400 
Cs      15.73312872      22.53571321       9.54082967       55       0.10119600       0.07456100       0.12337500 
Cs      17.32379611      22.09136156      22.03672287       55      -0.52217300       0.44212500       0.10489600 
Cs       3.93474290       3.96742324      10.30809739       55      -0.09193100      -0.14445700      -0.35966900 
Cs       2.66927250       3.39147353      22.85842211       55       0.12379400      -0.16904900      -0.37416900 
Cs       2.69878819      16.01120430       8.97532470       55       0.20187800       0.40159900       0.44910800 
Cs       3.86776889      16.15071198      22.02672550       55      -0.33104400       0.27972700       0.23872100 
Cs      16.81376454       3.47771366      10.42442368       55      -0.06264900      -0.03512800      -0.29188800 
Cs      15.52535295       4.45074447      22.75832639       55       0.18038000      -0.07922600      -0.10443900 
Cs      16.48833936      16.57558633       9.94082721       55      -0.09491500       0.05851100      -0.05059300 
Cs      16.36916469      17.12892513      22.80685798       55      -0.64398700      -0.70982900       0.10319300 
Cs       9.86478562      10.50409431       9.20102046       55      -0.10497600      -0.04725200       0.18335200 
Cs      10.26575197      10.31207972      22.68883427       55      -0.05493800      -0.03643900      -0.06885400 
Cs       9.74798593      23.50345960       9.56196435       55      -0.09575100      -0.06175500      -0.20723700 
Cs      10.08765402      22.79741408      23.10541068       55       0.16819600       0.12340500      -0.11080900 
Cs      23.00176099      10.45514938       9.78604676       55      -0.06373700       0.02656800       0.09240400 
Cs      22.61579619      11.11243611      23.29008714       55      -0.10278100      -0.25234600      -0.21806200 
Cs      22.16652142      23.52872773       9.18397320       55       0.00829100      -0.04318400      -0.05155300 
Cs      21.93241863      22.97095623      22.76209154       55       0.20036900      -0.00370800      -0.17953600 
Cs       9.60411360       9.78552532       2.69091460       55      -0.03582200       0.07149400       0.00611100 
Cs      11.05633619      10.09695680      17.01380885       55      -0.12549300       0.14944400      -0.32557300 
Cs       9.60646356      23.62216788       3.43031201       55       0.02312500      -0.08346600      -0.24883300 
Cs      10.17006294      23.72499789      15.63916814       55      -0.34868800      -0.09500300      -0.02655700 
Cs      22.26147584      10.43885875       3.70532502       55      -0.63758600       0.04315900       0.00680900 
Cs      22.72968344      10.45352402      16.43834455       55       0.00828900       0.17257100       0.20035000 
Cs      21.85714467      23.35770269       2.31493214       55       0.14979100      -0.09462100       0.18841700 
Cs      23.26200766      23.57872255      15.47571343       55      -0.39824000       0.47057900      -0.03642700 
Cs       3.91913585       3.04507481       3.27461779       55      -0.30250400       0.63456100      -0.10187000 
Cs       3.96277034       2.99539426      15.63990476       55      -0.47913100       0.36603600       0.53919500 
Cs       3.44648053      16.51219832       3.16368001       55       0.18637900       0.09336300      -0.05754800 
Cs       2.43924311      16.30606591      16.15970250       55       0.05077900      -0.01963400      -0.04927600 
Cs      16.94466502       3.53899091       3.94742351       55      -0.80333200      -0.27955500      -0.42236700 
Cs      15.63436412       4.25994489      15.51671372       55       0.16449300      -0.12806500       0.16367700 
Cs      15.96351742      17.42177906       3.95574747       55      -0.12741200      -0.28375700      -0.31048100 
Cs      15.82516370      16.68389892      15.57982350       55       0.01937500      -0.09349400      -0.00694700 
Pb      -0.11489009      -0.17577001       6.39348432       82      -0.02682500       0.64915700      -0.62401400 
Pb       0.03460694      -0.22621520      19.62519293       82      -0.05305500      -0.00616500      -0.12508600 
Pb       0.15739364      12.55001847       5.62367448       82      -0.20751400       0.11557500      -0.22912700 
Pb       0.10954762      13.05442834      18.95827214       82      -0.16550600      -0.39444100      -0.03901700 
Pb      13.03695272       0.49178331       6.29538127       82       0.02720800       0.43951300       0.29697000 
Pb      13.24765094       0.29406595      19.81478650       82      -0.06926900      -0.52834700       0.00164000 
Pb      12.66711540      13.44039515       5.86414560       82       0.07688300       0.77704400       0.04308300 
Pb      13.44225070      13.13865679      19.46188234       82      -0.03143600      -0.33446800       0.00538800 
Pb       6.49835703       6.52696296       6.54452765       82      -0.12505100       0.18389900      -0.20766000 
Pb       6.86949044       6.74724520      19.10469861       82      -0.27590000       0.43968700      -0.02029400 
Pb       6.23419310      20.00039974       6.91142151       82       0.00904500      -0.37824300      -0.25214500 
Pb       6.64526791      19.95333338      19.27656935       82       0.04712200      -0.32412600      -0.00870100 
Pb      18.93657399       6.99626447       6.73485884       82      -0.04910300      -0.05804500       0.13747400 
Pb      19.41095575       7.09779038      19.90992608       82       0.08941700       0.43621300      -0.23394800 
Pb      19.23634972      19.62486266       6.35757429       82      -0.20900300       1.30705000       0.22003600 
Pb      19.38177935      19.58407254      18.77930946       82       0.76208000       0.28692000       0.09463200 
Pb      -0.12528278       6.52626337       6.39380559       82      -0.21771100      -0.63115800      -0.20547000 
Pb       0.17239819       7.03509395      19.34670401       82      -0.07558100      -0.60685300       0.12902800 
Pb       0.03556775      19.42202501       6.29350370       82       0.57605300       0.02364700      -0.43516200 
Pb       0.13674637      19.54588160      19.25907072       82      -0.20284900      -0.30371100      -0.12981700 
Pb      12.37657040       7.05971254       6.25042167       82       1.24161700      -0.12403200       0.19431000 
Pb      13.01959621       6.54529829      19.20531476       82       0.30153300       0.74234100      -0.29586200 
Pb      12.36022773      20.05850134       6.62499095       82      -0.15741400      -0.53668900       0.33795300 
Pb      13.30741393      19.86706923      18.79511868       82      -0.04520300       0.09153200       0.04318600 
Pb       6.08383634       0.05836882       6.61567716       82       1.09936300      -0.07560900      -0.07707600 
Pb       6.76938071      -0.05739300      20.00895490       82      -0.45803200       0.30649500      -0.80064200 
Pb       6.10538837      13.03551852       6.31351344       82       0.12405900       0.40553400      -0.08655700 
Pb       6.81569945      13.63766314      19.08892842       82       0.33954400      -0.42889600      -0.40113800 
Pb      19.50459707       0.11545256       6.26761905       82      -0.33230300       0.25882000       0.37906600 
Pb      18.92968923       1.01333152      19.56163678       82       0.54109000       0.01621000       0.06758500 
Pb      19.12220925      13.67925793       6.43357986       82       0.09198200      -0.29243100      -0.62975300 
Pb      19.58891559      13.64199776      18.99344055       82       0.19049100      -0.55916000       0.84016800 
Pb      -0.30158123      -0.20699412      -0.21319131       82       1.41404400       0.02456700       0.05004800 
Pb      -0.17516150       0.23009545      13.32352941       82       1.29610600       0.56918100       0.20061900 
Pb      -0.14455790      12.59895640      -0.12466827       82      -0.34027800       0.25926300      -0.14054400 
Pb       0.14283847      13.16551925      12.27425883       82       0.37902100      -0.78569800       0.09823100 
Pb      13.02327128       0.40488463       0.12349028       82       0.38960400       0.15571800      -0.32763100 
Pb      12.73013211       0.84177303      12.86460958       82       0.51770600       0.11266600       0.04207100 
Pb      13.04573607      13.64250919      -0.45802908       82      -0.10517300       0.02406700       0.01765200 
Pb      12.52955735      13.35734769      13.19191433       82      -0.26564000       0.07674400      -0.20900000 
Pb       6.31046589       6.80287873      -0.14518443       82       0.09621400       0.04234500      -0.33955600 
Pb       7.30156581       6.70921339      12.76929186       82       0.06133000       0.72398700       0.81279000 
Pb       6.80553095      19.54477367       0.24224561       82      -0.57949300       0.04904600       0.37476800 
Pb       6.52209189      19.71825377      13.34243622       82       0.01229800       0.43002500      -0.61228800 
Pb      18.77368476       7.15242308       0.52963497       82       0.11179000       0.41910000      -0.18093900 
Pb      19.81765790       7.03204540      13.08530216       82      -0.47677300       0.27595400       0.15436400 
Pb      19.42209207      19.88025126      -0.47504431       82       0.28287000      -0.26408800       0.64417200 
Pb      19.21605074      20.48970899      12.88726453       82       0.03502600      -0.45041300      -0.00536400 
Pb      -0.20241329       6.68375009       0.30896941       82       0.22994200      -0.37174900      -0.41580500 
Pb       0.29510382       6.68092473      13.03563462       82       0.34438200       0.05833000      -0.16499000 
Pb       0.53712123      19.26173495      -0.02517005       82      -0.01909300      -0.08022800       0.28171100 
Pb       0.12256051      18.93481052      12.36139571       82       0.01989300       0.18646700       0.13995200 
Pb      12.96149962       6.92817652       0.05870110       82      -0.35762200       0.20132500       0.43840000 
Pb      13.12885259       6.95809455      12.51721803       82      -0.14424800       0.44337000       0.26574400 
Pb      12.91587846      20.01850589      -0.39816201       82       0.38773800       0.09550500      -0.20105700 
Pb      12.64731484      19.88180856      12.62574480       82      -0.07401600      -0.43210800      -0.15729000 
Pb       6.36786089       0.29679023      -0.01018852       82       0.36341600       0.46533600       0.25263100 
Pb       6.26142587       0.29471049      13.15369036       82       0.05358400      -0.37638700      -0.79484900 
Pb       6.37639403      13.30365378      -0.26531390       82      -0.42372300      -0.35748300      -0.08240500 
Pb       6.46224683      13.91796157      12.85726644       82       0.09572700      -0.99341900       0.68688100 
Pb      19.10439035       0.96438759       0.09405166       82      -0.16353600       0.28000700      -1.47236400 
Pb      19.80737430       0.76367472      13.22729092       82      -0.57249200      -0.20389700      -0.11212900 
Pb      19.55003007      13.72243004      -0.03266932       82       0.12137200       0.36576300      -0.22901800 
Pb      19.12996574      13.30514103      12.45861802       82      -0.36818100       0.18462300       0.44947500 
I      12.09412017       3.72552692       5.95444412       53       0.63112900       0.30962200       0.44978100 
I      13.01611429       3.56050790      19.42450909       53      -0.31975900      -0.23347100      -0.16072500 
I      12.57915784      16.56249939       6.31967659       53      -0.08941100       0.28043800      -0.15106600 
I      13.10997279      16.89209505      18.27338732       53      -0.09685900       0.05352300       0.10084300 
I      25.68228691       4.33140066       7.29504636       53       0.05026400       0.37907800      -0.12892900 
I      26.51586509       4.91818843      19.71602891       53      -0.21311600      -0.21599600       0.02488200 
I      26.59940596      17.46160137       6.07667835       53      -0.58336900       0.06722900      -0.06772200 
I      25.51455162      17.43817478      18.91587568       53       0.02112800       0.38265500       0.01158000 
I       6.83778692      10.16876085       6.30047553       53      -0.16478600      -0.70191500       0.03450900 
I       7.43396055      10.71611064      17.94848558       53      -0.33094400       0.17693400       0.26208000 
I       6.81763607      22.88692995       5.74102362       53      -0.18891800       0.31314800       0.18924700 
I       7.19824640      22.93088472      20.42003171       53      -0.30413000      -0.09824300       0.01282200 
I      18.80452255      10.32683506       6.82856321       53       0.14063400       0.34391300      -0.05654300 
I      19.58506537      10.41683433      20.16369232       53      -0.14887700       0.36569100      -0.25246500 
I      18.81446787      22.85624629       6.13418045       53       0.11807600       0.79367700      -0.00310600 
I      19.62964966      23.92970110      19.79569253       53      -0.01541000      -0.43574500      -0.28340300 
I      -0.34960240       9.41643463       4.57858639       53       0.54724000       0.18149100       0.57269800 
I       1.01464362      10.02839445      19.55239605       53      -0.26704600      -0.01107900      -0.08988000 
I      -0.18278988      22.66472010       6.45722363       53       0.18748700      -0.65108800       0.07702100 
I       0.76535512      22.59084131      18.62271549       53      -0.39652400       0.28457100       0.57098500 
I      12.52303790      10.49633482       6.36064886       53      -0.01742700      -0.57946500       0.36078700 
I      13.52962078       9.81704068      19.93239387       53      -0.00754300       0.87514900      -0.05502700 
I      13.09358709      23.29452385       6.86768093       53      -0.10544700      -0.19905700      -0.03117900 
I      14.24737709      23.15802869      19.65897319       53      -0.10698700       0.37016000      -0.20089500 
I       6.79349188       3.54352870       6.82276736       53      -0.02798200      -0.10211500      -0.11587000 
I       6.64607258       3.78495763      19.40642997       53       0.17329100      -0.41426000      -0.11093500 
I       5.95728049      16.82069934       6.71938389       53      -0.01352700      -0.58563800       0.12025000 
I       6.95895827      16.79805840      20.02470307       53       0.28621800       0.10535100      -0.36753500 
I      19.32105756       3.70778708       6.35820381       53       0.60816100       0.13010600       0.43725900 
I      18.59692892       4.26546351      19.08002597       53       0.26969700      -0.87870100       0.20354000 
I      20.03282486      17.01558734       5.57855774       53       0.09059700      -1.41776400      -0.21937900 
I      19.81784906      16.65524696      18.22354464       53      -0.15344000       0.12599700       0.03362900 
I       3.42942827       6.72108432       7.07574895       53      -0.06748100       0.06013900      -0.00767400 
I       3.74981423       7.42542040      19.32548927       53      -0.02983900      -0.20235800      -0.10035300 
I       3.34035077      19.70833947       5.65414196       53      -0.43113400       0.19078800      -0.11536400 
I       3.55048152      19.60481589      18.69289819       53      -0.37854900      -0.14368600       0.07573400 
I      16.09612232       7.04547363       7.75295034       53      -0.00037900      -0.10801800      -0.04213700 
I      16.36892148       7.25784225      20.09347659       53      -0.31830200       0.14858100       0.01411200 
I      16.10255370      19.86823320       6.66644061       53      -0.01687000      -0.09770400      -0.01442300 
I      16.48768081      19.48864973      19.09211909       53      -0.66367800      -0.12264000       0.02050200 
I       9.14192103      13.36968801       6.43029011       53       0.61375900       0.22966800       0.08306500 
I      10.12851519      14.08348901      18.78965511       53      -0.20696900      -0.15451600       0.09353900 
I       9.65470191      26.31518925       6.08952010       53      -0.21130400      -0.14635900       0.12154900 
I       9.66186190      25.79394329      19.72035152       53       0.58413000       0.27807600      -0.11281000 
I      22.55219699      13.93902219       6.71932384       53      -0.08910100      -0.23510000      -0.25534400 
I      22.83434497      13.46012966      19.64343219       53       0.19100000      -0.01586800      -0.46553000 
I      22.42891588      26.22828356       5.40156271       53      -0.48109900      -0.06455700       0.15328600 
I      22.71320866      27.01864960      18.90214520       53       0.29664700      -0.11435700       0.06037600 
I       9.66532079       6.84136392       5.41285115       53      -0.77231500       0.26113100      -0.19274900 
I      10.16772499       7.59456387      19.80234610       53      -0.81831200      -0.20432000      -0.59023600 
I       9.43261516      19.08650639       7.13539183       53       0.09930700       0.27011400       0.08479400 
I      10.47634911      20.40030722      19.73649602       53      -0.68590900      -0.03149400       0.17304500 
I      22.62754601       7.05274671       6.41893261       53       0.25763600       0.35751500      -0.05799200 
I      22.59263782       7.89606003      19.75847841       53       0.72979800      -0.09362100      -0.23875700 
I      22.87585469      20.38787482       6.44782277       53      -0.67121600       0.03881400       0.25430300 
I      22.38408139      19.97150658      19.61197087       53       0.59558100       0.38427600       0.20600900 
I       3.26910618       0.66984124       6.33572802       53      -1.03981200      -0.03733400       0.30502200 
I       3.71900847       0.24548131      18.34893851       53       0.12945400       0.10559800       0.82000700 
I       2.89852924      13.13109946       6.95736193       53       0.31041900      -0.72482300      -0.48650700 
I       3.24221770      13.36481193      19.50650867       53      -0.01033700       0.10516900      -0.31263800 
I      16.19621904       1.05199386       7.07945305       53       0.11040300      -0.20029400      -0.43347500 
I      16.04114834       1.50779708      20.17051502       53       0.09465400      -0.15313800      -0.04907600 
I      15.54368528      14.01445528       7.14337951       53       0.41319800      -0.27200700      -0.24057500 
I      16.70335619      13.48948221      20.20987194       53      -0.44712000       0.36485300      -0.17741400 
I       0.85917559       9.65595496       0.24076337       53      -0.22864700       0.00173300       0.21362500 
I       0.61066074       9.74982847      12.61505386       53      -0.06869300      -0.13878400      -0.01498200 
I       0.35731985      22.39963439      -0.66922572       53      -0.03442200       0.09020200       0.19158100 
I       0.90012184      21.79671113      12.89135495       53      -0.14088200       0.51530500       0.09365800 
I      12.78761518      10.49876185      -0.19780244       53       0.06095600       0.09564100      -0.24263700 
I      13.89337801       9.81721083      13.27230056       53      -0.03912800       0.35238300      -0.08798900 
I      14.07214553      23.51217289      -0.86034357       53      -0.29630600      -0.25039100       0.25909800 
I      12.51621019      22.95282807      12.30076300       53       0.43781900       0.40682300      -0.05006100 
I       6.92646809       3.54598276       0.42879964       53      -0.03110600       0.08034200      -0.12815700 
I       6.48607977       3.53842844      13.18679304       53       0.54522200       0.24549500      -0.44941200 
I       6.53805323      16.46779418      -0.09937311       53      -0.01495200       0.04910600      -0.04169300 
I       7.61019194      16.73996081      13.19339857       53       0.38804600       0.72063200      -0.38350900 
I      19.82490997       4.18024924       0.53456409       53      -0.20669200      -0.16525800      -0.04036500 
I      19.19842299       3.74640638      13.55349675       53       0.16547800       0.18536000      -0.32759600 
I      19.94240524      16.81561609       0.40624277       53      -0.05909500       0.10591700       0.07260000 
I      18.91295924      16.83737428      13.40090112       53       0.18129600      -0.01721300      -0.19233900 
I      12.15545647       3.90832681      13.50805874       53       0.11556000      -0.70020000      -0.54766500 
I      13.12882256       3.72764169      27.00515632       53       0.24353800       0.45170700      -0.36290800 
I      12.34790342      16.38703163      13.71865288       53      -0.01034100       0.11610500       0.01732200 
I      12.96681206      16.59236637      25.63982139       53      -0.04743800       0.42513400       0.00813300 
I      25.31723759       4.57189079      14.10834981       53      -0.07522400      -0.21408900      -0.19484800 
I      26.05060796       4.07854517      25.80658186       53      -0.18567200       0.06346900       0.02467300 
I      24.70750163      17.08942409      12.09756204       53      -0.27872800       0.50002200      -0.01477200 
I      26.58555638      17.23261185      26.55671325       53      -0.18888600       0.25882900      -0.18131700 
I       5.99729296      10.36321749      13.46246561       53      -0.06427600      -0.07905600      -0.27707000 
I       5.84324612       9.87039431      25.96307275       53       0.04992200      -0.26942500      -0.04554700 
I       5.49341553      23.06691249      13.06047239       53       0.04157800       0.11129500      -0.34276500 
I       7.08648393      22.93574578      25.39954943       53      -0.15740600      -0.50671800       0.07655900 
I      18.49268073      10.24413189      12.41898087       53       0.34462600      -0.29556400       0.29500800 
I      19.10959971      10.19549821      25.89363768       53       0.10692400      -0.15049200       0.00626300 
I      18.24505663      23.37856614      12.56293927       53       0.20898300      -0.32218500       0.20117000 
I      19.22088878      23.04680167      25.42932434       53       0.02200100      -0.01340300      -0.14791700 
I      10.20719300       8.24691047      13.34612130       53      -0.66241800      -0.32276000      -0.35922600 
I       9.58749770       7.34073157      25.22651371       53       0.17252900      -0.13102200       0.21213100 
I       9.54368906      20.58492462      12.14847162       53      -0.90457600      -0.21483800       0.26532600 
I       9.92917247      19.58675478      25.66118926       53       0.39623200       0.15137200      -0.15663000 
I      22.72694014       7.99043697      13.62008644       53      -0.09254900      -0.11557200      -0.26207100 
I      22.87163316       7.51957815      26.94024002       53      -0.46987500      -0.07676800      -0.03703500 
I      22.43452658      20.76376220      12.88698830       53      -0.20294100       0.10089700      -0.07545900 
I      22.78490562      19.60722390      25.67319030       53      -0.30763400       0.28920100      -0.18989900 
I       2.97185958       0.62175402      12.77705435       53       0.28640000       0.07727600      -0.13805800 
I       3.59860477       0.44124004      25.99296675       53      -0.42582100      -0.15005200      -0.18001600 
I       3.23767289      13.81006033      12.63592532       53      -0.68664900       0.00677800       0.00016800 
I       3.36661874      13.23452697      25.09056000       53       0.27155400      -0.02652000      -0.00571600 
I      15.89875825       0.45890381      13.05709757       53      -0.02473100       0.30726700       0.06340600 
I      16.41413930       1.16664775      24.75002919       53       0.50087600      -0.05601300       0.48223600 
I      15.90897480      13.49151190      12.15116187       53      -0.37055300       0.43206600       0.36573400 
I      16.74191044      13.96941661      25.35237698       53      -0.24278200      -0.00601000       0.01023600 
I       2.90022266       6.20140167      -0.52130200       53       0.38495000       0.14449100       0.47412000 
I       3.45491059       6.29466267      13.06394330       53      -0.30195500       0.16846800       0.05902200 
I       3.71333673      19.97631660       0.59986971       53      -0.72108300      -0.12064200      -0.08908100 
I       3.02029509      18.13768883      12.79302471       53       0.24386400      -0.08817000       0.08870100 
I      15.90440197       7.80743491      -0.52893138       53       0.10885100      -0.22212800      -0.03118500 
I      16.31925294       6.65459170      12.52121738       53       0.13322100      -0.16751400       0.05056200 
I      15.72756207      19.71909647       0.51904812       53       0.54810800       0.01761900       0.10656100 
I      15.66172000      19.41097577      12.16253238       53       0.82979100       0.39324400       0.69937600 
I       9.96825515      13.68803827      -0.51030881       53      -0.18462100      -0.03935300       0.01441900 
I       9.24807382      12.71561497      13.86945600       53       0.38443200       0.17267000      -0.16105800 
I       9.81477979      26.39100466      -0.10076127       53      -0.25353400      -0.16025000      -0.08510900 
I       9.55619252      26.09303545      12.32475606       53      -0.54201700      -0.01263600       0.08139400 
I      22.77639250      13.66316447       1.72894204       53       0.36950400       0.04176900      -0.47870500 
I      22.00285254      12.64413518      12.93341913       53       0.69574700       0.06162900       0.12457800 
I      22.69302978      27.34033865       0.28025340       53      -1.75490400      -0.12757400      -0.06525600 
I      22.76612792      26.71806420      12.94924537       53      -1.18294000      -0.38551300      -0.19877700 
I      11.88334188      13.78740938      10.14430340       53       0.15729400      -0.23076000       0.10357500 
I      12.87859828      14.71612013      22.00412860       53       0.19629000      -0.07012400       0.78747200 