320
Lattice="26.0924074269 0.827974453444 0.119340086078 -0.698800941554 26.0528617701 -0.0957561682524 0.0775159276254 -0.115378183533 26.0163935169" Properties=species:S:1:pos:R:3:Z:I:1:forces:R:3 energy=-101584.390592 stress="1022.445434 -146.727143 354.491761 -146.727143 2680.824205 115.251784 354.491761 115.251784 2103.819661" pbc="T T T"
Cs       3.76413146       9.87864836       3.36711174       55      -0.45722400       0.05004100      -0.01822000 
Cs       2.95693254      10.01781223      16.51869207       55      -0.06635600      -0.04130200       0.13381900 
Cs       2.82404678      23.19431953       3.33421307       55      -0.03016100      -0.06362200      -0.06929300 
Cs       2.83555240      23.50530545      15.71012462       55      -0.18397600      -0.11325100       0.20283200 
Cs      15.80215835      10.83098355       2.71218927       55       0.06041000      -0.20244600      -0.07472300 
Cs      16.33305941       9.80851617      17.23806067       55      -0.07315800       0.26389400      -0.15148300 
Cs      15.46792683      22.69109983       3.99786028       55       0.34899900       0.44347200      -0.11256100 
Cs      15.01442860      23.11053467      14.94410992       55      -0.04238900       0.54119700       0.71233100 
Cs       9.31857107       2.77218845       2.79535356       55       0.25818000       0.18334000       0.09627700 
Cs       9.60554916       3.92715234      17.10381861       55       0.69795000       0.06551300      -0.45317700 
Cs       9.07897889      16.41434465       2.72837927       55      -0.39853500      -0.04395700       0.12375600 
Cs       9.45875904      16.63460014      16.82593822       55      -0.18275200       0.13780000      -0.04647900 
Cs      23.01582910       4.17615302       3.97194079       55       0.03432700       0.08037700      -0.17426000 
Cs      23.31442184       3.94999646      17.22086185       55      -0.06253600      -0.12536700      -0.11515900 
Cs      22.46047287      17.61532081       3.15563398       55       0.50725700      -0.04307600       0.23952500 
Cs      22.62838499      15.17557858      15.90424664       55      -0.05092900       0.64508900       0.05749800 
Cs       9.51129807       3.85023763       9.46726470       55       0.24762000      -0.05157500       0.09285700 
Cs       9.13867237       3.73045631      22.77973721       55       0.33576400      -0.06133800      -0.25145500 
Cs       9.00138042      16.25823672       9.21289996       55      -0.75119000      -0.69764100      -0.16538700 
Cs       9.66756802      17.10721394      22.78154493       55      -0.09609400      -0.00046900       0.08958900 
Cs      23.27569750       3.98524190       9.99095016       55      -0.13870600      -0.05838000       0.10522600 
Cs      23.23063086       3.46874452      22.77828002       55      -0.53059400      -0.08412200      -0.43180000 
Cs      22.27400666      17.03169833       9.02420518       55      -0.02533800      -0.00943600      -0.06088800 
Cs      22.59139093      17.17410875      22.77903307       55       0.09847800       0.05815400       0.00200400 
Cs       2.67607054       9.45205397       9.42984062       55       0.23363200       0.08773000       0.17998300 
Cs       3.66799622       9.92177889      22.83583766       55      -0.33663800      -0.05712500      -0.26665300 
Cs       2.09679616      23.38542121       9.68076213       55      -0.15014700       0.02858200      -0.27196800 
Cs       2.93380412      22.72470569      22.08434994       55      -0.13414500      -0.05425400       0.11427100 
Cs      15.47167882      10.91275384       9.21599876       55       0.19052200      -0.15714500       0.33216300 
Cs      16.44304297       9.81042171      22.95230211       55      -0.07572800       0.48025800      -0.11756900 
Cs      15.22978979      22.39517485       9.17863684       55       0.27716200       0.20830500       0.14393000 
Cs      16.44549572      23.03621741      22.22221151       55      -0.10976900      -0.16313400      -0.05672700 
Cs       3.23640869       3.78024707       8.95224386       55       0.05579100      -0.38173500       0.44077800 
Cs       2.60076790       3.11812328      23.28407374       55      -0.13744600       0.37628600       0.07166000 
Cs       2.63381330      16.30067228       9.52989904       55      -0.17861100      -0.07943300       0.07271600 
Cs       2.93240604      17.01115105      22.87354911       55       0.12925000      -0.27023600      -0.11363600 
Cs      17.56380996       3.58477997       9.60671083       55      -0.31595500      -0.15739200       0.01355000 
Cs      16.15818849       3.86285498      22.77657930       55       0.09567000      -0.21975500      -0.06466100 
Cs      16.23773938      16.26385145      10.36610096       55       0.01668900       0.05366100       0.02438300 
Cs      16.18328767      16.67128952      23.01394903       55      -0.07687300      -0.08469100      -0.29003400 
Cs       9.65296156       9.96476166       9.53047376       55       0.10321600      -0.02346100      -0.15782500 
Cs       9.16637614      10.37460254      23.17476070       55       0.66755700      -0.35012200      -0.02545100 
Cs       8.73565171      23.80850818       9.35520135       55      -0.32430600      -0.25272700       0.32180900 
Cs      10.57252750      23.35787539      23.35102052       55      -0.16204200      -0.06039600      -0.15160200 
Cs      23.08691814       9.89010711      10.05852465       55      -0.16658300       0.06176300      -0.15860800 
Cs      22.73729451      10.04502381      23.64244352       55       0.15762000       0.16033300      -0.21542100 
Cs      21.95377122      22.89577163       8.88495979       55       0.07569200       0.19805400       0.25058400 
Cs      21.73083879      23.30151406      22.66255843       55      -0.10824300       0.65031200       0.62693000 
Cs       9.34887127      10.18080967       2.91241820       55       0.06560300       0.06894200       0.07034000 
Cs      10.36658805      10.71629931      16.51232633       55       0.02792800      -0.44435700       0.25215800 
Cs       9.49612708      22.73182244       3.81199019       55      -0.15148600      -0.05963100      -0.07805100 
Cs       9.00780629      23.38620075      16.02058676       55       0.21270800      -0.04127100       0.20266500 
Cs      21.88544674      11.01801633       3.31621026       55       0.15941700      -0.54269300      -0.46527900 
Cs      21.85659761       9.65517586      16.34372638       55       0.22449700       0.15974100       0.08918600 
Cs      22.07016331      23.37855208       3.12381444       55       0.08418900       0.12242800       0.00822800 
Cs      22.70035038      23.26892110      15.17090948       55      -0.15602800       0.11020900       0.17523600 
Cs       3.70282387       3.23099980       3.05531571       55      -0.45204800      -0.10118100      -0.35742900 
Cs       3.63157994       3.12034675      16.80030814       55      -0.29557400       0.21238700      -0.36631600 
Cs       2.94238315      16.97396236       3.20107154       55      -0.13823200       0.00065100       0.17379800 
Cs       2.04476358      16.69382487      16.58501623       55       0.38481400       0.01605100      -0.10905300 
Cs      15.62067000       2.82140857       3.96731042       55       0.51368700       0.19917500       0.12910100 
Cs      16.20647927       4.34746659      16.96904871       55      -0.10340800       0.06577100      -0.01588900 
Cs      15.28053333      16.01992543       2.93076034       55       0.07517900       0.39901000      -0.00924000 
Cs      15.84232255      16.43723360      16.21813570       55       0.33216600       0.07236900       0.08588900 
Pb      -0.41040338       0.07095657       6.61011341       82       0.44822300      -0.14535000       0.16131300 
Pb       0.31340402      -0.12548267      20.30442446       82      -0.62823700      -0.59361800      -0.28116600 
Pb      -0.33560209      13.07925727       5.80801768       82       0.14194100      -0.26083800       0.13431500 
Pb       0.10415687      12.88591276      19.63926403       82       0.22538400      -0.21951100      -0.29258600 
Pb      12.80317136       0.59485399       7.12447393       82       1.39306900      -0.09511100      -0.74865400 
Pb      13.32109127       0.32354009      19.57672649       82       0.11944400       0.09391600       0.87029900 
Pb      12.67644652      13.86342865       6.27295530       82      -0.41255400      -0.32618000      -0.08902500 
Pb      13.19135221      14.07011911      19.48968794       82      -0.12617700      -1.21663700       1.26412000 
Pb       6.85524798       6.56556850       6.19522946       82       0.10915500       0.00021500      -0.35551400 
Pb       6.27090607       6.54136808      19.51396071       82       0.00854400       1.06327500      -0.07936500 
Pb       5.59212864      19.54095830       7.03368339       82       0.20776200      -0.00909300      -0.73097000 
Pb       6.16855387      20.03637037      19.95159197       82      -0.27520300      -0.49725100      -0.49213300 
Pb      19.23603447       6.90717967       6.71326350       82       0.01251700       0.07611500      -0.49809700 
Pb      19.25547000       6.87170801      20.23271892       82       0.44037900       0.24932900      -0.57641200 
Pb      19.02572347      19.69779482       6.51201658       82       0.09771500       0.11964100      -0.27427300 
Pb      19.66897116      19.68392103      19.19622998       82      -0.58418200      -0.42626100       0.38208500 
Pb       0.31655581       6.40822655       5.90693685       82      -0.80102900       0.38041400       0.01124400 
Pb      -0.22462500       6.25979583      19.76439513       82      -0.16140600       0.52115900       0.20548200 
Pb      -0.39459958      19.55401994       6.39202840       82      -0.09094900       0.27484900      -0.25444100 
Pb      -0.67309749      19.14532239      19.47049187       82       0.24306100       0.32227800      -0.04346100 
Pb      13.30155282       7.06780079       6.18447892       82      -0.45661400      -0.18534700       0.56443000 
Pb      12.39654443       7.27475313      20.04847822       82       0.22573500       0.16182900      -0.31833900 
Pb      12.23114824      19.64019846       7.34584727       82      -0.47142800       0.44226400      -1.05005500 
Pb      12.59823563      19.90719380      19.41724463       82       0.08551900       0.99923200      -0.05911900 
Pb       6.69117345       0.17104862       6.26706849       82      -0.19909200      -0.58779800      -0.13436800 
Pb       6.66121462       0.18646111      19.66497563       82      -0.04190300       0.15482400       0.46936900 
Pb       5.90574767      13.03107960       6.18286991       82       0.15311600       0.11855200       0.37238500 
Pb       6.66042692      13.12941284      19.04804688       82      -0.57911100       0.46616200       0.17279500 
Pb      19.55137052       0.54015263       6.68647786       82      -1.00256100      -0.42704100       0.16378200 
Pb      19.81708090       0.16998274      19.56760230       82       0.14416400       0.49129800       0.06441900 
Pb      19.13076892      13.32749676       6.10355238       82       0.32162700       0.09765900       0.15033100 
Pb      20.19132376      13.38739608      19.78227566       82      -0.56390200      -0.24667200      -0.66212500 
Pb      -0.04668992      -0.23865164       0.22160670       82      -0.03741700       0.15182100       0.71089700 
Pb       0.08085420       0.18415000      13.18650173       82       0.02788800      -0.13222700      -0.06427900 
Pb      -0.16540536      12.88499158      -0.26494204       82      -0.11896000       0.04339900       0.38652000 
Pb      -0.77475677      13.09973220      12.64442012       82       1.45482900       0.12701100      -0.39627000 
Pb      13.52150260       1.13698859       0.02750914       82      -0.35176200      -0.07542600       0.50944900 
Pb      13.25499129       0.04595929      13.03541853       82      -0.02898500       0.33826900      -0.18210700 
Pb      12.82468873      13.53508598      -0.20580902       82      -0.26162200       0.81307100      -0.45901600 
Pb      12.31748063      13.46694391      13.44582904       82       0.13775800      -0.28204100      -0.38438500 
Pb       6.49662650       6.74208002      -0.06481807       82      -0.00057300      -0.03322900      -0.00737900 
Pb       6.41882627       6.95809236      13.02161200       82       0.02702700       0.09594800       0.27499100 
Pb       5.62401441      19.81538017       0.35693909       82       0.26805900      -0.23529100       0.11615000 
Pb       5.76789730      19.69298408      12.98326673       82       0.39386200       1.04361900       0.08419200 
Pb      19.18171625       7.01774814       0.12029592       82       0.39549000      -0.17330200       0.52537600 
Pb      19.18875454       7.05069470      13.06257917       82      -0.03149700      -0.18960700       0.04761200 
Pb      18.96430583      19.56994194       0.06803406       82       0.83976900       0.79165900      -0.78731200 
Pb      19.10245884      19.84335092      13.28855639       82      -0.08991800       0.19926400       0.19371800 
Pb      -0.60874816       6.39620430       0.09421135       82      -0.05346800       0.63092700      -0.31618300 
Pb      -0.20256042       6.92967427      13.28067742       82       0.43216500      -0.25690500       0.00819500 
Pb      -0.78045812      19.47569390      -0.22207340       82       1.10110000       0.38017800       0.51213500 
Pb      -0.60264023      19.35577298      12.85145908       82       0.21769900       0.23505100      -1.11266400 
Pb      13.10407317       7.06710481       0.26935537       82      -0.36706300       0.49586900      -0.31820900 
Pb      12.82290445       7.04189557      12.70917094       82      -0.00434300       0.04287100       0.51783500 
Pb      12.61641983      20.27118442       0.67153637       82      -0.37290500      -1.77875500      -1.26635100 
Pb      12.00859489      19.72512563      12.77195813       82      -0.29688100       0.18163900       0.86619600 
Pb       6.43579479      -0.06738495      -0.30594080       82      -0.24766300       0.72997100       0.09908300 
Pb       6.62231195       0.36338330      12.67230426       82      -0.37924700       0.05951800       0.06215600 
Pb       5.82169990      13.04994551      -0.32423403       82       0.65211000       1.00343300       0.05015800 
Pb       5.90899219      13.13928091      13.07915639       82      -0.39489200      -0.33175900      -0.61934200 
Pb      19.58137928       0.46742094      -0.01354975       82      -0.01501500      -0.22231800       0.31086300 
Pb      19.32105742       0.06221858      13.40866685       82       0.44192700       0.13184100      -0.10392300 
Pb      19.59692017      13.74361167      -0.10966868       82      -0.65793900       0.03947800      -0.08742000 
Pb      19.01175186      13.33457071      13.18127219       82       0.67944900       0.00438700       0.06102800 
I      13.18618075       3.77485550       7.08745134       53      -0.20458600      -0.18523000      -0.09500000 
I      13.25802284       4.12538911      19.99565489       53      -0.04316200      -0.66956500      -0.40038600 
I      11.89905868      16.84733739       5.56474178       53       0.13473600       0.14640100       0.16576400 
I      12.99832971      16.97760328      18.97933110       53      -0.22942300      -0.12458900      -0.38347500 
I      25.87559924       4.20317711       7.10325105       53       0.05842600      -0.17078800      -0.08148400 
I      26.50609099       3.98622728      20.07381585       53      -0.10330500       0.33097500      -0.04699300 
I      25.18296431      17.03455665       6.20720382       53       0.11320200       0.14425700      -0.09468100 
I      25.24295840      16.84668319      19.44571979       53      -0.18587200       0.43182200       0.00109200 
I       6.48915310       9.64104019       6.18434034       53       0.20375600       0.22370200      -0.03862300 
I       6.47753437      10.37740481      17.86694952       53       0.14540700      -0.09869700       0.20773000 
I       5.99498728      22.72939924       6.47938693       53      -0.01321200       0.53012000      -0.09268200 
I       6.43489297      23.40057487      20.57849681       53       0.04782200      -0.36955900       0.03856100 
I      20.15664488       9.96984447       6.58149967       53      -0.48861700       0.62819300       0.04533500 
I      19.79208973       9.96274504      19.78172438       53      -0.01423100       0.73661200       0.07141600 
I      18.58113850      22.67826746       6.83970709       53      -0.23432200       0.77314100      -0.30911300 
I      19.39029289      23.23796262      19.50684905       53      -0.15114200      -0.24099200       0.20945600 
I       0.18360585       9.64279288       5.63931583       53      -0.05249100      -0.01643200      -0.00709600 
I       0.15625976       9.81065201      19.98466387       53       0.12328800      -0.10065500      -0.08516300 
I      -0.68869238      22.90091049       6.73225169       53      -0.13333200      -0.60440100       0.12067300 
I       0.15732972      22.90279667      19.76720148       53      -0.36751500      -0.09978200      -0.23643700 
I      12.64752402      10.09312200       6.85510735       53      -0.06076700       0.33604100      -0.07704100 
I      12.99437799      10.36661760      19.99458391       53       0.08756400       0.21046000       0.15688000 
I      11.43595425      23.11080572       7.12802721       53       0.83700100      -0.30469700      -0.09641000 
I      13.18406936      23.18504045      19.79557474       53      -0.12769600       0.22626200      -0.01977400 
I       6.41449447       3.16493956       5.35953296       53       0.30076000       0.07241200       0.42459300 
I       6.62897423       3.63883426      19.00857051       53      -0.15756500      -0.59735400       0.47777200 
I       5.17023900      16.15433155       6.56103901       53       0.11919000      -0.12107600       0.06249500 
I       6.20562639      16.76692544      19.60048568       53      -0.01526100       0.18402900       0.00323200 
I      20.23864954       3.74705391       6.72003990       53      -0.30113900       0.13571900       0.03696700 
I      19.41677691       3.88242808      20.22033186       53      -0.12623200      -0.92509400      -0.25149100 
I      18.70694419      16.55410463       5.90946704       53       0.11506400      -0.36087100       0.12543900 
I      20.51152354      16.54603205      18.90739220       53       0.01856500       0.26572400       0.03693400 
I       3.43878671       6.46353830       6.53191475       53       0.18256600       0.20821900      -0.11464300 
I       3.13748443       6.96247614      19.28601680       53       0.13821100      -0.15706200       0.06756800 
I       2.68610063      20.07669251       5.67687443       53      -0.22186700      -0.11365300       0.21224000 
I       2.64383117      19.77675570      19.08103420       53       0.12826800      -0.11038900       0.07925600 
I      16.16012460       6.61161543       7.63902093       53       0.34467400       0.26591900       0.06810500 
I      16.24865295       7.30577581      20.06172838       53      -0.57277200      -0.22716200       0.08736700 
I      15.27731530      19.58101652       6.29639757       53       0.35926700      -0.15174800       0.41604400 
I      16.24688191      19.12266169      19.07564976       53       0.08948600       0.21251500       0.23502500 
I       9.61190166      13.38727278       5.93328839       53      -0.16891700      -0.09377700       0.11525600 
I       9.70844042      13.47195844      19.65739421       53       0.14179100       0.02681100      -0.22031200 
I       9.36190133      26.38004685       6.04484020       53      -1.66676800       0.12682300      -0.16784400 
I       9.48797196      26.28490311      20.29599115       53      -0.24945000       0.07959900      -0.14174300 
I      22.42979972      13.60894673       5.66352848       53       0.16992700       0.49501100       0.25590900 
I      22.94253798      12.77465340      18.60964320       53       0.34054900      -0.14513000       0.30627300 
I      21.76802545      26.79410133       6.12792704       53       1.14396700      -0.35759100      -0.28880500 
I      22.55429191      26.69421512      19.77160258       53      -0.32166800       0.06019400      -0.03456700 
I      10.01853470       6.67004330       5.03921395       53      -0.45583200      -0.17105100       0.34294100 
I       9.38093945       7.88652571      19.53617610       53      -0.00664000      -0.06894300       0.10862800 
I       8.71571991      19.80528384       7.48215791       53       0.53748900      -0.10656600      -0.00639900 
I       9.24745757      19.80688878      19.67607568       53       0.64610800      -0.00822000       0.14959400 
I      22.99857424       7.48553898       6.24271726       53       0.41662400      -0.27292700      -0.10986000 
I      22.65535507       6.60746908      20.15734087       53       0.86803900       0.00285400      -0.59026200 
I      22.28520658      20.26635840       5.90993579       53      -0.19338000      -0.02341200       0.37163600 
I      22.43700308      20.83826943      20.38706702       53       0.53841700      -0.60000500      -0.59999400 
I       2.93803504      -0.21749092       6.55046477       53       0.54887900       0.30453400       0.07977600 
I       3.24993602       0.37079250      19.43808640       53       1.02114600      -0.12414500      -0.27988300 
I       3.06436960      12.17838911       6.94558200       53      -0.00816100       0.32844800      -0.10350200 
I       3.21821838      13.31314403      20.21063192       53      -0.11042100      -0.02236700      -0.02646400 
I      16.19656331       0.70991220       7.04092955       53       0.04416500      -0.23077600       0.11899400 
I      16.68352984       0.29549903      20.31469097       53      -0.32931200       0.19547000      -0.24797400 
I      16.02653267      13.23673780       6.03163386       53      -0.56856900      -0.09429700       0.23683700 
I      16.16986938      13.49921181      20.28809690       53       0.19980900       0.09199000      -0.04527200 
I      -0.08868018       9.84836141       0.52760456       53       0.05815600       0.09360500       0.00371900 
I       0.68335992       9.84747691      13.61023475       53      -0.31103200       0.14579700      -0.47713400 
I       0.21744201      22.98973740      -0.20883139       53       0.04748600      -0.39529400       0.07205700 
I      -0.16563361      22.70968755      12.82950456       53       0.06058500      -0.35215300       0.07058000 
I      13.07550223      10.54336961      -0.61562850       53      -0.03736700      -0.71230200      -0.04579900 
I      13.55173657      10.33292818      12.82975320       53       0.07428200      -0.09260900       0.15799900 
I      12.73563967      23.09607087       0.53079814       53       0.05473100       1.72341200      -0.26241400 
I      12.33026408      22.61509712      11.86753873       53       0.23287700       0.79738700      -0.20255300 
I       6.96648797       3.71234650      -0.31113978       53      -0.28838300      -0.17330100       0.42136100 
I       6.71712554       3.81606825      12.31272084       53       0.03825700      -0.10498500       0.32159500 
I       4.96714055      16.68954402       0.10811266       53       0.70309500      -0.00414600       0.13169300 
I       7.78713270      17.54577149      13.01147694       53       0.27466200      -0.83394400      -0.11111700 
I      19.10003462       3.76049360       0.29868037       53       0.04402100      -0.11540300       0.02818700 
I      19.36959175       3.16915825      12.75090135       53       0.19007300       0.11753500       0.34115800 
I      19.81648070      16.74222469       0.99822825       53      -0.14093400      -0.22415900      -0.35213700 
I      19.32408388      16.52003920      13.18159012       53       0.05880800       0.00119000      -0.00224900 
I      12.40138981       3.57326721      13.16004625       53      -0.02728300      -0.31036100       0.15677200 
I      13.71334816       4.09710756      27.23992950       53      -0.17219600      -0.54460700      -0.10491600 
I      13.04983750      16.63004619      13.63223207       53      -0.16845800      -0.11065700      -0.02031800 
I      11.96488556      16.68257808      26.53059813       53       0.58245900      -0.11497500      -0.17592100 
I      25.08420615       3.85048423      13.54316264       53      -0.04009700       0.21937000       0.05146700 
I      24.87895351       4.20482689      25.81552159       53       0.31874900      -0.57192800       0.23815200 
I      24.21696525      16.73575807      12.28109899       53      -0.06366200       0.31114500       0.45253900 
I      25.52126983      17.15888885      26.23116471       53      -0.04855700      -0.37229800       0.07326800 
I       4.90966137      10.01375352      12.87914349       53       0.24351800       0.20295900       0.11319600 
I       5.86434028       9.99020017      25.90130371       53       0.10020200      -0.62208500       0.27448900 
I       4.67645225      23.49413202      12.36520586       53       0.33139100       0.18120200       0.31487000 
I       4.96754917      23.07967503      25.12479323       53       0.21945200      -0.55285400       0.21015100 
I      18.95011920      10.16584452      12.59532025       53      -0.01135200      -0.54167400       0.05452700 
I      19.70409636      10.46212920      25.85386992       53      -0.31931500      -0.57070500       0.10170800 
I      18.95823560      22.76245177      12.58847557       53      -0.18575800       0.34141100      -0.05505300 
I      18.45858548      22.74416058      25.35386416       53       0.23248600       0.30987100       0.13156700 
I       9.91303580       8.41800556      12.90920422       53      -0.65318400      -0.27045200       0.30023900 
I       9.83227841       7.13610081      26.25745715       53       0.39492600       0.03677600       0.02961700 
I       8.73195576      21.54613547      12.74752843       53      -0.12465000      -0.53758300      -0.14168800 
I       9.43708169      19.84148919      25.94002194       53       0.15207400       0.28263900       0.16707200 
I      22.56103468       7.19553954      13.28562165       53      -0.09246700       0.10427400      -0.05976800 
I      22.61572789       7.36890538      27.36135040       53      -0.07682100       0.10393000      -0.03659600 
I      22.38350517      20.55646179      12.30400119       53      -0.14701200      -0.08714700       0.06315300 
I      22.60578645      20.39127858      25.27306193       53      -1.36875500       0.11550200      -0.04809400 
I       2.99353836       1.30525837      12.33018052       53      -0.01158900      -0.16342400       0.23595800 
I       3.00815603       0.52702271      26.02498070       53       0.43400800       0.21996200       0.16435200 
I       2.75129370      14.04985818      12.77820974       53       0.27824700      -0.02047300      -0.12768100 
I       2.90326344      13.64495744      25.37827551       53      -0.33093800      -0.22293900      -0.35418400 
I      16.29836932      -0.54534855      11.87604744       53      -0.47761400       0.17953500       0.31711500 
I      16.35414574      -0.11562275      25.57660501       53       0.04238000       0.04150200      -0.08464400 
I      16.10508595      13.60283574      13.42365645       53      -0.61783400       0.04723100      -0.12534500 
I      16.34888766      13.27841828      25.43927740       53      -0.40132600       0.17685800      -0.08321400 
I       3.43443860       6.47857682      -0.02072356       53      -0.63647600      -0.11672200      -0.60170900 
I       3.00460580       6.22765938      13.63572320       53       0.30153100      -0.14530400      -0.00262000 
I       2.54420277      19.72873801       0.47838037       53       0.17781900       0.31747400      -0.09469700 
I       2.77926343      18.73152164      12.79202341       53      -0.42528600      -0.25630800       0.24003300 
I      16.30942556       6.96173634      -0.81358708       53      -0.13738900       0.10257100      -0.01039600 
I      15.92462068       5.96803452      12.96335430       53       0.52878700       0.13205800       0.03926400 
I      16.15414201      18.86295531       0.22063966       53      -1.23173400      -0.12125700       0.21372000 
I      15.64610953      20.38579835      13.10542845       53       0.06384200      -1.20875600      -0.69272500 
I       9.31899804      13.38818581      -0.21699568       53       0.12431000      -0.07603100       0.24279300 
I       9.18006549      12.90902488      13.72512789       53       0.32371700       0.22842200      -0.03610400 
I       8.78311505      26.55744083      -0.36545086       53       0.38539400      -0.30552100      -0.29042100 
I       8.89074980      25.62171241      12.81494090       53       0.30653200       0.23439500       0.03849100 
I      22.58615934      13.53215837       0.07732028       53       0.67564700      -0.03727500       0.46453300 
I      22.94151693      12.41652615      13.55248146       53      -1.03133800      -0.61843300      -0.10611000 
I      22.06906992      26.36056342       0.18730485       53      -0.44607500      -0.09190200       0.22729000 
I      21.50795630      25.68198877      12.30442510       53       0.85523800       0.27650000       0.73889200 
I      12.31826424      13.39746082      10.21214620       53       0.02081700       0.23711600      -0.24512700 
I      12.48782205      14.57643660      22.77463096       53       0.20692400      -0.13725700       0.12691100 
I      12.09944861      26.80336615      10.03113168       53      -0.29880500       0.11395700       0.34443000 