320
Lattice="26.0120860545 1.02110009577 0.0806686628049 -0.47720502465 25.7436027804 -0.0406729207581 0.0347692084323 -0.0547248813757 25.5175506804" Properties=species:S:1:pos:R:3:Z:I:1:forces:R:3 energy=-101581.071812 stress="23.563356 -570.608474 -224.565661 -570.608474 1573.33865 -402.439002 -224.565661 -402.439002 2304.508094" pbc="T T T"
Cs       3.06356051       8.82050892       3.43812172       55       0.14320200       0.08605800       0.00401800 
Cs       3.29510238      10.71399001      16.32835513       55       0.22723800      -0.15921400      -0.10672800 
Cs       2.36089114      23.30322653       2.52836728       55       0.13990300      -0.11513300       0.17436900 
Cs       2.71826970      22.90659271      16.09562468       55       0.34152100      -0.07196100      -0.11420900 
Cs      16.48327433      10.20522886       3.54306633       55      -0.47032700       0.38102000      -0.08185000 
Cs      17.20361163       9.65974735      16.24528218       55      -0.80149400       0.36225900       0.02731900 
Cs      15.32752016      22.56809579       3.19688534       55       0.05419200       0.20909300       0.27041100 
Cs      15.61568582      23.33995594      15.98338482       55       0.11327300       0.01937500      -0.29095700 
Cs       9.61429499       3.48628882       3.04458644       55       0.13007000       0.03664800       0.19628600 
Cs       9.24595498       3.06301093      15.40917746       55       0.71170100       0.12168800       1.00662200 
Cs       9.42763480      15.90883990       3.23558400       55       0.18081500       0.10788900      -0.02261700 
Cs       9.22238334      17.49559220      16.38252742       55      -0.14800500      -0.08971100       0.06432200 
Cs      22.70524357       3.79509738       2.97503296       55       0.24478700       0.18674500       0.21884600 
Cs      22.49175946       4.43644791      16.66861734       55       0.05087400       0.08195100      -0.09545900 
Cs      23.61668894      16.78779979       3.39328927       55      -0.39393500       0.19884500      -0.14592400 
Cs      21.90451692      16.25826814      15.21511653       55       0.10993700       0.02263000       0.06652600 
Cs       9.80233064       3.02086509       9.49783130       55      -0.29112300       0.46310400      -0.28608900 
Cs       9.97701562       3.61994219      21.53055954       55      -0.33218300       0.03262900       0.19296500 
Cs       8.77687007      16.11238737       9.52557051       55       0.19154300      -0.12909600       0.12941100 
Cs       9.95623909      17.23599464      22.26824025       55      -0.07071100      -0.08434000       0.03406300 
Cs      22.87730021       4.16914618      10.39122494       55       0.06801300       0.03781200      -0.21822200 
Cs      22.49623045       3.67412955      22.07433304       55       0.22944800       0.12265300       0.24689500 
Cs      22.88140448      16.80595903       8.65364163       55      -0.18322600      -0.17908700      -0.03942000 
Cs      23.26849751      16.89804026      21.79865098       55      -0.32654900       0.09559500       0.47983300 
Cs       3.35773739       9.88249192      10.22452142       55       0.46108200       0.19229800      -0.27907400 
Cs       2.58097021       8.91510897      22.58264810       55       0.12803200       0.27448300       0.00302300 
Cs       2.17158151      23.94492469       9.53693586       55      -0.03334900      -0.31408200       0.07488900 
Cs       2.31244172      22.42825035      22.41014436       55       0.24658900      -0.12067500      -0.26212900 
Cs      15.79247669      10.20888904       9.77085690       55      -0.05613300      -0.04758100      -0.12475200 
Cs      16.18521924      10.98811979      22.77655129       55       0.02235300      -0.20812900      -0.14842500 
Cs      15.84937477      22.39996357       9.97181822       55      -0.61062700       0.09112100      -0.70388100 
Cs      16.91859977      21.97856952      22.14080808       55      -0.18926800       0.05470300       0.09932300 
Cs       3.96613825       3.92768475      10.38469227       55      -0.03227100      -0.15070000      -0.32880700 
Cs       2.75712006       3.51550395      22.21782862       55       0.27419800      -0.01763100       0.21239700 
Cs       2.60182108      16.02242005       9.14438722       55       0.11454000       0.05966600       0.20421900 
Cs       3.54226758      16.14306236      21.82758077       55      -0.12609100       0.04156100       0.19619400 
Cs      16.51059658       3.22195000      10.40265158       55       0.05352700      -0.03159700      -0.68616600 
Cs      15.45859845       4.46757603      22.41923905       55       0.08729900       0.05482400      -0.20835800 
Cs      16.16202738      16.61235524       9.63184537       55      -0.06612700       0.05089400       0.10354200 
Cs      15.89846119      16.93934917      22.54888059       55       0.17732500      -0.34901700      -0.00928500 
Cs       9.57630868      10.48136506       9.21970074       55      -0.22943700      -0.34805400       0.12548400 
Cs      10.33947100      10.29337362      22.32783499       55      -0.30797300      -0.21273400      -0.30261600 
Cs       9.54394577      23.09374622       9.34020138       55       0.06549800      -0.09368500       0.04403000 
Cs       9.25674664      22.70405499      22.73489576       55       0.30172500       0.52520000       0.41864700 
Cs      22.72552577      10.35244691       9.67198780       55      -0.01141400      -0.05866800      -0.06771200 
Cs      22.17713761      10.78078857      22.66745217       55       0.16669900      -0.19636500      -0.05093000 
Cs      21.98262556      23.48850122       9.38912101       55       0.05146600      -0.02521200      -0.09317000 
Cs      21.89301794      22.66159468      22.41471381       55       0.06829000      -0.04505900       0.07350700 
Cs       9.52624367       9.62546141       2.74907530       55      -0.08223700       0.10631700      -0.13476300 
Cs      10.97333740       9.83218578      16.92382831       55      -0.25850600       0.25312100      -0.53956300 
Cs       9.32698032      23.74171683       2.94333516       55      -0.10353200      -0.36108100       0.46355500 
Cs       9.80135707      23.73698763      15.65566147       55      -0.46226900      -0.29136100       0.05529500 
Cs      21.95160093       9.70274920       3.89354851       55      -0.17625900       0.25214300      -0.15017000 
Cs      23.01774346      10.46724779      16.28311979       55      -0.15270400       0.17686300      -0.12587800 
Cs      21.66142282      22.93943085       2.33523270       55       0.21253300      -0.04533500       0.20229400 
Cs      22.79270311      23.51960824      15.69727882       55      -0.02066200       0.01908500       0.09886400 
Cs       3.63650996       3.50929179       3.28122021       55       0.03795600      -0.14937100      -0.06864500 
Cs       3.63660943       2.97078301      15.99202638       55      -0.02061400       0.30853800       0.05857500 
Cs       3.35415256      16.24730668       3.29511845       55       0.16232200       0.07911500      -0.14958400 
Cs       2.25855075      16.06914940      16.31171904       55      -0.48696700       0.49126500      -0.35131200 
Cs      17.04065570       3.41291540       3.46976023       55      -0.66420600       0.32570800       0.03052100 
Cs      15.50375039       3.91490878      15.02902802       55       0.01448800       1.00550200       1.00869700 
Cs      15.93931395      17.07749262       3.96046663       55      -0.10558200      -0.02842400      -0.10864300 
Cs      15.35978260      16.48582128      15.51633949       55       0.30702100      -0.06148200      -0.07042400 
Pb      -0.22219299      -0.15834026       6.15948092       82      -0.01380600       0.22170800       0.33214600 
Pb      -0.23139518      -0.09189335      19.07564002       82       0.72081800       0.64713300       0.49097400 
Pb       0.00700589      12.58699198       5.75456522       82      -0.70937700      -0.47214300       0.78151700 
Pb      -0.45657519      13.20350090      18.86547148       82       1.03593900      -0.20335100      -0.31564200 
Pb      13.04649290       0.66341912       6.28922896       82       0.48248200      -0.40244500      -0.22046100 
Pb      13.18230642       0.25910626      19.53710416       82      -1.07371100       0.57972100      -0.59834300 
Pb      12.58929178      13.19341958       5.98134474       82       0.17582400       0.30642300       0.45224100 
Pb      13.24597327      12.97496012      18.96303143       82      -0.11103200      -0.13555600       0.29060300 
Pb       6.15486224       6.67800891       6.57762069       82       0.22494300      -0.14492600      -0.04648400 
Pb       6.75095734       7.12647504      18.92983360       82      -0.35038900      -0.27806900      -0.27757600 
Pb       6.05097257      19.68633365       6.86540456       82      -0.23493900       0.39303200       0.25543000 
Pb       6.52687549      19.82241241      19.23100431       82      -0.14558100      -0.04163200       0.40298900 
Pb      18.94980334       6.77794200       6.68281246       82       0.09448300       0.07142300       0.32102700 
Pb      19.39271539       6.98960858      19.59964573       82      -0.14676000       0.14261700      -0.15611400 
Pb      19.08844915      19.48537836       6.52065328       82      -0.08855800       0.54174900      -0.54361300 
Pb      19.42268708      19.74855070      18.63203371       82      -0.31540900      -0.33059000       0.75907600 
Pb      -0.38662886       6.39986429       6.43199612       82      -0.10773200      -0.10178400       0.28848000 
Pb       0.10551529       7.08055649      19.10976019       82       0.22605600      -0.34927000       0.38791900 
Pb      -0.10627285      19.17205962       6.33091564       82      -0.23051700       0.35009100      -0.52904600 
Pb      -0.22064572      19.59751774      19.12178664       82       0.03021100      -0.26954000      -0.10733700 
Pb      12.32961685       6.87747120       6.26478321       82      -0.16662400      -0.07166700       0.16741000 
Pb      13.14116429       6.47819196      18.75948297       82      -0.27442100       0.27844900       0.48618700 
Pb      12.15055834      19.64111138       6.42610748       82       0.02671500       0.37782700      -0.61322900 
Pb      12.84216879      19.66785290      18.65142675       82       0.14456500       0.77747500       0.10211400 
Pb       6.05853608       0.13071257       6.62634038       82       0.03444900       0.50206700      -0.05576200 
Pb       6.68540764      -0.06058338      19.56429379       82      -0.23888500       0.60542700      -0.37004400 
Pb       6.06057866      12.96773722       6.25050318       82       0.25939100      -0.05456600       0.28120700 
Pb       6.60511274      13.74299833      19.01006320       82       0.01779800      -0.45499000      -0.22161100 
Pb      19.81960825       0.07927512       5.93400753       82      -1.11156900       0.52217400       0.56978000 
Pb      18.89047686       1.00783885      19.33903441       82       0.60785600      -0.89059900      -0.43880500 
Pb      19.08804525      13.68596763       6.37769523       82       0.07571300      -1.05580200      -0.00484500 
Pb      19.47482381      13.38083834      18.80102597       82      -0.39409400       0.47811000       0.20720300 
Pb      -0.00639200      -0.28324657      -0.37421458       82      -0.43659900       0.75302600       0.27080900 
Pb      -0.08468451       0.53336765      13.13364198       82       0.13035600      -0.26931300      -0.43999900 
Pb      -0.48207790      12.59838245       0.10643260       82       0.24443200       0.14036200       0.33432700 
Pb      -0.07596257      12.97816014      12.34451679       82      -0.11585800      -0.03815700      -0.12329800 
Pb      13.48128283       0.09557363      -0.08234654       82       0.00299600       0.03419500      -0.19277800 
Pb      12.71841489       0.83276404      12.56620943       82       0.59567700      -0.35822600       0.23067600 
Pb      12.78607850      13.17606411      -0.43713393       82       0.18792300       1.10900200      -0.01347400 
Pb      12.38834552      13.35119318      12.90156159       82       0.00836600       0.06755100       0.00339900 
Pb       6.12406668       6.70182872      -0.26476683       82       0.18950200       0.24976600       0.52147700 
Pb       7.09867856       6.84466320      12.80198517       82      -0.18524000       0.49220500       0.22466500 
Pb       6.94143244      19.54026299       0.19496417       82      -0.66862500      -0.01495100      -0.33800200 
Pb       6.31148342      19.73219995      13.13212788       82      -0.57611400       0.56234300      -0.36305000 
Pb      18.68032741       7.01905380       0.23942186       82       0.44166000      -0.45323100       0.40168700 
Pb      19.71922806       6.77801836      12.96886150       82      -0.05787500       0.83365200      -0.86150500 
Pb      19.21998961      19.43350386      -0.27375703       82       0.53672400       0.09242900      -0.30788900 
Pb      18.99102584      20.24309612      12.65272051       82       0.17428500      -0.36517600       0.12338600 
Pb       0.06094407       6.60331932       0.53177518       82      -1.37274300      -0.48008100      -0.43145900 
Pb       0.09715204       6.70663629      12.83580994       82       0.29090900      -0.13553500       0.17458700 
Pb       0.50496835      19.16615792       0.19113319       82      -0.44555400       0.05623800      -0.08261500 
Pb      -0.17735652      19.08181903      12.27501756       82       0.49895500       0.26359300       0.33896100 
Pb      12.82374531       6.84841280       0.04053728       82      -1.08538200      -0.30584300      -0.50984700 
Pb      13.06909098       6.96569533      12.41091245       82      -0.02050700       0.35465700      -0.02060300 
Pb      12.88862587      19.86799036      -0.25561286       82       0.79595600      -0.21306000      -0.17590400 
Pb      12.59420182      19.54646108      12.27760771       82      -0.22221500       0.21735400       0.83093100 
Pb       6.52472137       0.44106337       0.00813921       82      -0.12496500      -0.46873200      -0.16374700 
Pb       6.39046517       0.23663076      12.89980836       82       0.02623900       0.08539100       0.42845300 
Pb       6.53668754      12.98369713      -0.05020165       82      -0.83068700       0.24469500      -0.82846600 
Pb       6.36100488      13.83163038      13.13308939       82       0.14392300      -0.48891000       0.17136800 
Pb      19.16682103       0.83774241      -0.39668205       82       0.24642400       0.06048600       0.95682400 
Pb      19.76774480       0.80912106      12.90519866       82      -1.07225200      -0.70627800      -0.29677500 
Pb      19.40020354      13.37463723      -0.07284494       82       0.43830000       0.26477700       0.34842600 
Pb      18.88175391      12.97236996      12.25517441       82      -0.14462500       0.44094300       0.74320200 
I      12.44548775       3.78006281       5.75738847       53      -0.05751900       0.06901000      -0.07191600 
I      12.99993033       3.54584839      19.36198112       53      -0.15090500       0.20046300      -0.30784000 
I      12.50988906      16.43156661       6.32270811       53      -0.03714600       0.07472700      -0.05609800 
I      12.63586539      16.81526571      18.15669545       53      -0.12908800      -0.38338200       0.09626200 
I      25.78340964       4.35439776       7.13475189       53      -0.10352700      -0.24097000      -0.03741100 
I      26.48465934       4.59091800      19.53127078       53      -0.39401300       0.06430300      -0.33014800 
I      26.39270771      17.03681266       5.83391067       53      -0.05845400      -0.08628300       0.33802600 
I      25.46468553      17.26937633      18.90721844       53       0.01741200       0.38298100      -0.16165100 
I       6.64761424       9.97039856       6.41258500       53      -0.25762100       0.42904900      -0.01276500 
I       7.42170386      10.67493871      18.17970948       53      -0.35708500      -0.30888700       0.10834700 
I       6.38388629      23.08617166       5.92562418       53       0.03988200      -0.88323800       0.23912900 
I       6.66567602      22.80976118      20.17258815       53      -0.67823200       0.28565300       0.04594800 
I      18.40308401      10.19251920       6.70213617       53       0.30496200      -0.06496800       0.30560200 
I      18.98920228      10.51054403      19.93936037       53       0.12741500      -0.54203700      -0.02631100 
I      18.63011772      22.79010491       6.15386857       53       0.04617200      -0.48846500       0.08590000 
I      19.20276676      23.51307155      19.71569045       53       0.04030900      -0.33599300      -0.42003500 
I      -0.57448366       9.23992468       4.77088679       53       0.30787700       0.54497500       0.29705100 
I       0.76550130      10.36753775      19.23317249       53      -0.23976900      -0.67234800       0.01454100 
I      -0.40551953      22.52641313       6.63784538       53       0.12057900       0.10287000      -0.10527300 
I       0.12263164      22.77828744      18.60618036       53      -0.14508900      -0.31489000       0.16560300 
I      12.48717343      10.01511446       6.46167543       53       0.14898500       0.40724800       0.02544700 
I      13.38882081       9.61459942      19.82859343       53       0.01763400       0.96711000      -0.03115300 
I      13.25503883      23.04121664       6.91413631       53      -0.36087200      -0.12684600      -0.10866000 
I      13.84079439      23.45366771      19.22296256       53       0.39623300      -1.66834200       0.16236200 
I       6.54398078       3.65473752       7.11454604       53      -0.03636800      -0.35376800      -0.13604800 
I       6.73744189       3.88010742      19.25035012       53       0.04029100       0.19418400      -0.10634200 
I       5.98695306      16.64343915       6.99312508       53      -0.35373300      -0.38006700      -0.15935300 
I       6.85945362      16.82874097      19.96085828       53       0.20126800      -0.31079300      -0.28710000 
I      19.31031761       3.29141206       6.35584466       53       0.29576100       0.40346400       0.12720600 
I      18.65963126       3.94877676      18.70763358       53       0.43727400       0.89428700       0.03169100 
I      20.18470001      16.33311648       5.56677975       53      -0.09734400       0.89446700      -0.14232600 
I      19.05754408      16.50949742      18.11737990       53       0.21510100       0.20215800      -0.08113500 
I       3.18727523       6.85243870       7.33284173       53      -0.37571500       0.03118700      -0.02204400 
I       3.56220819       7.46199097      19.13754059       53      -0.34230500      -0.07037200      -0.11370200 
I       2.99001126      19.81231602       5.66079506       53       0.03064300      -0.05719000      -0.09529700 
I       2.88173501      19.36910557      18.57914244       53       0.04007400       0.01029500       0.10707500 
I      16.08122810       6.79129267       7.70226181       53      -0.39176800      -0.16765600      -0.02925500 
I      16.35608128       7.13952831      19.80920441       53       0.09141000       0.13158600      -0.10789100 
I      15.77193225      19.88743061       7.17235741       53       0.65128300      -0.49826100      -0.69719100 
I      16.22948101      19.19605225      19.13421297       53      -0.29396400       0.19975400      -0.32912400 
I       9.17584187      13.36389882       6.62989808       53       0.14733200       0.14194500      -0.20619100 
I       9.63799825      13.96818738      18.51444575       53       0.40777700       0.07895200      -0.01181100 
I       9.60435533      25.61131984       6.40488184       53      -0.88790400       0.07960700       0.03897900 
I       9.37480883      25.77261898      19.41031199       53       0.27193500       0.07446300      -0.09046700 
I      22.60147347      13.20576654       6.63138506       53      -0.25204100       0.01624500      -0.07282500 
I      22.70726908      13.66666904      19.46399297       53      -0.86741900      -0.29874500      -0.07970700 
I      22.16915715      25.52470325       5.33394983       53       0.65788600      -0.03161800      -0.07756500 
I      22.45860785      26.79625599      18.46098681       53      -0.70741000      -0.00973500      -0.05672600 
I       9.19780597       7.30925702       5.53150517       53       1.18401200      -0.37101600       0.33567100 
I       9.85755788       7.22735055      19.31099479       53       0.43616900      -0.22077300       0.00945500 
I       9.18071273      18.93575540       7.22584247       53       0.08071800       0.43210800      -0.11292700 
I       9.68299145      20.75185526      19.93946285       53       0.50729400      -0.97361700      -0.79843700 
I      22.48971788       6.97628604       6.23715050       53       0.14290200      -0.08648000       0.17762300 
I      22.97710972       7.99802212      19.21897083       53      -0.49877700      -0.08262800       0.12889700 
I      22.60859288      20.19783567       6.68408845       53      -0.30590200      -0.12042800       0.22876200 
I      22.37892481      19.85532189      19.53532280       53       0.41382300       0.32817900      -0.11894100 
I       2.86412937       0.89793596       6.45416819       53       0.15930700      -0.26581200       0.11446500 
I       3.64593420       0.25663265      18.49105495       53      -0.42489400      -0.23702400       0.69331700 
I       2.88906341      12.75082804       6.83970593       53       0.10533000      -0.14658800       0.05319300 
I       3.00708642      13.61655078      18.88925311       53      -0.11014500      -0.05076000       0.15296500 
I      16.06333813       0.72712818       6.54912995       53       0.39197000       0.07950600      -0.04618800 
I      15.98760061       1.37368816      19.48475041       53       0.26074100       0.19530500       0.07536200 
I      15.54357433      13.81693037       7.20982529       53       0.10911500      -0.26812700      -0.34297400 
I      16.09121398      13.74421605      19.96295814       53       0.26855600      -0.03459000      -0.18484100 
I       0.69024906       9.64558185       0.36597792       53      -0.05329400       0.20753500      -0.01375700 
I       0.30840065       9.58913187      12.01356730       53      -0.43295900       0.22912500       0.40533700 
I      -0.44222181      22.32474850      -0.53238303       53       0.00425500      -0.19379400       0.33426500 
I       0.61518973      21.88432313      13.20023156       53      -0.22645900       0.60265800      -0.34745800 
I      12.73433160      10.27640095      -0.34995370       53       0.14787700      -0.25870300      -0.06129900 
I      13.75145503       9.88367548      13.26850604       53      -0.00105100      -0.00763800      -0.20904600 
I      13.78427710      22.84607765      -0.84664921       53      -0.11769600       1.18327600       0.08920400 
I      12.39170429      22.86048227      12.52130263       53       0.16182000       0.14976600      -0.45118500 
I       6.93106377       3.29826322       0.59496178       53      -0.24652200       0.52358600      -0.14240300 
I       6.92492796       3.44949511      13.07977714       53      -0.77173700       0.72001500      -0.86887200 
I       6.96041856      16.20290325      -0.03101760       53      -0.04883100      -0.08133700      -0.10527800 
I       7.27710410      16.89448356      12.92211908       53       0.07075000      -0.71270500      -0.13136700 
I      19.86396245       4.00776264       0.56291636       53      -0.24545700      -0.03697500      -0.18373900 
I      19.27931006       3.78488042      13.21864700       53       0.12985400      -0.08681000       0.04706900 
I      19.84193003      16.52599586       0.23088177       53       0.10048600      -0.22809300       0.34910100 
I      19.03930547      16.64770116      13.02182009       53      -0.11039600       0.03906000      -0.11060200 
I      12.08378591       3.83935412      12.99461237       53       0.05469400      -0.27669100      -0.23728800 
I      12.83382965       3.89207861      26.17218356       53       0.09044800      -0.42965800       0.02427100 
I      11.71620848      16.34302399      13.92058895       53       0.39713400       0.08371900      -0.46658500 
I      12.71371583      16.79768720      25.42937679       53       0.13193500      -0.59593900       0.00843300 
I      25.50153651       4.36122682      14.05943169       53      -0.10444500       0.40023200      -0.27034700 
I      26.30703355       4.03162666      25.57421265       53      -0.42468900       0.04076100      -0.07655500 
I      25.13003265      17.01278186      11.63052025       53       0.01484200      -0.26496900       0.11924500 
I      26.30698734      17.19624706      26.30903897       53       0.12389700      -0.45025200      -0.07494900 
I       6.16394286      10.23996492      13.52549737       53      -0.08738400      -0.04585000      -0.20335100 
I       5.65278044       9.86788737      25.73909562       53      -0.05009400      -0.52463700      -0.00918100 
I       5.14897957      23.13227407      13.01617258       53       0.06600800      -0.57144500       0.00870600 
I       7.20126209      22.67234715      25.72038982       53      -0.72126800      -0.25877600       0.09653100 
I      18.51089508       9.92618803      12.55724635       53       0.01702400      -0.26721300      -0.07276900 
I      18.83853605       9.97745367      25.83644057       53       0.15515600       0.55733300      -0.15337500 
I      17.87146456      23.17878640      12.55547102       53       0.62741400       0.13598200       0.76757000 
I      18.99944536      23.37531592      25.41270855       53      -0.18818400      -0.19635200      -0.40700300 
I      10.14614653       8.02592912      13.17337047       53      -0.58442900      -0.07688600       0.01284300 
I       9.12746780       7.24870579      25.13940364       53       0.66868000       0.05427100       0.01052500 
I       9.25306435      19.94264177      12.13486668       53       0.17710400       0.39372300      -0.12183200 
I       9.96804853      19.73731697      25.31222889       53      -0.73481000       0.08623800      -0.24415100 
I      22.81210820       7.96205630      13.32539810       53      -0.23296500      -0.18316800      -0.18479800 
I      22.72430504       7.41858321      26.49911318       53      -0.07776300      -0.05799200      -0.02648800 
I      22.08283495      20.75280271      13.10359695       53       0.16791400       0.02053700      -0.33646900 
I      22.61137494      19.51989337      25.56411325       53      -0.44192400       0.23727100      -0.23900500 
I       3.05367410       0.54644705      12.74205385       53      -0.10702200       0.27343200      -0.01777900 
I       3.25721453       0.69340387      25.51266575       53       0.17399400      -0.44256600      -0.00448600 
I       2.92476801      13.44173117      12.56093969       53      -0.02991900       0.02888400       0.09259300 
I       3.27635940      13.10551696      24.69317803       53       0.11947500       0.10641600       0.38528200 
I      15.92600749       1.17505175      13.43125700       53       0.20717000      -1.33151600      -0.91771500 
I      16.32876405       1.71517010      24.43379950       53      -0.16088700      -0.53100200       0.45270800 
I      15.53453389      13.53745852      11.82258481       53       0.08525000       0.10198700       0.13199700 
I      16.55488547      13.90913820      25.30125237       53      -0.65270400      -0.01382200       0.03669800 
I       2.92696030       6.13106453      -0.24355928       53       0.44071000      -0.12316800       0.01563700 
I       3.48792048       6.88928063      12.46393133       53      -0.03129700      -0.15270200       0.18730200 
I       3.53643521      19.43074691       0.71713326       53      -0.25717400       0.11883100       0.02731200 
I       2.96689174      18.43947081      12.75793540       53      -0.31944400      -0.26403500       0.13879000 
I      15.67878100       7.54104605      -0.25815379       53       0.77219300       0.01663300      -0.34648900 
I      16.29241744       6.45166746      12.23590898       53      -0.02556700       0.10563700       0.18678400 
I      15.88305989      19.93140704       0.53811494       53      -0.15345500      -0.46246500      -0.41746300 
I      15.82799843      19.15711547      12.55443214       53      -0.32931800       0.12213900       0.05649300 
I       9.83105949      13.29378571      -0.73463341       53      -0.12383300       0.06319800       0.10677200 
I       9.42667831      12.74792441      13.68078229       53      -0.35165100      -0.00250000       0.06152100 
I       9.23428822      25.89569672       0.00611973       53       0.51613300       0.39367800      -0.21042400 
I       9.11422564      26.36575218      12.21551826       53      -0.13530100      -0.59797300       0.16887000 
I      22.88253076      13.42386028       1.86954574       53       0.08380900      -0.14880300      -0.50747000 
I      21.90111696      12.61150806      12.59731243       53       0.35001300       0.12354300       0.26092900 
I      22.29596640      26.80435601       0.36399963       53       0.02848100      -0.28019700      -0.39325600 
I      22.21172296      26.56503060      12.91794047       53       0.62105900      -0.08596100       0.04519100 
I      11.56733164      13.43266260       9.93899816       53       0.25020500       0.20017200      -0.13842700 
I      12.51960968      14.47722985      21.68576006       53       0.10044900      -0.27927400       0.64887400 