320
Lattice="25.2436592886 0.43230917158 0.355331967006 -1.04755181505 25.6919008895 0.145832631261 0.327306959638 0.130523439315 24.9664643582" Properties=species:S:1:pos:R:3:Z:I:1:forces:R:3 energy=-101581.505811 stress="5.694273 844.402557 -436.379139 844.402557 -147.9562 214.391652 -436.379139 214.391652 1450.712119" pbc="T T T"
Cs       2.46576350       9.64589365       3.61851444       55       0.09280600      -0.06456600      -0.04692100 
Cs       2.97989892       9.50662028      16.44715158       55      -0.04518900       0.21191600      -0.35437500 
Cs       1.99555105      22.18494201       3.21361787       55      -0.07842800      -0.04456500      -0.22819300 
Cs       2.98876897      22.19694499      15.71964941       55      -0.16396000      -0.12091500       0.19493700 
Cs      14.85197789       9.39129772       3.25976402       55       0.27685800       0.35546400       0.70134900 
Cs      15.86470619      10.27728435      15.60512830       55      -0.47290600       0.00771000       0.22891700 
Cs      16.38708942      22.42699147       3.38419785       55      -0.52922700      -0.31672600      -0.03782400 
Cs      14.96769231      21.49374120      15.84776753       55       0.18148900       0.55948200       0.17800300 
Cs       9.18979611       3.68822940       3.09633798       55      -0.14422700      -0.05442600      -0.03201900 
Cs      10.08330884       3.43764267      15.96185049       55      -0.30495300      -0.12658400       0.00373300 
Cs       9.70343629      16.44838821       3.07388469       55      -0.48791600       0.10098900       0.41908300 
Cs       9.15780227      16.11429259      15.13260604       55       0.07278600       0.52564500       0.47788200 
Cs      21.94430936       3.43693673       3.25081027       55       0.44305200      -0.10171000      -0.18437700 
Cs      22.52854274       4.56994887      16.05957668       55      -0.22611200      -0.05199100       0.02172800 
Cs      22.39969505      16.70913480       4.14996857       55      -0.53810900      -0.22246100      -0.60171400 
Cs      22.00180867      16.94249635      16.96251280       55      -0.29957000      -0.25682100      -0.66308400 
Cs       9.44875470       3.93023160       9.09667676       55      -0.07953100      -0.08612800       0.07366500 
Cs       9.55411825       3.85939816      22.24453158       55      -0.24802000      -0.20448100      -0.00348200 
Cs       9.56791612      17.22871296       8.88181246       55      -0.17650500      -0.08012900       0.18808700 
Cs       9.66072729      15.40968283      22.01423600       55      -0.03423000       0.15301200       0.08813900 
Cs      22.02185860       3.53982013      10.03458900       55      -0.28670400      -0.29274000       0.07703800 
Cs      21.49759976       4.08598976      22.61776513       55       0.43770200       0.07765200      -0.22262000 
Cs      21.83059757      16.72655591       9.93665310       55       0.03097900      -1.38860100      -0.79563100 
Cs      21.96546201      16.12344621      23.11465469       55      -0.34847900       0.06575500      -0.37364300 
Cs       3.14770042      10.71730571       9.80437515       55      -0.04918300      -0.16377400      -0.04584200 
Cs       3.18960206      10.49197339      22.37781085       55       0.11446400      -0.08707800      -0.05496200 
Cs       2.54130322      22.91623284       9.48402718       55      -0.32239700      -0.05422900      -0.36892300 
Cs       1.57147098      22.94570123      21.44891044       55      -0.19622200       0.19913000       0.51317100 
Cs      15.52634046       8.47103501       9.72467657       55      -0.49811300       0.30870300      -0.08109900 
Cs      15.62245293       9.67863675      22.04436013       55      -0.05336800       0.05286500       0.05094700 
Cs      14.31583717      23.06311109       9.03441800       55       0.60672200      -0.13303100       0.02762900 
Cs      15.54511537      22.51129984      21.63047240       55      -0.06601000       0.13992500       0.03781700 
Cs       2.04934639       3.20310652       9.00022462       55       0.50200600      -0.08108000       0.09774200 
Cs       3.52549749       3.89276253      22.20967754       55       0.04714600      -0.14860800      -0.00682500 
Cs       3.04771758      16.22101683       9.26038636       55      -0.03141900      -0.03126500       0.04192000 
Cs       2.50409998      16.32821367      21.33131844       55       0.13611700      -0.08794200       0.02583100 
Cs      16.92062101       3.06898740       9.22037511       55      -0.22960800      -0.13598300       0.17619000 
Cs      16.73670985       3.62437858      21.51477571       55       0.05239500       0.01224800      -0.23239100 
Cs      15.02855690      16.59001079       9.61411839       55      -0.11916400       0.05225400      -0.03997700 
Cs      15.51272573      15.88110630      22.88862628       55      -0.03265400      -0.02243700      -0.19449300 
Cs       9.54088652       9.48685686      10.02408061       55      -0.41187500       0.06783800      -0.24640600 
Cs       9.21104821       9.79162684      21.46697448       55       0.14841100      -0.07878400       0.00170500 
Cs       9.21014732      23.21016657       9.64992550       55      -0.42114000      -0.72119200      -0.02048300 
Cs       8.17997920      22.75284224      21.92319411       55      -0.06263000       0.61767600       0.05204300 
Cs      20.80271860       9.75688013      10.39634731       55       0.17912000       0.05184300      -0.16119200 
Cs      21.13614273      10.54312612      22.09303763       55       0.19146600      -0.18959700      -0.05973900 
Cs      21.76288032      23.68549586      10.03994215       55      -0.29159700      -0.03913100       0.03865400 
Cs      21.56125071      23.43826555      22.82036356       55       0.08955800      -0.21970400       0.01026600 
Cs       7.93121493       9.67758916       4.09504688       55       0.92122600       0.16782100      -1.52561800 
Cs       9.43104609       9.37935283      15.30366158       55       0.08625900       0.10706800       0.08743200 
Cs       8.40369190      22.99753923       4.34288172       55      -0.06818800      -0.08897400      -0.30363500 
Cs       8.38953368      22.65490929      15.85752469       55       0.00787600      -0.10778500       0.39218200 
Cs      21.00244403       9.94235676       3.26685691       55       0.02649200       0.11968900       0.27287600 
Cs      22.00801151      10.73112327      15.56001596       55      -0.04897100      -0.01809700       0.48303700 
Cs      21.51379901      23.20813637       3.41524748       55       0.17523800      -0.14286100      -0.01849700 
Cs      20.66648756      22.63460534      16.01104884       55       0.63162700       0.72950900      -0.03754500 
Cs       3.74787706       3.15332236       3.91784267       55      -0.30519700       0.26021700      -0.47522100 
Cs       2.50547051       3.51240064      16.20408112       55       0.23438800       0.03515900       0.00191100 
Cs       3.40495077      15.70251875       2.33626599       55       0.10515100       0.12219600       0.64414600 
Cs       3.38156903      15.61373154      14.67121640       55      -0.79180900       0.46359500       0.22067700 
Cs      14.77688123       3.86089373       3.06804713       55       0.01952400       0.05239400       0.00318600 
Cs      17.08871985       3.08796119      16.39774550       55      -0.95006800       0.52407700       0.09658400 
Cs      15.41194538      15.99553978       3.44904801       55      -0.01368300      -0.15069400      -0.08202400 
Cs      15.80613763      16.98360048      15.67418557       55      -0.21694300      -0.23207300       0.26149500 
Pb       0.13244140      -0.20045599       6.36388606       82      -0.40048000       0.68311900       0.15204000 
Pb       0.06757843       0.00341353      18.82213213       82      -0.58388300      -0.20511500       0.30108100 
Pb      -0.53859724      12.37023865       6.12726950       82       0.16590000       0.03413000       0.36117800 
Pb      -0.04560956      13.34792880      18.88288350       82      -0.15070700      -0.73192400      -0.17164200 
Pb      12.52907459       0.44510868       5.91747381       82       0.05608500       0.23227000       0.68715300 
Pb      13.34351887       0.82677021      18.81258764       82       0.36855200      -1.62790500       0.42918300 
Pb      12.39311530      13.23042147       6.65082437       82      -0.12984000      -0.26851200       0.08264000 
Pb      12.02956310      13.26006512      18.89558652       82       0.33330400       0.41617200      -0.03244900 
Pb       5.78803143       6.64574198       6.58549964       82      -0.25159500       0.26473100       0.41840400 
Pb       5.97005811       6.45580127      18.87517131       82       0.57242600      -1.35759000       0.10279800 
Pb       5.51105016      19.68961067       5.91666744       82       0.01757200      -0.45678000      -0.16116900 
Pb       5.63002155      19.56735670      19.03596066       82      -0.54073900      -0.51226900      -0.23141700 
Pb      18.35015237       6.82190058       6.44452688       82       0.05638300      -0.34708000      -0.05060800 
Pb      18.61645985       7.12153009      18.47906406       82       0.50857900      -0.70057600       1.32277700 
Pb      19.04498135      19.61854389       6.99952127       82      -0.13326200       0.42325700       0.50496200 
Pb      18.55134975      19.33644576      19.24221581       82       0.17840100       0.85856300      -0.70200700 
Pb      -0.78619578       6.15476185       6.57651537       82      -0.12053300      -0.16202800      -0.13064200 
Pb      -0.02867483       6.81828226      18.88449132       82      -0.68058000       0.43465300      -0.14923000 
Pb      -0.45533646      19.38230540       6.49050762       82       0.18964600      -0.51357100      -0.25225100 
Pb      -0.38940326      19.15414636      18.54441636       82       0.21376200       0.19119300       0.14121700 
Pb      12.05872332       7.12791113       6.56079069       82       0.06602000      -0.26289300       0.04003700 
Pb      12.39591839       6.88117804      18.80907073       82       0.02623400       0.22857000      -0.38161900 
Pb      12.60956083      19.43546273       5.98863314       82      -0.30621800       0.51082200      -0.11223100 
Pb      12.26841071      19.61773358      19.34919997       82      -0.46030200      -0.10772300      -0.20791000 
Pb       6.16233522       0.23629362       6.51010957       82       0.37708800      -0.04678600      -0.07817100 
Pb       5.90356468      -0.21256334      18.61055928       82       0.37478300      -0.15405700       1.24871000 
Pb       6.11671089      13.26084786       6.88545898       82       0.02271400       0.00791300      -0.75460700 
Pb       6.19526047      13.11073822      18.86944895       82       0.11852900      -0.41632400       0.31458000 
Pb      19.02715263       0.60554456       6.29700176       82       0.38161200       0.10334800       0.40548100 
Pb      19.82584368       0.67660445      18.60304498       82      -0.04443000      -0.46563900       0.40717300 
Pb      18.82482101      13.23297152       6.69049102       82      -0.51512700       0.07080300       0.28424300 
Pb      18.71511941      13.07185333      19.43118966       82      -0.07073300       0.61724800      -0.16281600 
Pb       0.40433142       0.18950159       0.08634053       82      -0.28400400      -0.44530800      -1.09832900 
Pb       0.66450794       0.40310858      13.07184841       82      -0.52571000       0.04941900      -0.32011600 
Pb      -0.34116488      12.92012505      -0.03677396       82       0.32643300      -0.55280100       0.62818700 
Pb      -0.43904663      13.15154206      12.71322992       82       0.53984800       0.37055300      -0.00199700 
Pb      12.28630343       0.51669335      -0.21956959       82       0.14102500      -0.88216400      -0.39066500 
Pb      12.74826610       0.00951003      12.27353839       82       0.15960000      -0.15450000       0.35978900 
Pb      12.17868225      12.69011599       0.64980623       82      -0.16024000      -0.85621800      -0.93956000 
Pb      12.68746058      13.16978628      12.54519310       82       0.01905900      -0.28637200       0.41054300 
Pb       5.54260684       6.67570365       0.42124843       82       0.19057300      -0.43951600      -0.64878800 
Pb       5.77010327       6.35102847      12.72069400       82       0.09698300       0.05367900      -0.16933700 
Pb       5.63873014      19.18208374      -0.17351107       82       0.59478400       0.42254800      -0.05925000 
Pb       5.55151825      19.82542622      12.53575101       82       0.44055200      -0.91227500       0.06540900 
Pb      18.61245459       5.81302197       0.53091163       82      -0.94651300       0.56690800      -0.66327900 
Pb      18.29179943       6.85332829      12.95302175       82       0.15053300      -0.12985300      -0.16121100 
Pb      18.83576361      19.49227579       0.75228497       82       0.19583700      -0.36080400      -0.00873900 
Pb      19.00522904      19.47988981      12.65112279       82      -0.33327600       0.11088800       0.40986200 
Pb      -0.94139666       6.52494124       0.02649497       82       0.49982900      -0.00600300       0.44211700 
Pb      -0.48686164       6.81964885      12.69050982       82       0.34779600      -0.39665700      -0.05043800 
Pb      -0.16690062      18.87331341       0.03650222       82       0.00025200       1.21883200       0.11285100 
Pb      -0.44604599      19.79711962      12.55583146       82       0.11112300      -0.49641500      -0.31046600 
Pb      11.86761195       6.75809899      -0.14885135       82       1.46241900      -0.15403600       0.21524900 
Pb      12.27986036       5.93056869      13.01146625       82      -0.14446300       0.33857900      -0.92994800 
Pb      11.77035048      19.59734594      -0.17868994       82      -0.04183100       0.39961000       0.02914500 
Pb      12.42671301      19.73262587      12.92383789       82      -0.52888300       0.31269200      -0.09749100 
Pb       6.09448406      -0.01258782       0.51373765       82       0.18402700      -0.14440400      -0.68321500 
Pb       6.25641256      -0.03048547      12.63433968       82       0.33203900       0.90283000       0.09364200 
Pb       6.27655603      12.71156303       0.28825764       82       0.10666000      -0.11047900       0.20984100 
Pb       6.22657987      12.76272068      12.95100829       82      -0.75418300      -0.14966900       0.08715700 
Pb      18.75891144      -0.05065847       0.02877033       82       0.31142700       0.12913200      -0.27565300 
Pb      19.36449440       0.09697102      12.69171199       82       0.02578700       0.66477700      -0.02696900 
Pb      18.52780556      12.89698059       0.81753389       82      -0.53768900      -0.16465400      -0.08787800 
Pb      18.59217820      13.45143051      13.15532678       82      -0.08051800       0.22420600      -0.35908200 
I      11.77243483       3.77829262       5.79163794       53       0.25234900      -0.31452800       0.19131200 
I      13.05873581       3.54656645      18.50263681       53      -0.18470600       1.17144600      -0.20956300 
I      12.53502144      16.30155230       6.41019369       53      -0.00056400       0.23422000      -0.16055100 
I      10.92961405      16.32502068      18.39254433       53       0.27518300      -0.20920600       0.29894500 
I      23.78058338       3.49074978       6.43486818       53       0.37923900       0.31709400       0.27163300 
I      24.39956052       4.32198111      19.24272976       53       0.18355800      -0.33354100       0.17824800 
I      24.21325586      16.77554059       6.93763468       53       0.37086200       0.07343900       0.48238600 
I      24.18274479      16.72812828      19.66588531       53       0.08764100       0.17625800       0.40872300 
I       6.26608308      10.02039337       6.72496205       53      -0.99778400       0.29109800       0.94355800 
I       5.97749561       9.11646578      18.29937379       53       0.23995300       1.55701200      -0.14629400 
I       4.30626332      23.00322024       5.83377391       53       0.39581900      -0.42936600       0.30971400 
I       4.36213710      22.27795207      19.51438940       53       0.27712500       0.09262600      -0.60287100 
I      18.06103520       9.67523996       6.92889065       53      -0.14551200       0.31134100       0.02477100 
I      18.30945586      10.06992351      19.19649992       53      -0.12378900       0.40081600       0.24968200 
I      18.00915979      22.42358976       7.60731263       53       0.04318900      -0.17878300      -0.33467000 
I      18.07357871      23.21788565      18.42131368       53      -0.03309000      -0.12371200       0.51901600 
I       0.04225412       9.43567262       6.43350454       53       0.06980200       0.14374900       0.07021700 
I      -0.15840962      10.18635470      18.09028699       53      -0.05655800      -0.01026800       0.18510300 
I      -0.34856004      22.65051906       6.59073857       53       0.22259300      -0.15562900       0.00711500 
I      -1.51574981      22.50711243      19.35049666       53       0.33460400       0.33121900      -0.21643500 
I      13.18524119      10.03083678       6.77164382       53      -0.08805500       0.02875400       0.06672300 
I      12.69777600       9.85344057      18.42667864       53       0.15474700       0.08638700       0.15308800 
I      11.87801401      22.59430068       5.81661174       53       0.18969000       0.42650500       0.31439200 
I      11.93791274      22.53586602      19.95248493       53       0.13943000      -0.16047300       0.07718900 
I       6.33869369       3.53832160       6.33954239       53       0.28641700       0.15280000       0.28652600 
I       5.64401141       2.67416207      18.73007908       53       0.60154300       1.26802400      -0.09776500 
I       5.32834215      16.26800184       6.39026978       53       0.35966500       0.29914200      -0.15053800 
I       6.59751640      15.80131911      19.77210151       53      -0.12683200       0.61248300      -0.07171900 
I      19.60914314       3.63569334       5.82011979       53      -0.47055200      -0.11691800       0.44002200 
I      19.63556329       4.01300206      18.68172452       53       0.11535200       0.06079300       0.14187600 
I      18.99314631      16.28287093       6.75338680       53       0.14624000      -0.09441800      -0.15277200 
I      18.73496258      16.54237694      18.74643685       53      -0.04005500      -0.89866800      -0.06296300 
I       2.79165857       6.26572765       7.00224067       53      -0.13770700       0.00248100      -0.15138200 
I       3.03776154       6.48632219      19.16501314       53      -0.05526500      -0.23472800      -0.04879700 
I       2.59501191      18.65989841       4.83642470       53      -0.10834300       0.37644700       0.42922600 
I       2.46632667      18.02593403      17.86388935       53      -0.27128500       0.23204200       0.09405600 
I      15.38056297       5.95259072       6.44762633       53      -0.00931900       0.03617400       0.23238000 
I      15.60698423       6.48443180      18.67056237       53       0.36920200       0.04777600       0.03463900 
I      15.44842791      19.40325031       4.84333644       53      -0.06058500      -0.23714100       0.47940500 
I      15.29766648      19.56970196      19.07054689       53      -0.08049200      -0.05630100      -0.12757500 
I       9.30995687      13.63304367       6.28075230       53       0.02184600       0.06453900       0.26298100 
I       9.12201584      12.29499922      18.06209263       53      -0.10313800      -0.11551800       0.07313900 
I       8.56354294      26.21070124       6.75429753       53       0.00839300      -0.22198300      -0.24508900 
I       7.79946864      25.45593809      18.69891032       53       0.20752800      -0.07266000      -0.14106100 
I      21.70759237      12.15611278       6.65306133       53       0.08809900      -0.08155600      -0.27063500 
I      22.04650257      13.24427939      19.23723779       53      -1.04158500      -0.12121200       0.23861500 
I      21.31326720      25.54064521       6.36872920       53       0.11896200      -0.14698400       0.07250000 
I      21.50630933      26.28053139      17.46926881       53       0.01263400       0.09933900       0.21434900 
I       8.87149705       7.22430912       6.58262172       53       0.65762500      -0.26634400       0.17685000 
I       9.41657281       7.25269449      18.46473748       53      -0.17049700      -0.27947800       0.04860800 
I       8.91672951      19.65825287       6.22661335       53      -0.05373700       0.03297400       0.24356000 
I       8.35999931      20.22950854      19.35040116       53       0.61270700       0.05337300      -0.11223000 
I      21.61996105       7.70511759       7.29813470       53       0.03609000      -0.22050100      -0.19884500 
I      22.06779504       7.77178331      18.51835263       53      -0.20713300       0.04363800      -0.00046100 
I      21.90246581      20.68584829       7.80028092       53      -0.29080400      -0.31796300      -0.21296600 
I      21.55717751      19.93977010      18.96695951       53      -0.05334400       0.03670100       0.22307600 
I       3.25156446       0.52928314       6.42712546       53      -0.64289600       0.15320500       0.23546600 
I       2.81511022       0.91234080      19.29308104       53      -0.37288300      -0.28714400       0.39901200 
I       3.12247456      13.10556132       6.89655123       53      -0.54606500      -0.19705300      -0.02016400 
I       2.87630760      13.03269669      19.02326158       53       0.59488000       0.01625200       0.02219900 
I      16.07208377       0.71555433       6.41566203       53      -0.33890900      -0.01242700      -0.03358400 
I      16.56750040       0.57109617      19.78381503       53      -0.19930500      -0.12591600      -0.42250500 
I      15.55819055      13.65239750       7.22343580       53       0.07746300      -0.06706100      -0.12673100 
I      15.09967390      14.17477876      19.14716570       53       0.39141300      -0.04501600       0.04324400 
I       0.34730963       9.60151285       0.40670229       53      -0.28366600       0.48905300      -0.10806200 
I      -0.76248125       9.89848498      12.59471045       53       0.05623100      -0.08949000      -0.20720700 
I      -0.36714591      22.41017686       0.28822121       53      -0.27289500       0.13055600      -0.12524200 
I      -0.79692472      22.73371092      12.25399650       53       0.24837300       0.09704000       0.06811800 
I      13.23172209       9.45298346       0.38302222       53      -0.44865700      -0.07565900      -0.83464500 
I      12.36385563       9.92553920      12.06460026       53       0.39200500       0.55754100       0.39613500 
I      11.63385657      23.01528820      -0.43818808       53       0.04883700      -0.40491000       0.01513400 
I      12.81394922      22.99973976      12.75273313       53       0.07624700      -0.45184100       0.06369900 
I       5.76390732       3.46573266       0.22800447       53       0.21123500      -0.34228600       0.11890300 
I       7.05143803       3.27973814      12.73080758       53      -0.06131700      -0.37523100      -0.26980300 
I       6.72726104      16.37172607       0.27764882       53       0.06311200      -0.66697800      -0.00009300 
I       6.25518775      16.49578872      12.92803810       53      -0.03750300       0.15872200      -0.62827500 
I      19.23314096       2.92859752       0.77440153       53      -0.21993200       0.12155600       0.09758800 
I      18.67019512       3.89788627      13.37409886       53       0.28211900      -0.20153000      -0.22353800 
I      18.65961289      16.37377399       0.91210352       53       0.02222100       0.10640100      -0.01772000 
I      18.94840417      16.57995432      13.96064698       53       0.27768100      -0.37429200      -0.36397800 
I      11.92037446       2.99135447      12.59673277       53      -0.12458300       0.07250300       0.00664200 
I      12.22336039       3.56900202      25.17082912       53      -0.08626000       0.46684900       0.08610200 
I      12.16620765      16.73380141      12.63150312       53      -0.04173700      -0.24920800       0.06672900 
I      12.24584814      15.65006047      25.51249319       53       0.12410500       0.92669300      -0.38872800 
I      24.77241993       3.85487009      13.19505151       53       0.10082300      -0.20297200       0.18295800 
I      24.59235453       3.92332381      25.19217377       53       0.10228000       0.24264300      -0.13464200 
I      24.94331498      16.77693672      12.46317289       53       0.15036300      -0.56812500       0.22284000 
I      24.52302454      16.66362567      25.46417407       53       0.18349200      -0.80046600       0.27223300 
I       6.18130310       9.59026799      13.52000337       53      -0.04616600       0.14831700       0.05834200 
I       5.24817393       9.67112837      25.62593717       53       0.03350900       1.16819300      -0.06453900 
I       4.87961417      22.72283331      12.05211090       53      -0.06482000      -0.13272900       0.37375000 
I       5.46389875      22.35181112      25.69656975       53      -0.02543700       0.71138200      -0.10981900 
I      17.55871274      10.11389473      12.38053831       53       0.21216400       0.18094400       0.08100500 
I      18.85113778      10.08840403      25.17219473       53       0.00501000       0.02859500      -0.01977900 
I      18.45362258      22.98149948      12.39121506       53       0.10235300      -0.81395300       0.12381500 
I      18.30149949      22.62434309      24.81387162       53      -0.05751400       0.10237700       0.04009700 
I       9.21056380       6.41683072      12.64052184       53      -0.06764800       0.26545700       0.02451100 
I       9.47081612       6.90493392      25.06747116       53      -1.30701200       0.08691400       0.23358500 
I       9.38077555      20.55309577      12.83079731       53      -0.35498200      -0.21103100      -0.43517000 
I       9.05196120      19.80406877      23.63629259       53      -0.08012800      -0.34317300       0.26097800 
I      21.47147105       6.67594094      12.64600299       53       0.36050300       0.19991800       0.09663700 
I      21.64145930       6.96166428      26.46313306       53       0.53338500       0.01611400      -0.11960400 
I      21.82566484      19.34404867      11.66572734       53       0.32198800       1.39092100       0.87266700 
I      22.09340291      19.85281519      24.99959637       53      -0.55137800       0.09482500      -0.08637000 
I       3.46583210       1.46536604      12.14263884       53      -0.01273900      -0.15832500       0.04465400 
I       3.59476545      -0.04776578      24.28313426       53      -0.75737300       0.15298200      -0.09188600 
I       2.80761758      12.23371322      13.36036204       53      -0.14127300       0.04591100      -0.20696800 
I       3.63039533      13.71561819      24.56764657       53      -0.65277300      -0.22411200      -0.40292500 
I      16.30069375       0.21219019      11.83432536       53      -0.26936900       0.24940700       0.11809600 
I      15.80654623       0.63057743      23.97650539       53       0.16461800       0.01787200       0.21891200 
I      15.73751456      14.52252554      12.63139875       53      -0.25833100      -0.27480500       0.02287000 
I      15.56885156      12.98685379      25.38247188       53       0.29058300       0.13741400       0.12981200 
I       2.63032869       6.23133341       0.35118493       53      -0.34835200      -0.21798900      -0.08124000 
I       2.55622252       6.00237292      12.11937722       53       0.32114200       0.14152800       0.02393500 
I       2.75482554      19.04227770       0.88982057       53      -0.46501900      -0.15242000      -0.02289300 
I       2.64032117      19.42573510      13.45497499       53      -0.20848600      -0.19505200      -0.26476700 
I      15.74638659       5.26414575      -0.62515241       53      -0.27032800       0.34338600       0.67245500 
I      15.34344539       6.07958052      13.08684943       53       0.05346800       0.01269200      -0.10570300 
I      14.68573104      18.73236035       0.08359061       53       0.43195400       0.24884500       0.33597100 
I      15.61593502      19.61285697      12.86653845       53      -0.09912400      -0.14180800       0.06143400 
I       8.95145949      11.26520819       0.47675988       53       0.15767800       0.02534300      -0.16772200 
I       8.97481366      13.45431631      13.01805012       53       1.03213000      -0.52224800      -0.24863500 
I       8.02723189      25.65456572       0.95892312       53       0.78453900       0.07927700      -0.15657100 
I       8.26814613      24.69207252      12.97113501       53       0.28084800       0.46500100      -0.20284700 
I      21.65964050      12.80940048       0.62289872       53       0.39087200       0.06649800      -0.04822400 
I      21.84985197      13.74268324      12.94095181       53      -0.34927000      -0.08490000       0.04337900 
I      20.81090043      26.03652952       0.94967499       53       0.12532500      -0.39777200      -0.21268600 
I      21.62650849      26.04433820      13.60649749       53      -0.23832500      -0.08066400      -0.28889100 
I      11.64467412      13.91155104       9.82570306       53       0.06369800      -0.11092500      -0.47703300 
I      12.52855079      12.76738462      22.02101186       53      -0.19309400      -0.08272900       0.13801200 
I      11.78959405      25.39636525       9.41379630       53       0.05641400       0.76436100       0.05153900 