320
Lattice="24.9002466542 0.565384019623 0.0387176963755 -0.875483882147 24.7054133266 0.354624585622 -0.000112026459294 0.324451804004 25.099451911" Properties=species:S:1:pos:R:3:Z:I:1:forces:R:3 energy=-101582.867172 stress="-2663.561684 363.43577 964.90989 363.43577 -1145.901996 -405.698339 964.90989 -405.698339 -2655.475391" pbc="T T T"
Cs       2.81997639       9.81724561       3.97524828       55       0.11737200      -0.11405700      -0.15163200 
Cs       2.41075532       8.94878849      15.12409544       55       0.19475400       0.02074000       0.37002700 
Cs       2.67059297      21.53800329       3.47856546       55      -0.41929300      -0.47015000      -0.07369700 
Cs       1.84388116      21.08146746      15.53786227       55      -0.19073900      -0.06226900      -0.13798800 
Cs      15.17729932      10.79336982       3.26150936       55       0.23755600      -0.19367600       0.10174000 
Cs      15.31152247      10.72773486      15.91600662       55      -0.13027700       0.06304900      -0.12807900 
Cs      15.32803768      21.87770711       3.55758757       55      -0.16421300       0.07319800      -0.34443500 
Cs      14.57043557      22.13050254      16.67988221       55       0.44524800      -0.32752800      -0.45556200 
Cs       9.13762551       3.49974232       3.30251877       55       0.09564600      -0.02136900       0.04601400 
Cs       8.62569259       2.84145650      16.46365859       55       0.57012100       0.43755500      -0.10695400 
Cs       8.54157038      16.22992214       2.71057483       55       0.08761100       0.01143500       0.17719000 
Cs       8.99171587      16.22206001      15.60557164       55       0.40919500      -0.21895100      -0.04245300 
Cs      21.71883235       3.21864379       2.87306244       55      -0.10388300       0.03781900       0.18831600 
Cs      21.27316502       4.43366539      16.19360142       55       0.21769200       0.13938700       0.19828200 
Cs      21.04588361      15.61003725       3.00302956       55       0.37359600       0.35245800       0.35436800 
Cs      21.39532214      16.43888046      16.08671659       55       0.08615100      -0.02904600       0.05259900 
Cs       9.26581371       3.22482263      10.00482136       55       0.08085100      -0.08919300      -0.20355400 
Cs       8.89531710       4.67109388      22.28589966       55      -0.06503100      -0.37241000      -0.07574700 
Cs       9.10483073      15.80166140       9.83228033       55       0.03075900       0.08961100       0.00778500 
Cs       8.69158154      15.14315925      22.29179650       55      -0.18310500       0.13139300       0.11653300 
Cs      21.90362385       4.36331663      10.35067891       55      -0.23335400      -0.25827000      -0.19555000 
Cs      21.35968518       4.94079565      22.29743162       55       0.16838900      -0.32616900      -0.04188200 
Cs      21.66081133      14.92099533       9.61205370       55       0.04653400       0.11161000       0.02173100 
Cs      20.59665654      15.98845876      22.26705411       55       0.17603100       0.19305600       0.04924600 
Cs       2.59096920       9.38528221      10.58259783       55      -0.59775400       0.07168700      -0.60045100 
Cs       2.65918558       9.55062650      22.21370054       55       0.20997100      -0.07316300      -0.06536700 
Cs       3.51568484      22.40067946       9.76786222       55      -0.44868100      -0.35313300       0.02272100 
Cs       2.60320712      22.56408067      22.73142792       55      -0.20567500      -0.02236500      -0.09483400 
Cs      15.64124144       9.08311305      10.63855408       55      -0.10566800       0.31059800      -0.50279500 
Cs      14.46406934       9.67611545      21.02248070       55       0.21782300       0.02382300       0.19941300 
Cs      15.92246552      22.54375560       9.74150896       55      -0.46999000      -0.02553700      -0.55950300 
Cs      14.60485377      21.70624579      22.23231818       55       0.37908000       0.00556300       0.08621900 
Cs       2.16542897       3.79749513       9.18358919       55       0.04058600      -0.07531400       0.08825400 
Cs       1.97036289       3.83033820      21.68049805       55       0.09657700      -0.04349300       0.09187700 
Cs       2.62699826      15.94137385       9.79307783       55      -0.09828100      -0.33554800      -0.03302800 
Cs       2.03975652      15.83155315      22.44203557       55       0.04661700       0.22107400      -0.31341500 
Cs      16.10611745       3.10123620       9.51048530       55      -0.52968200       0.47798000      -0.35317100 
Cs      15.63394814       2.95335451      21.32433310       55      -0.02371800       0.03519300       0.04812500 
Cs      14.83550852      16.40144817      10.14506883       55       0.04259900      -0.09335700      -0.12450400 
Cs      14.89032712      16.01808300      22.04020246       55      -0.21201700       0.00772400       0.30486000 
Cs       8.93587744       8.92111506       9.78579129       55      -0.02428900       0.09112000      -0.32431600 
Cs       9.11869690       8.78927827      22.07417158       55      -0.26624500       0.45219100      -0.04677800 
Cs       8.22668042      22.06314953       9.28557383       55       0.25136600      -0.04280300      -0.01156000 
Cs       8.95105123      22.76202756      22.46257601       55      -0.29539200      -0.28358500       0.00618800 
Cs      21.28997478       9.89994335      10.14998641       55       0.10102900      -0.06460300      -0.22863600 
Cs      21.17347112      10.23456735      23.15186129       55       0.34855500       0.13461000      -0.66663300 
Cs      21.19920727      22.10306958       9.45607617       55       0.04110400       0.17501700       0.13133500 
Cs      21.61766473      22.34064487      22.39346244       55      -0.20513500      -0.06750100       0.25243300 
Cs       8.81223596       9.28008453       3.38886703       55       0.01377200       0.28427400      -0.14995000 
Cs       8.65540665       9.63593562      15.95551816       55       0.09689600      -0.25779400       0.13672800 
Cs       8.07474647      21.58691057       2.66632920       55      -0.23288800       0.17175500       0.07359600 
Cs       8.85036166      21.45983200      15.89611806       55      -0.07427900       0.05755900      -0.03172200 
Cs      22.71664816      10.61038232       2.97986422       55      -0.03232100      -0.04981000      -0.04764000 
Cs      22.05312027      10.30658974      15.92186096       55       0.02515500       0.06925900       0.12468000 
Cs      21.88651954      22.10514207       4.22035928       55      -0.04691500       0.18214700      -0.07312300 
Cs      21.73501148      22.49728683      14.85716246       55      -0.20783000      -0.25468300       0.44293800 
Cs       3.23804272       3.05142402       2.76154204       55      -0.11510900       0.38546600       0.48230800 
Cs       2.75554476       3.03306424      15.00218071       55       0.09894500       0.05566700       0.04646300 
Cs       2.45802663      15.63219917       3.29090472       55       0.03056000       0.20485200      -0.21791600 
Cs       3.79136554      15.26275909      15.41396197       55      -0.30617500       0.14956800       0.28590800 
Cs      15.93249286       3.41937879       3.58823163       55      -0.18394600       0.05699400      -0.11843000 
Cs      14.25161116       3.40299588      15.40681835       55       0.52879900      -0.03071800       0.48281900 
Cs      14.06335456      15.91465168       2.95204786       55       0.59096700      -0.12392300       0.03191400 
Cs      15.60265799      16.24264583      16.37338264       55      -0.17179900       0.13801900      -0.15049600 
Pb       0.46622225       0.53566031       6.16271266       82      -0.43334900       0.07567100       0.11011400 
Pb       0.10122556       0.30828136      19.17036077       82       0.05119100       0.13942200       0.08657000 
Pb      -0.40203882      12.55206741       6.54480980       82       0.34186200       0.23652400       0.18169700 
Pb      -0.47875666      12.69345928      19.92011234       82       0.25087500       0.30531300      -0.81251400 
Pb      12.87588471       0.17943645       5.92282442       82      -0.42738300      -0.04204900       1.09874100 
Pb      12.28940495       0.12385587      18.98147837       82       0.16914800       0.49316100      -0.25783400 
Pb      11.42016462      12.88033101       6.50174915       82       0.00710100       0.70648500      -0.16927200 
Pb      11.63851674      13.23163053      19.12443089       82       0.85025700      -0.66935600       0.00210200 
Pb       5.67676989       6.36709335       6.52139531       82      -0.00980100       0.31182000       0.41695500 
Pb       5.44760818       6.36991912      18.99661739       82       0.63277500       0.05192000      -0.05077000 
Pb       5.97865705      18.68876578       6.26733282       82      -0.09924900      -0.14400000      -0.03131100 
Pb       5.02333307      18.75976738      18.83604967       82      -0.66383200       0.11087500       0.34965600 
Pb      18.47094385       6.59558193       6.45987637       82      -0.02506100       0.77384600      -0.52068000 
Pb      17.96441332       7.23697204      18.82568433       82       0.55907000      -0.01302400       0.65050200 
Pb      18.64827884      18.98993733       5.97996467       82      -0.36642700       0.63098100       0.89732600 
Pb      17.66018809      19.30268140      19.47927856       82       0.43160100       0.50748100      -0.10208700 
Pb      -0.51769165       6.72598266       6.39658721       82      -0.23989700      -0.00054800      -0.37017700 
Pb      -0.27120254       6.66744208      18.83013352       82      -1.11746000       0.31920900       0.46362600 
Pb      -0.08441097      18.61768982       6.73678259       82      -0.20662600      -0.18981800       0.13992400 
Pb      -0.98866151      19.13686679      19.64890787       82       0.19409100      -0.62419300      -0.20996500 
Pb      12.16135388       6.91852524       5.84494864       82       0.03191300      -0.52114500       0.01956700 
Pb      11.88103278       6.64184017      18.83385357       82      -0.00093100      -0.08008000       0.02969900 
Pb      12.26350173      19.23380058       6.01561033       82      -0.05997700      -0.47284900       0.21413400 
Pb      11.28025129      18.93959689      19.10149637       82      -0.03601300      -0.14798200       0.12873300 
Pb       6.55919168       0.38534591       6.05247766       82       0.16196300       0.30292300       0.09462300 
Pb       6.11212982       0.18021098      18.51408756       82       0.01675200      -0.16427100       0.77023000 
Pb       5.91813283      12.59832661       6.75350254       82      -0.94371500      -0.10633700       0.40250000 
Pb       6.07189976      12.57534573      18.94721855       82      -0.66882000      -0.00026900       0.51211200 
Pb      19.02903457       0.63240868       5.92612920       82      -0.36613000      -0.38180300       0.18003300 
Pb      18.88195348       0.78425958      18.39706047       82       0.08796100      -0.26811500      -0.10323100 
Pb      18.11555536      12.60914295       6.52950564       82      -0.26329900      -0.04372400      -0.05378500 
Pb      18.40391051      13.30144523      19.15978296       82       0.17231400       0.10470600      -0.17046900 
Pb       0.12552082       0.37469760       0.18280400       82      -0.78833500      -0.35246300      -0.17209700 
Pb       0.09535866      -0.02392055      12.27218765       82       0.13108300       0.46021000      -0.13020300 
Pb      -0.41433469      12.63182735       0.25875505       82       0.49705300      -0.48383900       0.21764700 
Pb      -0.13244714      12.37587007      13.13504924       82       0.07279000       0.28435600       0.18195500 
Pb      12.64566165       0.46743523      -0.06965728       82      -0.10223200      -0.48606200      -0.51542500 
Pb      12.42010700       0.56937931      12.65374590       82       0.20807000      -0.56265600      -0.02252700 
Pb      11.96677841      11.88790502      -0.08508023       82       0.36088800      -0.06072700       1.01568700 
Pb      11.97660680      12.66829196      12.90269187       82       0.04793300       1.09231000      -0.33092300 
Pb       5.80976558       6.45952387       0.39940040       82      -0.68487800       0.85112800      -0.19250600 
Pb       6.27566237       6.17824088      12.61727453       82      -0.88274100      -0.58742400      -0.04265100 
Pb       5.31972901      18.46246268      -0.06078884       82       0.15849500       0.38122400      -0.45045700 
Pb       5.73339443      18.40022232      12.76611037       82      -0.00686900       0.21553400      -0.51070100 
Pb      17.28064438       6.80000511       0.01905319       82       0.01522000      -0.56957900      -0.29581400 
Pb      18.59280450       6.85618155      13.07453177       82      -0.05344200      -0.26354200      -0.27820500 
Pb      18.13603399      18.65998657       0.50648225       82      -0.14052700       0.79346400      -0.52126700 
Pb      17.73135386      19.14178147      12.57134175       82       0.25504000       0.34871900       0.17520500 
Pb      -0.31282423       6.45796612       0.37691592       82       0.04422900       0.10502100      -0.19964400 
Pb      -0.49005395       5.72055678      12.90381214       82       0.62729300       1.19974300      -0.44492400 
Pb      -0.93626693      18.68901495       0.58619487       82       0.49278200       0.26361400      -0.09683900 
Pb      -0.46236314      18.70573200      12.61039842       82      -0.41100600      -0.38634200       1.03127400 
Pb      12.00327489       6.17939398      -0.00163887       82       0.09235500       0.33963100       0.14930900 
Pb      12.50801879       6.28792830      12.24674219       82      -0.54257800      -0.28831900       0.16931500 
Pb      11.86648962      18.30592212       0.21796969       82       0.07348500       0.30365700      -0.57555500 
Pb      11.75792439      19.10776985      12.70253149       82       0.11764100       0.04909500      -0.26626100 
Pb       6.47150490       0.47738917       0.13537722       82      -0.38586100      -0.52970700      -0.48974200 
Pb       6.40371441      -0.12276651      12.73669763       82      -0.17949800      -0.03833700      -0.19714800 
Pb       5.70171992      12.44251808       0.22239570       82      -0.16136700      -0.61609800       0.02384500 
Pb       6.28013571      12.06734726      12.69215746       82      -0.98834200       1.06557700      -0.14363800 
Pb      18.85247507       0.66177603      -0.46813443       82       0.01975500      -0.49165900       1.37157100 
Pb      18.84445069       0.76423775      12.57839749       82      -0.19402500       0.10126000      -0.12991700 
Pb      18.35426057      12.57567119       0.14831241       82      -0.87077800       0.40729500       0.58645200 
Pb      18.32990447      13.23404296      12.92648687       82       0.03680900      -0.37349100      -0.29989800 
I      12.19285070       3.64793884       5.88570117       53      -0.09227300       0.57282600      -0.06035700 
I      11.97590374       3.14764702      18.95006460       53       0.12627300       0.06574000      -0.22207900 
I      11.69987247      16.13642930       5.43615540       53      -0.24655500       0.06978300       0.27010500 
I      11.29623534      15.93346150      19.74509900       53       0.04343900       0.08280200       0.08618500 
I      24.06535498       4.15558577       5.97002136       53      -0.00018700       0.19385300      -0.03966600 
I      23.84157537       3.87058081      19.21969491       53       0.27396400      -0.12262900       0.00686200 
I      24.62735503      16.14824616       6.96326919       53      -0.14362300       0.61234600       0.13448800 
I      23.70314929      16.40927264      20.04726430       53       0.17193900      -0.42440700       0.16013500 
I       4.72837610       9.18368866       7.45300252       53       0.37671200       0.31890000      -0.11626700 
I       5.14422604       9.28955173      18.46012171       53       0.26190700       0.44101700      -0.02384200 
I       5.53859684      22.12700751       6.49937245       53      -0.09508300      -0.67604800       0.18204800 
I       4.32100636      21.65043150      17.79229626       53       0.55961400       0.14441700       0.51796800 
I      17.17350749       9.85690877       7.37432131       53       0.16848200       0.21260000      -0.61118200 
I      17.46810424      10.24109386      18.71635906       53       0.04260100      -0.13738300       0.08482100 
I      17.81650942      22.29332238       5.88399469       53       0.29591900       0.19484700       0.50981600 
I      18.61140089      22.14654164      20.22995628       53      -0.40038000       0.12399200      -0.32903000 
I       0.32854850       9.79019702       6.68878698       53       0.15222200      -0.71388700       0.03988600 
I       0.22468741       9.57917007      18.23180503       53      -0.14467500      -0.01239200       0.16595400 
I      -0.26151708      22.19478738       6.73937755       53       0.12424400      -0.19998100       0.05767900 
I      -0.05955655      21.94009716      18.81086014       53      -0.15746200       0.29868300       0.21155800 
I      12.18397067      10.36401006       7.14245262       53       0.67702000      -1.26927500       0.14553000 
I      11.94660399       9.62920051      18.28934510       53       0.04853500       0.04316700       0.01134200 
I      12.78274630      21.99140624       7.09496305       53      -0.03565100       0.38721100      -0.10297700 
I      11.83635933      21.75380295      19.76538448       53      -0.28154700       0.28409900      -0.03132600 
I       6.92691274       3.66716297       6.20410451       53       0.13953400      -0.72124400      -0.20543800 
I       6.70552721       3.35092096      19.54131128       53      -0.34014100      -0.34668900      -0.20397700 
I       6.57949745      15.58375738       6.22573817       53       0.13935400       0.08386300       0.02606700 
I       5.60300916      15.46640484      19.66067354       53       0.07216600      -0.12430900      -0.12395400 
I      18.81552083       3.77099894       6.06068746       53       0.12974000      -0.08356300       0.03813800 
I      18.81505727       3.76402722      19.04933646       53      -0.12139000       0.08355800       0.00863500 
I      19.08481698      16.30053840       6.28994575       53       0.07362400      -1.00012200       0.02123700 
I      18.37168358      16.39312827      18.76143426       53       0.13217900      -0.40702700       0.26264100 
I       2.81200899       5.95137088       6.27672276       53      -0.17027000      -0.22826500      -0.07633600 
I       2.57509234       6.45222573      18.44771865       53       0.22236700      -0.45079000       0.13759600 
I       2.98153303      17.75487169       6.69908086       53      -0.09891000       0.24609400      -0.52654700 
I       2.06785199      17.75742609      18.58962623       53       0.43816700       0.20199900      -0.05900000 
I      15.53870150       6.43843392       6.51210967       53      -0.19743900      -0.20494400       0.05663300 
I      15.11894319       6.36399041      19.32372982       53       0.07504900      -0.01065600      -0.06914900 
I      15.28904474      18.82050117       6.25695975       53       0.10457000      -0.08181000      -0.18423700 
I      14.73051655      19.37544259      18.73733601       53       0.03819300      -0.47182100       0.46302900 
I       8.94220694      11.92863919       8.00213787       53      -0.57059300       0.56495700      -0.33647400 
I       8.93894851      12.23874871      19.66351766       53      -0.35299900      -0.21623500       0.08684000 
I       8.69178917      24.62899293       5.80129213       53      -0.34750100       0.06058600       0.03432300 
I       8.32640039      24.37411053      18.79286637       53      -0.10355100      -0.15577500      -0.10959600 
I      21.49776551      12.88447598       6.35771886       53       0.02533300      -0.05025400       0.08959400 
I      21.48816697      13.34429535      18.58431077       53      -0.57509000      -0.15493800       0.12289200 
I      20.93694078      25.13283676       6.76922971       53       0.38232300      -0.12777000      -0.24966000 
I      20.63970947      25.74192945      17.55969553       53       0.40420000      -0.25083200       0.29012300 
I       9.15017730       7.32245403       6.50167286       53       0.26971300      -0.14458300      -0.13223700 
I       8.88754479       6.39313370      18.61087649       53      -0.24736200       0.27655100       0.31998600 
I       9.24942115      19.48678530       6.05371285       53      -0.74590200       0.09371000       0.22334800 
I       8.22222640      18.23525274      19.48307008       53       0.45460800       0.40376300      -0.21813100 
I      21.74988106       8.47585238       5.39723007       53      -0.11472100      -0.63353000       0.63653300 
I      21.44680023       8.10362225      18.91136526       53      -0.02688500      -0.22081800      -0.14899000 
I      21.58993528      19.37209145       7.13971666       53       0.15885600       0.05998500      -0.15415000 
I      21.03465199      19.15848500      20.60409858       53       0.03707700       0.16512100      -0.22433600 
I       3.27172019       1.26427267       6.48880527       53       0.21569600       0.02929400       0.08435000 
I       3.19899667       0.76035352      19.72744904       53      -0.51890500       0.03134300      -0.11226900 
I       2.82167707      13.08479475       5.60524969       53       0.31239100      -0.19608000       0.63549400 
I       2.44096770      12.84476454      19.30962222       53      -0.07214100       0.04805600       0.18476000 
I      15.68228948       0.77501739       6.14674310       53       0.33633600       0.07772800       0.26973200 
I      15.36903067       0.03768338      18.63874211       53       0.22418600       0.37606600       0.72681300 
I      15.36036117      13.49432775       5.92383362       53      -0.09859200       0.03468900       0.12754200 
I      14.93811027      13.61115300      19.60808388       53       0.13184200      -0.33408000      -0.47484800 
I       0.50665222       9.51992739       0.34720283       53      -0.04613600      -0.43671300       0.44704400 
I      -0.38344629       9.23876995      12.98267007       53       0.02420300      -0.14195900      -0.03447400 
I      -0.12932779      21.76357050       0.77246203       53      -0.19150100      -0.14029800      -0.11986600 
I       0.01184100      21.94159503      12.35001803       53      -0.01041000      -0.65834400      -0.08345700 
I      13.76173587       9.28913357      -0.08233558       53      -0.25684800       0.10859800      -0.13932600 
I      12.76356177       9.96581298      12.85223458       53       0.12210300      -1.03180200       0.01717000 
I      11.91136780      21.88935883      -0.62364550       53      -0.30741600       0.34148400       0.32565800 
I      11.95798626      22.26817727      12.35319533       53       0.01783500      -0.43087000       0.06949500 
I       6.03781185       3.52015335       0.33643767       53       0.36874500      -0.61659700       0.00967900 
I       7.00159576       2.80699194      12.81215808       53      -0.00686700       0.91685200       0.09319000 
I       5.81785080      15.46066348       0.43373941       53       0.04175400       0.07524000      -0.16918900 
I       6.30278823      15.37617912      12.51786167       53       0.01958600       0.18547100      -0.17872400 
I      18.44351862       3.82773841      -0.24539010       53       0.07285600       0.09435000      -0.10226600 
I      19.35001258       3.57148368      13.31140399       53       0.00158400       0.64480900      -0.13502500 
I      18.10636243      15.85242967       1.01259847       53      -0.17548000      -0.07802900      -0.23574000 
I      18.58435423      16.16889090      12.94737208       53       0.11968700       0.18770700      -0.06960900 
I      11.48864562       3.31179959      13.45510786       53      -0.36437800       0.69749200      -0.48921300 
I      11.13368109       3.68661018      25.24982522       53      -0.00564100       0.02484500       0.07382500 
I      11.82503210      15.96137154      12.79465008       53      -0.19942000       0.22073600       0.23928600 
I      11.54057085      15.60311961      25.63285817       53      -0.18550600      -0.16318700      -0.22164100 
I      24.33587667       3.51317294      13.32032265       53      -0.20668800      -0.46434300      -0.03933800 
I      23.90956770       4.17193391      25.20064174       53       0.18318600      -0.08771900      -0.03026500 
I      25.09173754      15.90174546      12.82374702       53      -0.26910300       0.59972600      -0.19581100 
I      23.87153569      16.30048142      25.46537379       53      -0.05039200       0.74988000      -0.26434900 
I       5.25426499       9.38928715      12.57672578       53       0.55639300      -1.01026700       0.32371600 
I       4.57783668       9.86976671      25.62141409       53       0.11279800      -0.41402700      -0.17837400 
I       5.23222958      21.53918633      13.61501598       53       0.02192100      -0.05673600      -0.22347700 
I       5.50701890      22.03012877      24.71818434       53       0.13118600      -0.22586400       0.61322900 
I      18.34937873       9.83730124      12.71448742       53      -0.02408400      -0.11300000       0.41365200 
I      18.37293326      10.01149756      25.13982683       53      -0.27043600      -0.14876600       0.30985700 
I      17.84793574      22.55534647      12.45935102       53       0.24029500      -0.88445700       0.23024100 
I      17.36031837      22.30870380      25.12095906       53       0.02130300       0.01003800       0.10215200 
I       8.93622511       7.19486651      12.71430007       53       0.55581700      -0.14110700       0.35160000 
I       8.78807881       7.07003910      25.63552266       53       0.26067700       0.06174000      -0.18528000 
I       8.76777401      19.02440285      12.26671863       53       0.04552500       0.11247200       0.01227200 
I       8.32585088      18.68289502      24.35081578       53      -0.03593800       0.09173200       0.15543800 
I      21.46842424       7.35445207      13.14936931       53      -0.05507100      -0.02972200       0.03541700 
I      21.49832661       7.58243750      25.19293703       53       0.35307500      -0.34564100       0.44763400 
I      21.44876263      19.75758126      12.49275422       53      -0.03404600      -0.16287400      -0.15073700 
I      21.14937095      19.05206952      24.67914988       53      -0.43223400       0.05757500       0.00939600 
I       3.41470458       0.24167101      12.11077683       53      -0.43686600       0.25599200       0.00998900 
I       2.92850202       1.01209918      25.44673297       53       0.78084000      -0.13219100      -0.93453400 
I       3.08061174      12.54333417      13.41159428       53      -0.07871300      -0.37757700      -0.09419500 
I       2.70554426      13.42929349      25.03330994       53      -0.64182700       0.01272700       0.10792300 
I      15.45371784       1.34689026      12.41836769       53       0.11454500      -0.16240100       0.28865100 
I      15.52364843       0.41342979      24.65968915       53      -0.06769100       0.26478200      -0.05366900 
I      15.21917017      13.27164426      12.98019873       53       0.02285200       0.03100400       0.11538600 
I      15.22087278      13.46348377      25.48172965       53      -0.37425100      -0.01994800      -0.17261300 
I       2.77888586       5.49979029      -0.32046231       53      -0.17523800       0.15792100       0.20187800 
I       2.72870863       6.03777612      12.51016854       53      -0.25780700      -0.15766300       0.00101800 
I       2.02766539      18.39008683       0.30314843       53       0.34729700      -0.17368000       0.15616500 
I       2.77434202      18.21372628      12.50742390       53       0.12165400       0.18105000       0.40338000 
I      14.63982437       5.03955180      -0.34577353       53       0.58191000      -0.12247500       0.15513800 
I      15.35772662       5.99695117      12.46193922       53       0.17947300      -0.21164000       0.12050000 
I      14.70409183      19.16895368       0.85564168       53       0.04839000      -0.28257200       0.08448000 
I      14.84818489      18.66625523      13.14297607       53       0.37564400       0.02762100      -0.06892900 
I       8.38876243      11.14493106      -0.02609830       53       0.80094100      -0.01134000      -0.09169400 
I       9.07835965      11.94341413      12.12022858       53       0.68378000      -0.18790100      -0.26260700 
I       8.41359367      24.79939194       0.72913580       53       0.03908400      -0.11494300       0.23954300 
I       8.36118267      24.41976420      13.80675795       53       0.59830900      -0.08518300       0.02177800 
I      21.20313592      12.96790769       0.60323931       53       0.82200700      -0.12772900      -0.34154300 
I      21.56157038      12.36839906      12.70932165       53      -0.19355400       0.45952100       0.12648600 
I      20.64864261      24.09543215       0.88537987       53       0.30869500       0.33859600      -0.18245200 
I      21.04032961      25.01139622      12.48374672       53       0.09484000       0.05755600      -0.11399800 
I      12.24547223      13.67787055       9.96361108       53      -0.00575400      -0.36732600      -0.29412100 
I      12.03724209      12.08555543      22.23012980       53      -0.16549900       0.10649300      -0.69235200 
I      11.54968072      25.55902404      10.09253711       53      -0.19083600       0.14873100      -0.40729800 