96
Lattice="12.89744980735948 0.01121704384233115 -0.01449210875916435 0.006966149058640549 12.92430804707054 -0.007261705567406892 0.027915956073338948 0.06608742976760379 12.87358478079675" Properties=species:S:1:pos:R:3:forces:R:3 energy=-456.95610617645747 stress="0.004137228782867568 3.461985287234418e-05 2.8072756227095272e-05 3.461985287234418e-05 0.005220774306076612 -0.000757507655104088 2.8072756227095272e-05 -0.000757507655104088 0.004801451872904942" free_energy=-456.95610617645747 pbc="T T T"
H       11.10363451       5.57746685       4.65579356       0.00001313      -0.00000889       0.00001647
H       11.09816349       0.13325698       5.65442345      -0.00001497       0.00001099       0.00000116
H       11.11415808      -0.85159893      11.09612388      -0.00000070      -0.00001535      -0.00002186
H       11.11552724       6.62837488      12.08757282      -0.00001598       0.00000137       0.00001493
H        9.56925989       5.88400168       2.94281561       0.00000196       0.00000560      -0.00000205
H       11.03902217      -1.78676231       4.34705265      -0.00004173       0.00000478      -0.00002017
H        4.61654084       8.66097290      11.26501276      -0.00000760      -0.00001712      -0.00001123
H        9.58977787       8.34596963      11.76202402       0.00000816      -0.00001776       0.00000124
H        3.22573459       1.61744360       5.76706742       0.00001352       0.00000106      -0.00000578
H        3.22259108       5.47112726       3.17194689       0.00001579       0.00002043      -0.00002598
H        3.24285452       8.11245351      12.20032509       0.00000871       0.00003004      -0.00001446
H        8.77843684       7.51417215      10.43763287      -0.00000511      -0.00001079      -0.00000278
H        2.31388952      -0.63316551       5.18051116      -0.00000373      -0.00000399       0.00001733
H        2.32379626       6.08065857       5.42256825       0.00002404       0.00004564      -0.00000929
H        2.33126798       5.86186352      11.61343407       0.00001628       0.00000236       0.00000457
H        3.23335593      -0.95794031       9.61220087      -0.00000157      -0.00000187      -0.00000300
H       11.06159493       6.91234291       6.55692418       0.00005625      -0.00001898       0.00001711
H        3.13265842       7.41694227       6.23717524      -0.00002411       0.00001660       0.00005895
H        9.57978338      -0.54495482       9.38316135      -0.00002418       0.00001904       0.00003645
H        4.60840453      -0.03157082       9.05026383       0.00005054       0.00003157      -0.00001721
C       10.34447165       6.36092695       4.74372332      -0.00001017       0.00003229       0.00002844
C        3.89431717       6.94416283       4.42947200       0.00003070      -0.00001854      -0.00005924
C        3.90423205       6.83881668      10.73642391       0.00004691       0.00000588       0.00001828
C        3.90479593       0.51509807      10.86988872      -0.00001300      -0.00003483      -0.00004698
N        3.88304485       1.45360820       5.00499832      -0.00000319       0.00002952       0.00000927
N        3.88327128       6.23238548       3.32598318      -0.00002593      -0.00002663       0.00006490
N        3.90028407       7.94876689      11.43832680      -0.00001013      -0.00000071       0.00002690
N        9.52528781       7.53871903      11.13805232      -0.00000950       0.00000717       0.00002935
N        3.05684464      -0.65880065       4.47589059      -0.00002172      -0.00001508      -0.00000189
N        3.06885335       6.78310764       5.43757981      -0.00004141      -0.00004225       0.00000469
N        9.52215779       0.09080352      10.18174077      -0.00000702      -0.00002499      -0.00000236
N        3.89394545      -0.19663091       9.76636713      -0.00005329      -0.00003486       0.00001336
Pb       6.93963970      -2.95011009      14.23193136       0.00000558       0.00000242       0.00000695
Pb       0.49053691      -3.03495997      14.27071006      -0.00001604      -0.00000215       0.00000999
Pb       6.92919229       3.47898339       7.79147278      -0.00000491       0.00000437      -0.00001591
Pb       6.92420937      -2.99981568       7.77458034      -0.00001208       0.00001335      -0.00000622
I       10.15532480      -3.14532647      13.95940536      -0.00001006       0.00001770       0.00001190
I        3.71399353      10.08846863      14.52721833      -0.00000103       0.00000222      -0.00000275
I        3.69208745      -3.29780953       7.64677307       0.00001638       0.00000114       0.00000325
I       10.14078443      -2.75024042       7.97426674      -0.00001471      -0.00000178       0.00000190
I        6.74041153       6.69775205      13.88405883       0.00001293       0.00000532       0.00000127
I        7.19885572       0.17340016       1.90540776       0.00000354      -0.00001314       0.00000848
I        6.72310856       0.20254182       7.45082297       0.00000513       0.00001554       0.00000901
I        7.21630592       6.66857871       8.33861258       0.00000282      -0.00000498      -0.00000082
I        7.22201229       9.33955018       4.58571977      -0.00000310       0.00000414       0.00000172
I        0.25449141      -3.40274526       4.60057478      -0.00001005       0.00001582       0.00001570
I        0.78372682      -2.46524702      11.03536051       0.00001151       0.00000611      -0.00000026
I        6.71549056      -2.64878567      11.02968441       0.00000948      -0.00000480      -0.00001827
H        4.64507261       0.24820540       3.51964366       0.00001962      -0.00002191       0.00000735
H        4.65502073       7.72646647       4.51427933      -0.00002591      -0.00000667      -0.00004596
H        4.66260140       6.74355715       9.95295565      -0.00000040       0.00001988      -0.00000973
H        4.66542480       1.29746081      10.95481650      -0.00003096       0.00000294      -0.00001355
H        4.59934390       2.16573729       4.83152934      -0.00003404       0.00000358       0.00003035
H        4.59766665       6.39735715       2.60979785       0.00003769       0.00001625      -0.00003423
H       11.07206281       0.48309715      12.99737962      -0.00000747      -0.00000011      -0.00003994
H        3.14289548       0.98771699      12.67753196      -0.00000024      -0.00000679      -0.00001383
H        8.76759385       7.22333603       3.75977389       0.00002423       0.00000522      -0.00001456
H        9.66145605      -1.23614914       3.41809100       0.00000973       0.00000804      -0.00001869
H        9.69471238       1.40962332      12.44220829       0.00003744       0.00001163       0.00000473
H        2.33423251      -0.34859132      11.86276645      -0.00001084       0.00002006      -0.00002472
H        9.68431068       7.83890503       6.00165529      -0.00001618      -0.00003847      -0.00000878
H        8.76103612       1.01877298       4.00438124      -0.00002274       0.00000381      -0.00000985
H        8.77808204       0.79429580      10.20022655       0.00000092      -0.00001106      -0.00000860
H        9.67869329       5.25926925       9.85113925       0.00000530      -0.00000044       0.00001892
H        3.11546830      -1.46516470       3.85016589       0.00001408       0.00000539      -0.00000687
H        9.57229459       1.85071424       5.32873489       0.00001930      -0.00002220      -0.00002703
H        3.13306981       5.03005133      10.28310770      -0.00000495      -0.00000254       0.00000672
H       11.05621990       4.70845581      10.78005189       0.00000143       0.00000139       0.00000050
C        3.88681564       0.34358800       4.30320511      -0.00001602       0.00000992      -0.00000948
C       10.33533422       0.03856782       4.87523219       0.00001897       0.00000607       0.00001721
C       10.35496355      -0.06817629      11.18412029       0.00004476       0.00001104       0.00002802
C       10.35268057       6.53379687      11.30838587       0.00001303       0.00000445      -0.00005420
N        9.51166421       6.51983815       3.74133519      -0.00005117       0.00000625       0.00002390
N       10.32368651      -1.07305848       4.17608598       0.00003842      -0.00000633       0.00002245
N       10.35319043       0.64704834      12.28543964      -0.00003943       0.00000207       0.00001527
N        3.07922211       0.35392908      11.87788858       0.00002746       0.00003165       0.00006444
N       10.34273202       7.07626292       5.84497191       0.00000341       0.00000447      -0.00005294
N        9.50787235       1.04341810       4.70481549      -0.00001801       0.00001469       0.00002605
N        3.07431310       5.83634954      10.90890717      -0.00003110      -0.00003215      -0.00000807
N       10.34094250       5.42222937      10.60914735       0.00003019      -0.00000518      -0.00000404
Pb       0.49356354       3.44353951      14.28801937      -0.00000943       0.00000822       0.00001738
Pb       6.94158097       3.49540894      14.20770183       0.00000941       0.00000671       0.00002048
Pb       0.47615846      -3.05167470       7.85489171      -0.00000501       0.00000874      -0.00001622
Pb       0.48004082       3.39416446       7.83027378      -0.00000087      -0.00000781      -0.00002244
I        3.70947984       3.19735529      14.07978481       0.00001509      -0.00000051       0.00000787
I       10.15817699       3.74494148      14.40736335      -0.00000717       0.00000793      -0.00000046
I       10.14486188       3.28385251       7.51881724      -0.00003270      -0.00000884       0.00001196
I        3.69655103       3.59323450       8.09390762       0.00002832      -0.00000411       0.00001202
I        0.28883377       0.24138975      14.61285225      -0.00000378      -0.00003056       0.00000301
I        0.74917575       6.63343129       0.84293219       0.00001686       0.00000245       0.00000376
I        0.27835532       6.67048150       8.17245213      -0.00001352      -0.00001111      -0.00001402
I        0.75965176       0.20430068       7.28346900       0.00000796      -0.00000149      -0.00000773
I       13.67074788       3.97515822       4.58039861       0.00001145      -0.00001604      -0.00000800
I        6.70510258       3.78040111       4.58918711       0.00000482      -0.00001651      -0.00000733
I        7.23244727       2.91045664      11.02607328       0.00000139      -0.00000901      -0.00000599
I        0.27178936       3.09252638      11.03369157      -0.00000565       0.00000403      -0.00000020
