320
Lattice="32.02322280035416 0.0731645612808962 -0.51025035730628 -0.06499422802095871 27.818292511881694 -0.09154644074867778 0.26868137556035143 0.05614834862120099 16.861148581525068" Properties=species:S:1:pos:R:3:forces:R:3 energy=-988.0520457601416 stress="5.0333440718787606e-08 7.235769076465363e-09 2.4261206370466943e-08 7.235769076465363e-09 -5.720574926885082e-08 2.1919487028130883e-08 2.4261206370466943e-08 2.1919487028130883e-08 5.921696852194165e-08" free_energy=-988.0520457601416 pbc="T T T"
Cs       1.48742058       2.63872222       3.51322527       0.00000276       0.00000184       0.00000516
Cs       5.40912830       5.25304858       7.65860166      -0.00001731      -0.00000128      -0.00002500
Cs       1.53036327       9.63509545      16.13849752      -0.00001611      -0.00000895       0.00001169
Cs       5.46803698      12.19394114       3.41800030       0.00000315      -0.00002572       0.00000937
Cs       9.49325935       2.65700397       3.38561428      -0.00001313      -0.00000853       0.00000971
Cs      13.41490802       5.27134188       7.53098372       0.00000283       0.00000760      -0.00000874
Cs       9.53616757       9.65336169      16.01099201      -0.00001046      -0.00000390      -0.00000615
Cs      13.47383537      12.21221044       3.29046513       0.00001047      -0.00000480       0.00000472
Pb       4.18482422      14.38066038       7.64756767       0.00001573       0.00000225      -0.00001515
Pb       8.18770992      14.40131395       7.58377330      -0.00002053      -0.00002256       0.00001414
Pb       2.67921057       7.42022157       3.47834683      -0.00005177       0.00002581      -0.00000850
Pb      30.69955156       7.47276726       3.03196507       0.00002521       0.00002041       0.00000984
Pb      12.19063605      14.39897384       7.52007726       0.00003711      -0.00001578      -0.00000802
Pb      16.19351175      14.41961490       7.45623189      -0.00000392      -0.00001381      -0.00001471
Pb      10.68501931       7.43853180       3.35089854      -0.00000823      -0.00000965      -0.00000544
Pb       6.68214160       7.41787404       3.41464733      -0.00000399       0.00002073       0.00000858
I        6.19414901       1.77230566       1.40009340       0.00005727      -0.00001364      -0.00000129
I        0.56795039       6.09135113       1.34107640       0.00000502      -0.00000235      -0.00001237
I        6.25929928       1.78592457       5.48112462      -0.00000719       0.00001515      -0.00000007
I        0.63729949       6.10587851       5.69062631      -0.00000929      -0.00002685       0.00000668
I        4.58521980       4.89772659       3.45642005       0.00001636      -0.00000421      -0.00000558
I        2.31133745       2.99402414       7.71535923      -0.00002829       0.00002286      -0.00001740
I        4.63400672       8.73724102       5.61817237       0.00003556       0.00001103       0.00002706
I        2.22994935      13.06367921       5.50773546       0.00001417       0.00000492       0.00002659
I        4.56478425       8.72276473       1.26863153       0.00002630       0.00000204       0.00001759
I        2.16494816      13.05005510       1.42672957      -0.00000073      -0.00000604      -0.00001432
I        6.29350763      11.87012050       7.62226933       0.00000507       0.00001180       0.00002618
I        0.57052840       9.93078349       3.50360433       0.00002935      -0.00001962      -0.00001367
I       14.20001560       1.79065596       1.27255096       0.00000631      -0.00000236       0.00000477
I        8.57385478       6.10968992       1.21353047      -0.00002281       0.00000496       0.00000080
I       14.26505129       1.80416889       5.35356884       0.00001763       0.00002023       0.00001861
I        8.64303827       6.12406459       5.56307262       0.00000162       0.00002855      -0.00002021
I       12.59103881       4.91603703       3.32894611      -0.00000769      -0.00002824      -0.00000785
I       10.31712507       3.01231970       7.58787706      -0.00002623       0.00001463      -0.00001591
I       12.63988474       8.75556078       5.49069654      -0.00001593      -0.00000173      -0.00000018
I       10.23583183      13.08199775       5.38021258      -0.00002535      -0.00000556      -0.00001324
I       12.57054035       8.74106607       1.14115539      -0.00000037       0.00000608      -0.00001764
I       10.17072433      13.06829293       1.29917145      -0.00001349       0.00000204       0.00002296
I       14.29930723      11.88843145       7.49484377       0.00000706      -0.00000052       0.00001695
I        8.57634711       9.94906420       3.37616620      -0.00001615       0.00000317      -0.00000998
Cs       1.62176127       2.66679639      11.94379956       0.00000276       0.00000184       0.00000515
Cs       5.54346899       5.28112275      16.08917595      -0.00001731      -0.00000128      -0.00002500
Cs       1.39602258       9.60702127       7.70792323      -0.00001611      -0.00000895       0.00001169
Cs       5.60237767      12.22201531      11.84857459       0.00000315      -0.00002572       0.00000937
Cs       9.62760004       2.68507814      11.81618857      -0.00001314      -0.00000853       0.00000970
Cs      13.54924871       5.29941605      15.96155801       0.00000283       0.00000761      -0.00000874
Cs       9.40182688       9.62528751       7.58041772      -0.00001046      -0.00000390      -0.00000615
Cs      13.60817606      12.24028461      11.72103942       0.00001047      -0.00000480       0.00000472
Pb       4.31916491      14.40873455      16.07814196       0.00001573       0.00000226      -0.00001515
Pb       8.32205061      14.42938812      16.01434759      -0.00002054      -0.00002255       0.00001414
Pb       2.81355126       7.44829574      11.90892112      -0.00005177       0.00002580      -0.00000850
Pb      30.83389225       7.50084144      11.46253936       0.00002521       0.00002038       0.00000984
Pb      12.32497674      14.42704801      15.95065155       0.00003711      -0.00001576      -0.00000801
Pb      16.32785244      14.44768907      15.88680618      -0.00000393      -0.00001380      -0.00001472
Pb      10.81936000       7.46660597      11.78147283      -0.00000823      -0.00000965      -0.00000544
Pb       6.81648229       7.44594821      11.84522162      -0.00000399       0.00002073       0.00000858
I        6.32848970       1.80037983       9.83066769       0.00005727      -0.00001364      -0.00000128
I        0.70229108       6.11942530       9.77165069       0.00000502      -0.00000234      -0.00001236
I        6.39363997       1.81399874      13.91169891      -0.00000718       0.00001516      -0.00000008
I        0.77164018       6.13395268      14.12120060      -0.00000930      -0.00002685       0.00000668
I        4.71956049       4.92580076      11.88699434       0.00001636      -0.00000421      -0.00000558
I        2.44567814       3.02209831      16.14593352      -0.00002830       0.00002289      -0.00001740
I        4.76834741       8.76531519      14.04874666       0.00003556       0.00001103       0.00002706
I        2.36429004      13.09175338      13.93830975       0.00001418       0.00000492       0.00002660
I        4.69912494       8.75083890       9.69920582       0.00002630       0.00000204       0.00001759
I        2.29928885      13.07812927       9.85730386      -0.00000072      -0.00000603      -0.00001432
I        6.42784832      11.89819467      16.05284362       0.00000506       0.00001180       0.00002619
I        0.70486909       9.95885766      11.93417862       0.00002936      -0.00001960      -0.00001367
I       14.33435629       1.81873013       9.70312525       0.00000631      -0.00000236       0.00000477
I        8.70819547       6.13776409       9.64410476      -0.00002281       0.00000496       0.00000080
I       14.39939198       1.83224306      13.78414313       0.00001764       0.00002024       0.00001860
I        8.77737896       6.15213876      13.99364691       0.00000162       0.00002855      -0.00002021
I       12.72537950       4.94411120      11.75952040      -0.00000769      -0.00002824      -0.00000785
I       10.45146576       3.04039387      16.01845135      -0.00002624       0.00001466      -0.00001591
I       12.77422543       8.78363495      13.92127083      -0.00001593      -0.00000173      -0.00000018
I       10.37017252      13.11007192      13.81078687      -0.00002534      -0.00000556      -0.00001323
I       12.70488104       8.76914024       9.57172968      -0.00000037       0.00000608      -0.00001764
I       10.30506502      13.09636710       9.72974574      -0.00001349       0.00000205       0.00002295
I       14.43364792      11.91650562      15.92541806       0.00000705      -0.00000052       0.00001695
I        8.71068780       9.97713837      11.80674049      -0.00001615       0.00000317      -0.00000998
Cs       1.45492347      16.54786848       3.46745205       0.00000276       0.00000184       0.00000516
Cs       5.37663119      19.16219484       7.61282844      -0.00001732      -0.00000128      -0.00002500
Cs       1.49786615      23.54424170      16.09272430      -0.00001611      -0.00000894       0.00001169
Cs       5.43553987      26.10308740       3.37222708       0.00000315      -0.00002572       0.00000937
Cs       9.46076224      16.56615023       3.33984106      -0.00001313      -0.00000853       0.00000971
Cs      13.38241091      19.18048814       7.48521050       0.00000283       0.00000760      -0.00000874
Cs       9.50367045      23.56250794      15.96521879      -0.00001046      -0.00000389      -0.00000615
Cs      13.44133826      26.12135670       3.24469191       0.00001047      -0.00000481       0.00000472
Pb       4.21732133       0.47151412       7.69334089       0.00001573       0.00000227      -0.00001515
Pb       8.22020703       0.49216769       7.62954652      -0.00002052      -0.00002254       0.00001414
Pb       2.64671346      21.32936783       3.43257361      -0.00005177       0.00002581      -0.00000850
Pb      30.66705445      21.38191352       2.98619185       0.00002520       0.00002041       0.00000984
Pb      12.22313316       0.48982758       7.56585048       0.00003711      -0.00001576      -0.00000801
Pb      16.22600886       0.51046864       7.50200511      -0.00000391      -0.00001379      -0.00001472
Pb      10.65252220      21.34767806       3.30512532      -0.00000823      -0.00000965      -0.00000544
Pb       6.64964449      21.32702030       3.36887411      -0.00000399       0.00002073       0.00000858
I        6.16165190      15.68145192       1.35432018       0.00005727      -0.00001365      -0.00000130
I        0.53545328      20.00049739       1.29530318       0.00000502      -0.00000235      -0.00001237
I        6.22680217      15.69507083       5.43535140      -0.00000718       0.00001515      -0.00000007
I        0.60480238      20.01502477       5.64485309      -0.00000929      -0.00002685       0.00000669
I        4.55272269      18.80687285       3.41064683       0.00001636      -0.00000421      -0.00000558
I        2.27884034      16.90317040       7.66958601      -0.00002830       0.00002286      -0.00001740
I        4.60150961      22.64638728       5.57239915       0.00003556       0.00001103       0.00002706
I        2.19745224      26.97282547       5.46196224       0.00001417       0.00000491       0.00002658
I        4.53228714      22.63191099       1.22285831       0.00002629       0.00000204       0.00001759
I        2.13245105      26.95920136       1.38095635      -0.00000073      -0.00000604      -0.00001432
I        6.26101052      25.77926676       7.57649611       0.00000505       0.00001177       0.00002619
I        0.53803129      23.83992975       3.45783111       0.00002935      -0.00001962      -0.00001367
I       14.16751849      15.69980222       1.22677774       0.00000631      -0.00000238       0.00000476
I        8.54135767      20.01883618       1.16775725      -0.00002281       0.00000496       0.00000080
I       14.23255418      15.71331515       5.30779562       0.00001764       0.00002022       0.00001861
I        8.61054116      20.03321085       5.51729940       0.00000162       0.00002855      -0.00002021
I       12.55854170      18.82518329       3.28317289      -0.00000769      -0.00002824      -0.00000785
I       10.28462796      16.92146596       7.54210384      -0.00002623       0.00001462      -0.00001591
I       12.60738763      22.66470704       5.44492332      -0.00001593      -0.00000173      -0.00000017
I       10.20333472      26.99114401       5.33443936      -0.00002535      -0.00000558      -0.00001325
I       12.53804324      22.65021233       1.09538217      -0.00000037       0.00000608      -0.00001764
I       10.13822722      26.97743919       1.25339823      -0.00001350       0.00000204       0.00002296
I       14.26681012      25.79757771       7.44907055       0.00000704      -0.00000055       0.00001695
I        8.54385000      23.85821046       3.33039298      -0.00001615       0.00000317      -0.00000998
Cs       1.58926415      16.57594265      11.89802634       0.00000276       0.00000184       0.00000516
Cs       5.51097187      19.19026901      16.04340273      -0.00001731      -0.00000128      -0.00002500
Cs       1.36352546      23.51616753       7.66215001      -0.00001611      -0.00000895       0.00001169
Cs       5.56988055      26.13116157      11.80280137       0.00000315      -0.00002572       0.00000937
Cs       9.59510292      16.59422440      11.77041535      -0.00001313      -0.00000853       0.00000971
Cs      13.51675159      19.20856231      15.91578479       0.00000283       0.00000761      -0.00000874
Cs       9.36932976      23.53443377       7.53464450      -0.00001045      -0.00000390      -0.00000615
Cs      13.57567894      26.14943087      11.67526620       0.00001047      -0.00000481       0.00000472
Pb       4.35166202       0.49958830      16.12391518       0.00001574       0.00000223      -0.00001515
Pb       8.35454772       0.52024187      16.06012081      -0.00002053      -0.00002259       0.00001414
Pb       2.78105414      21.35744200      11.86314790      -0.00005177       0.00002581      -0.00000850
Pb      30.80139513      21.40998769      11.41676614       0.00002520       0.00002041       0.00000984
Pb      12.35747385       0.51790176      15.99642477       0.00003712      -0.00001580      -0.00000802
Pb      16.36034955       0.53854282      15.93257940      -0.00000392      -0.00001383      -0.00001471
Pb      10.78686288      21.37575223      11.73569961      -0.00000823      -0.00000965      -0.00000544
Pb       6.78398517      21.35509447      11.79944840      -0.00000399       0.00002073       0.00000858
I        6.29599258      15.70952609       9.78489447       0.00005728      -0.00001364      -0.00000129
I        0.66979396      20.02857156       9.72587747       0.00000502      -0.00000234      -0.00001236
I        6.36114285      15.72314500      13.86592569      -0.00000718       0.00001515      -0.00000007
I        0.73914306      20.04309894      14.07542738      -0.00000929      -0.00002685       0.00000668
I        4.68706337      18.83494702      11.84122112       0.00001636      -0.00000421      -0.00000558
I        2.41318102      16.93124457      16.10016030      -0.00002828       0.00002286      -0.00001740
I        4.73585029      22.67446145      14.00297344       0.00003556       0.00001103       0.00002706
I        2.33179292      27.00089964      13.89253653       0.00001418       0.00000492       0.00002660
I        4.66662782      22.65998516       9.65343260       0.00002630       0.00000204       0.00001759
I        2.26679173      26.98727553       9.81153064      -0.00000072      -0.00000604      -0.00001432
I        6.39535120      25.80734093      16.00707040       0.00000507       0.00001180       0.00002618
I        0.67237197      23.86800392      11.88840540       0.00002935      -0.00001962      -0.00001367
I       14.30185917      15.72787639       9.65735203       0.00000632      -0.00000237       0.00000477
I        8.67569835      20.04691035       9.59833154      -0.00002281       0.00000496       0.00000080
I       14.36689486      15.74138932      13.73836991       0.00001764       0.00002022       0.00001862
I        8.74488184      20.06128502      13.94787369       0.00000162       0.00002855      -0.00002021
I       12.69288238      18.85325746      11.71374718      -0.00000769      -0.00002824      -0.00000785
I       10.41896864      16.94954013      15.97267813      -0.00002622       0.00001462      -0.00001591
I       12.74172831      22.69278121      13.87549761      -0.00001593      -0.00000174      -0.00000018
I       10.33767540      27.01921818      13.76501365      -0.00002534      -0.00000556      -0.00001323
I       12.67238392      22.67828650       9.52595646      -0.00000037       0.00000608      -0.00001764
I       10.27256790      27.00551336       9.68397252      -0.00001349       0.00000204       0.00002296
I       14.40115080      25.82565188      15.87964484       0.00000706      -0.00000051       0.00001695
I        8.67819068      23.88628463      11.76096727      -0.00001615       0.00000317      -0.00000998
Cs      17.49903198       2.67530450       3.25810009       0.00000276       0.00000184       0.00000516
Cs      21.42073970       5.28963086       7.40347648      -0.00001731      -0.00000128      -0.00002500
Cs      17.54197467       9.67167773      15.88337234      -0.00001611      -0.00000895       0.00001169
Cs      21.47964838      12.23052342       3.16287512       0.00000315      -0.00002572       0.00000937
Cs      25.50487075       2.69358625       3.13048910      -0.00001313      -0.00000853       0.00000971
Cs      29.42651942       5.30792416       7.27585854       0.00000283       0.00000760      -0.00000874
Cs      25.54777897       9.68994397      15.75586683      -0.00001046      -0.00000390      -0.00000615
Cs      29.48544677      12.24879272       3.03533995       0.00001047      -0.00000480       0.00000472
Pb      20.19643562      14.41724266       7.39244249       0.00001573       0.00000225      -0.00001515
Pb      24.19932132      14.43789623       7.32864812      -0.00002053      -0.00002256       0.00001414
Pb      18.69082197       7.45680385       3.22322165      -0.00005177       0.00002581      -0.00000850
Pb      14.68794016       7.43618498       3.28709025       0.00002520       0.00002041       0.00000983
Pb      28.20224745      14.43555612       7.26495208       0.00003711      -0.00001578      -0.00000802
Pb       0.18190035      14.38303262       7.71135707      -0.00000392      -0.00001381      -0.00001472
Pb      26.69663071       7.47511408       3.09577336      -0.00000823      -0.00000965      -0.00000544
Pb      22.69375300       7.45445632       3.15952215      -0.00000399       0.00002073       0.00000858
I       22.20576041       1.80888794       1.14496822       0.00005727      -0.00001364      -0.00000129
I       16.57956179       6.12793341       1.08595122       0.00000502      -0.00000234      -0.00001236
I       22.27091068       1.82250685       5.22599944      -0.00000719       0.00001515      -0.00000007
I       16.64891089       6.14246079       5.43550113      -0.00000929      -0.00002686       0.00000669
I       20.59683120       4.93430887       3.20129487       0.00001636      -0.00000421      -0.00000558
I       18.32294885       3.03060642       7.46023405      -0.00002829       0.00002286      -0.00001740
I       20.64561812       8.77382330       5.36304719       0.00003556       0.00001103       0.00002706
I       18.24156075      13.10026149       5.25261028       0.00001417       0.00000492       0.00002660
I       20.57639565       8.75934701       1.01350635       0.00002630       0.00000204       0.00001759
I       18.17655956      13.08663738       1.17160439      -0.00000072      -0.00000604      -0.00001432
I       22.30511903      11.90670278       7.36714415       0.00000507       0.00001180       0.00002618
I       16.58213980       9.96736577       3.24847915       0.00002935      -0.00001961      -0.00001367
I       30.21162700       1.82723824       1.01742578       0.00000631      -0.00000236       0.00000477
I       24.58546618       6.14627220       0.95840529      -0.00002281       0.00000496       0.00000080
I       30.27666269       1.84075117       5.09844366       0.00001764       0.00002022       0.00001861
I       24.65464967       6.16064687       5.30794744       0.00000162       0.00002855      -0.00002021
I       28.60265021       4.95261931       3.07382093      -0.00000769      -0.00002824      -0.00000785
I       26.32873647       3.04890198       7.33275188      -0.00002623       0.00001463      -0.00001591
I       28.65149614       8.79214306       5.23557136      -0.00001593      -0.00000173      -0.00000018
I       26.24744323      13.11858003       5.12508740      -0.00002535      -0.00000556      -0.00001324
I       28.58215175       8.77764835       0.88603021      -0.00000037       0.00000608      -0.00001764
I       26.18233573      13.10487521       1.04404627      -0.00001349       0.00000204       0.00002296
I       30.31091863      11.92501373       7.23971859       0.00000706      -0.00000052       0.00001695
I       24.58795851       9.98564648       3.12104102      -0.00001615       0.00000317      -0.00000998
Cs      17.63337267       2.70337867      11.68867438       0.00000276       0.00000184       0.00000515
Cs      21.55508039       5.31770503      15.83405077      -0.00001731      -0.00000128      -0.00002500
Cs      17.40763398       9.64360355       7.45279805      -0.00001611      -0.00000895       0.00001169
Cs      21.61398907      12.25859759      11.59344941       0.00000315      -0.00002572       0.00000937
Cs      25.63921144       2.72166042      11.56106339      -0.00001313      -0.00000853       0.00000970
Cs      29.56086011       5.33599833      15.70643283       0.00000283       0.00000761      -0.00000874
Cs      25.41343828       9.66186979       7.32529254      -0.00001046      -0.00000389      -0.00000615
Cs      29.61978746      12.27686689      11.46591424       0.00001047      -0.00000480       0.00000472
Pb      20.33077631      14.44531683      15.82301678       0.00001573       0.00000226      -0.00001515
Pb      24.33366201      14.46597040      15.75922241      -0.00002054      -0.00002255       0.00001414
Pb      18.82516266       7.48487802      11.65379594      -0.00005177       0.00002581      -0.00000850
Pb      14.82228085       7.46425915      11.71766454       0.00002521       0.00002041       0.00000983
Pb      28.33658814      14.46363029      15.69552637       0.00003711      -0.00001576      -0.00000801
Pb       0.31624104      14.41110679      16.14193136      -0.00000393      -0.00001380      -0.00001472
Pb      26.83097140       7.50318825      11.52634765      -0.00000823      -0.00000965      -0.00000544
Pb      22.82809369       7.48253049      11.59009644      -0.00000399       0.00002073       0.00000858
I       22.34010110       1.83696211       9.57554251       0.00005727      -0.00001364      -0.00000128
I       16.71390248       6.15600758       9.51652551       0.00000502      -0.00000234      -0.00001236
I       22.40525137       1.85058102      13.65657373      -0.00000718       0.00001516      -0.00000008
I       16.78325158       6.17053496      13.86607542      -0.00000929      -0.00002685       0.00000669
I       20.73117189       4.96238304      11.63186916       0.00001636      -0.00000421      -0.00000558
I       18.45728954       3.05868059      15.89080834      -0.00002830       0.00002289      -0.00001740
I       20.77995881       8.80189747      13.79362148       0.00003556       0.00001103       0.00002706
I       18.37590144      13.12833566      13.68318457       0.00001418       0.00000492       0.00002660
I       20.71073634       8.78742118       9.44408064       0.00002630       0.00000204       0.00001759
I       18.31090025      13.11471155       9.60217868      -0.00000072      -0.00000603      -0.00001432
I       22.43945972      11.93477695      15.79771844       0.00000506       0.00001180       0.00002619
I       16.71648049       9.99543994      11.67905344       0.00002935      -0.00001961      -0.00001367
I       30.34596769       1.85531241       9.44800007       0.00000631      -0.00000236       0.00000478
I       24.71980687       6.17434637       9.38897958      -0.00002281       0.00000496       0.00000080
I       30.41100338       1.86882534      13.52901795       0.00001764       0.00002023       0.00001861
I       24.78899036       6.18872104      13.73852173       0.00000162       0.00002855      -0.00002021
I       28.73699090       4.98069348      11.50439522      -0.00000769      -0.00002823      -0.00000785
I       26.46307716       3.07697615      15.76332617      -0.00002624       0.00001466      -0.00001591
I       28.78583683       8.82021723      13.66614565      -0.00001594      -0.00000173      -0.00000017
I       26.38178392      13.14665420      13.55566169      -0.00002534      -0.00000556      -0.00001323
I       28.71649244       8.80572252       9.31660450      -0.00000037       0.00000608      -0.00001764
I       26.31667642      13.13294938       9.47462056      -0.00001349       0.00000205       0.00002295
I       30.44525932      11.95308790      15.67029288       0.00000705      -0.00000051       0.00001695
I       24.72229920      10.01372065      11.55161531      -0.00001615       0.00000317      -0.00000998
Cs      17.46653487      16.58445076       3.21232687       0.00000276       0.00000184       0.00000516
Cs      21.38824259      19.19877712       7.35770326      -0.00001732      -0.00000128      -0.00002500
Cs      17.50947755      23.58082399      15.83759912      -0.00001611      -0.00000895       0.00001169
Cs      21.44715127      26.13966968       3.11710190       0.00000315      -0.00002572       0.00000937
Cs      25.47237364      16.60273251       3.08471588      -0.00001313      -0.00000853       0.00000971
Cs      29.39402231      19.21707042       7.23008532       0.00000283       0.00000760      -0.00000874
Cs      25.51528185      23.59909023      15.71009361      -0.00001045      -0.00000390      -0.00000615
Cs      29.45294966      26.15793898       2.98956673       0.00001047      -0.00000481       0.00000472
Pb      20.22893273       0.50809640       7.43821571       0.00001573       0.00000227      -0.00001514
Pb      24.23181843       0.52874997       7.37442134      -0.00002052      -0.00002254       0.00001414
Pb      18.65832486      21.36595011       3.17744843      -0.00005177       0.00002581      -0.00000850
Pb      14.65544305      21.34533124       3.24131703       0.00002520       0.00002041       0.00000983
Pb      28.23474456       0.52640986       7.31072530       0.00003711      -0.00001576      -0.00000801
Pb       0.21439746       0.47388636       7.75713029      -0.00000391      -0.00001379      -0.00001472
Pb      26.66413360      21.38426034       3.05000014      -0.00000823      -0.00000964      -0.00000545
Pb      22.66125589      21.36360258       3.11374893      -0.00000399       0.00002073       0.00000858
I       22.17326330      15.71803420       1.09919500       0.00005727      -0.00001365      -0.00000130
I       16.54706468      20.03707967       1.04017800       0.00000502      -0.00000234      -0.00001236
I       22.23841357      15.73165311       5.18022622      -0.00000718       0.00001515      -0.00000007
I       16.61641378      20.05160705       5.38972791      -0.00000929      -0.00002686       0.00000669
I       20.56433409      18.84345513       3.15552165       0.00001636      -0.00000421      -0.00000558
I       18.29045174      16.93975268       7.41446083      -0.00002830       0.00002286      -0.00001740
I       20.61312101      22.68296956       5.31727397       0.00003556       0.00001103       0.00002706
I       18.20906364      27.00940775       5.20683706       0.00001417       0.00000491       0.00002658
I       20.54389854      22.66849327       0.96773313       0.00002629       0.00000204       0.00001759
I       18.14406245      26.99578364       1.12583117      -0.00000073      -0.00000604      -0.00001432
I       22.27262192      25.81584904       7.32137093       0.00000505       0.00001177       0.00002619
I       16.54964269      23.87651203       3.20270593       0.00002935      -0.00001961      -0.00001367
I       30.17912989      15.73638450       0.97165256       0.00000631      -0.00000238       0.00000476
I       24.55296907      20.05541846       0.91263207      -0.00002281       0.00000496       0.00000080
I       30.24416558      15.74989743       5.05267044       0.00001764       0.00002022       0.00001862
I       24.62215256      20.06979313       5.26217422       0.00000162       0.00002855      -0.00002021
I       28.57015310      18.86176557       3.02804771      -0.00000769      -0.00002824      -0.00000785
I       26.29623936      16.95804824       7.28697866      -0.00002623       0.00001462      -0.00001591
I       28.61899903      22.70128932       5.18979814      -0.00001594      -0.00000173      -0.00000017
I       26.21494612      27.02772629       5.07931418      -0.00002535      -0.00000558      -0.00001325
I       28.54965464      22.68679461       0.84025699      -0.00000037       0.00000608      -0.00001764
I       26.14983862      27.01402147       0.99827305      -0.00001350       0.00000204       0.00002296
I       30.27842152      25.83415999       7.19394537       0.00000704      -0.00000054       0.00001695
I       24.55546140      23.89479274       3.07526780      -0.00001615       0.00000317      -0.00000998