768
Lattice="31.692300772957427 -0.23817137476388267 -0.22381648450105096 0.5088677045445024 30.322791612077314 -0.23448971252077258 0.24061368353779242 0.18551094893401907 17.36600211817343" Properties=species:S:1:pos:R:3:forces:R:3 energy=-3351.3895627912793 stress="0.0024399368755978882 0.0002710359155183761 -0.00018731139951681493 0.0002710359155183761 0.0039022801186351973 4.246195471906047e-05 -0.00018731139951681493 4.246195471906047e-05 0.003225389579546914" free_energy=-3351.3895627912793 pbc="T T T"
I        6.79449037       3.39245776       2.47980535       0.00000178      -0.00000010      -0.00000272
I        1.41385413       8.10122535       3.45636555       0.00000776       0.00000630       0.00000458
I        6.91174697       3.28695385       6.80131911      -0.00000161       0.00000164      -0.00000150
I        1.41689372       8.29948472       7.81787534      -0.00000166       0.00001586       0.00000184
I        5.32949613       6.99131720       5.61046863       0.00000638       0.00000827      -0.00000602
I        2.99915215       4.59512016       9.00875271      -0.00000057       0.00000832       0.00000409
H        1.92851412       4.11111151       3.72163165      -0.00000989      -0.00000446      -0.00000358
H        6.40024876       7.47547210      10.89753349      -0.00000833      -0.00000368      -0.00000005
H        3.51814526       4.64060078       4.36854795      -0.00000818      -0.00000410      -0.00000042
H        5.67032458       8.33408527       9.49914339       0.00000240       0.00000085       0.00000102
H        2.65826283       3.25236253       5.12003167       0.00000386       0.00000103      -0.00000055
H        4.69021554       6.85310746       1.56768629       0.00000439      -0.00000294      -0.00000001
H        0.92378260       4.77655880       5.84737069      -0.00000317      -0.00000656      -0.00000446
H        5.94036623       6.28807739       8.18886776       0.00000259       0.00000532       0.00000021
H        1.69322795       6.08909321       5.10894380      -0.00000156      -0.00000156      -0.00000424
H        6.63546818       5.49739092       9.51031205      -0.00000207       0.00000166      -0.00000303
H        2.38825793       5.29834722       6.43039214       0.00000140      -0.00000457       0.00000020
H        7.40485799       6.80991679       8.77180503       0.00000265      -0.00000547       0.00000348
C        2.53961873       4.22101927       4.62262654       0.00000964       0.00000316       0.00000746
C        5.66872612       7.27270342       1.31357125      -0.00000315      -0.00000434      -0.00000848
Pb       5.12379196      17.13721372       8.94853889      -0.00000808       0.00000312      -0.00000347
Pb       1.16260801      17.23651137       8.97976461       0.00000602       0.00000455      -0.00000597
N        1.84721305       5.15927491       5.55584905       0.00000498       0.00000728      -0.00000162
N        6.48144739       6.42719181       9.06338051      -0.00000210      -0.00001148      -0.00000917
I        5.40883620      10.89568862       7.76509818       0.00000667       0.00000359      -0.00000342
I        3.17421539      15.85219643       6.73686458       0.00000282      -0.00001092      -0.00000108
I        5.39869418      11.01446032       3.40295831      -0.00000448       0.00000408      -0.00000150
I        3.06408439      15.64060077       2.41599619       0.00000376       0.00000215       0.00000662
I        7.04828197      14.49426076       0.21189900       0.00000218      -0.00000521      -0.00000066
I        1.41451146      12.16082851       5.60707569      -0.00000180       0.00000283       0.00000071
H        0.82883528      12.20682485       1.59603082      -0.00001673       0.00001482       0.00000057
H        7.63390082      14.44818413       4.22290560      -0.00000592       0.00001109      -0.00000257
H        1.74619912      10.89156564       9.49592682      -0.00000212       0.00000085      -0.00000471
H        6.04481550      15.03200058       3.62138817      -0.00000296      -0.00000037      -0.00000499
H        2.53830843      11.71581432      10.88056568      -0.00000761       0.00000224       0.00000286
H        6.83688600      15.85628384       5.00603026       0.00000156       0.00000129      -0.00000029
H        3.39034045      12.27388429       0.05652438      -0.00000186      -0.00000895      -0.00000178
H        5.78530119      13.04973713       5.00175310       0.00001103       0.00000644       0.00000510
H        2.79774308      13.69812933       9.50024894      -0.00000050      -0.00000276       0.00000176
H        5.07243209      14.38119681       5.76247339       0.00000226      -0.00000761      -0.00000670
H        1.92772304      12.84374877      -0.48896388      -0.00000510       0.00000042      -0.00000082
H        6.53504445      13.81128211       6.30792393       0.00001540      -0.00000412       0.00001104
C        1.90734032      11.85210361       9.99706772       0.00000733      -0.00000341       0.00000368
C        6.67575046      14.89573272       4.50491266       0.00001641      -0.00000311       0.00000728
Pb       3.45930566       9.61065526       5.55340254      -0.00000552      -0.00000297       0.00001520
Pb       7.42048387       9.51134884       5.52222522      -0.00000297      -0.00000368       0.00000809
N        2.48502761      12.68263576       0.37037244      -0.00000452       0.00003251       0.00001152
N        5.97772600      13.97241930       5.44860216      -0.00002007      -0.00000431      -0.00001754
I       14.71756846       3.33288740       2.42387011       0.00001083       0.00000786       0.00000018
I        9.33691425       8.04168632       3.40040962       0.00000875       0.00000224       0.00000029
I       14.83481060       3.22740249       6.74532548       0.00000096      -0.00000709       0.00000189
I        9.33998603       8.23996318       7.76192442      -0.00000646       0.00000536      -0.00000433
I       13.25256683       6.93177148       5.55447272       0.00000299       0.00000393      -0.00000650
I       10.92224369       4.53560586       8.95278225      -0.00000180       0.00000641      -0.00000084
H       10.58134779       3.19282981       5.06403368      -0.00000010      -0.00000323       0.00000340
H       13.59336860       8.27452242       9.44317020       0.00000759       0.00000300       0.00000211
H        9.85154963       4.05157355       3.66565567      -0.00000511      -0.00000865      -0.00000030
H       12.73365893       6.88628330      10.19485021      -0.00000788      -0.00000407      -0.00000252
H       11.44119039       4.58108275       4.31253051      -0.00000116      -0.00000613       0.00000159
H       14.20297496       7.32302553       2.15860474       0.00000042       0.00000464       0.00000016
H        9.61628903       6.02955160       5.05298047      -0.00000106       0.00000673      -0.00000065
H       15.32788694       6.75035588       8.71578616      -0.00000229      -0.00000376       0.00001107
H       10.31134011       5.23879730       6.37441338       0.00000216       0.00000077       0.00000199
H       13.86337870       6.22851173       8.13289222       0.00000513      -0.00000154      -0.00001511
H        8.84685734       4.71700938       5.79140862       0.00000414      -0.00000218       0.00000056
H       14.55851974       5.43783144       9.45431853      -0.00000502      -0.00000475      -0.00000460
C       10.46267710       4.16148624       4.56663466       0.00000629       0.00001127       0.00000036
C       13.59185100       7.21309326       1.25762571      -0.00000801       0.00000065      -0.00000706
Pb      13.04686623      17.07761085       8.89260768       0.00000462       0.00000001      -0.00000153
Pb       9.08569465      17.17694471       8.92377912      -0.00001709       0.00000872       0.00000492
N        9.77028301       5.09973074       5.49987708      -0.00000321      -0.00001044      -0.00000337
N       14.40448475       6.36763005       9.00738791       0.00001153       0.00001290       0.00000682
I       13.33193464      10.83613155       7.70911995      -0.00000173       0.00000206       0.00000111
I       11.09731922      15.79259057       6.68091730       0.00001098      -0.00000188      -0.00000899
I       13.32176650      10.95492031       3.34698303       0.00000660      -0.00000526      -0.00000416
I       10.98716390      15.58108138       2.36004111      -0.00000561      -0.00000090       0.00000218
I       14.97135329      14.43473064       0.15593199       0.00000111      -0.00000752       0.00000359
I        9.33757906      12.10127990       5.55110537      -0.00000210       0.00000088       0.00000331
H        9.54898174      10.73922963       0.75699202      -0.00000225       0.00000369       0.00000175
H       13.96788338      14.97251626       3.56544536       0.00000446      -0.00000332       0.00000873
H       10.46127891      11.65630969      10.82464440       0.00000788      -0.00000550       0.00001119
H       14.76001931      15.79673360       4.95008844      -0.00000047       0.00000983       0.00000211
H        8.87219343      12.24008577      10.22309184       0.00000581       0.00000057      -0.00000150
H       15.55699124      14.38866403       4.16686662       0.00000185       0.00000089       0.00000817
H        9.85077880      12.78425053      -0.54489823      -0.00000988      -0.00000191      -0.00001332
H       12.99557337      14.32161275       5.70651925       0.00000513      -0.00000149      -0.00000852
H       11.43368614      12.30708782       8.68356141      -0.00000304      -0.00000435      -0.00000542
H       14.45820540      13.75169802       6.25191913       0.00000565      -0.00000235      -0.00000045
H       10.60051072      13.54579849       0.76127643      -0.00000546      -0.00001563      -0.00000935
H       13.70844118      12.99018391       4.94574455      -0.00000802      -0.00000301       0.00000564
C        9.83035546      11.79254791       9.94110742      -0.00001585      -0.00000056      -0.00001272
C       14.59885635      14.83620525       4.44893677      -0.00000758      -0.00000409      -0.00001299
Pb      11.38238553       9.55111559       5.49743411      -0.00000066      -0.00000125       0.00000864
Pb      15.34356805       9.45178973       5.46624174      -0.00000802       0.00000042       0.00000132
N       10.40809796      12.62311514       0.31442307       0.00001873       0.00001114       0.00001430
N       13.90086512      13.91285588       5.39261598      -0.00000365       0.00001295       0.00001274
I        6.91480325       3.48523266      11.16283447      -0.00000025      -0.00000207      -0.00000443
I        1.53419641       8.19400295      12.13936482       0.00000351      -0.00000300       0.00000029
I        7.03208822       3.37966876      15.48428832      -0.00000440       0.00000433       0.00000707
I        1.53723972       8.39225570      16.50088810      -0.00000734       0.00000010      -0.00001357
I        5.44982838       7.08404805      14.29344582       0.00000627       0.00001045       0.00000310
I        2.87885527       4.50237798       0.32571681       0.00001332       0.00000324       0.00000356
H        2.04877372       4.20377203      12.40462300       0.00000931       0.00000933       0.00000641
H        6.27985013       7.38265603       2.21454746       0.00000888      -0.00000593       0.00000768
H        3.63843301       4.73332779      13.05142005      -0.00000003       0.00000294      -0.00000308
H        5.55004795       8.24134203       0.81613894      -0.00000106      -0.00000355      -0.00000334
H        2.77862307       3.34510791      13.80302013       0.00000420      -0.00000951       0.00000671
H        4.81058850       6.94584757      10.25079612       0.00000327      -0.00000032      -0.00000357
H        1.04413698       4.86931377      14.53035769      -0.00001295      -0.00000098       0.00000076
H        5.82008134       6.19533970      -0.49417288       0.00000061       0.00000340      -0.00000816
H        1.81355887       6.18182952      13.79186831      -0.00000343      -0.00000063       0.00000170
H        6.51513289       5.40462743       0.82728443      -0.00000420      -0.00000512      -0.00000069
H        2.50863221       5.39111939      15.11331421      -0.00001046       0.00000039       0.00000138
H        7.28455736       6.71715592       0.08882369       0.00000200       0.00000304       0.00000337
C        2.65993045       4.31373837      13.30557612      -0.00001513       0.00000337      -0.00000482
C        5.78906797       7.36546793       9.99660153      -0.00000698      -0.00000011       0.00000181
Pb       5.00346966      17.04441810       0.26554419       0.00000183       0.00000221       0.00000176
Pb       1.04229576      17.14372577       0.29675033       0.00000215       0.00000410      -0.00000795
N        1.96755719       5.25202258      14.23879451       0.00002179      -0.00000295       0.00000841
N        6.36113348       6.33443535       0.38036158       0.00000008       0.00000369       0.00000832
I        5.52920215      10.98843762      16.44810182       0.00000201      -0.00000735      -0.00001025
I        3.29454231      15.94489469      15.41986739       0.00000114       0.00000190      -0.00000323
I        5.51903850      11.10720713      12.08596754       0.00000350       0.00000218      -0.00000765
I        3.18442772      15.73340304      11.09900710      -0.00000567      -0.00000262       0.00000617
I        7.16856901      14.58703246       8.89487968      -0.00000546      -0.00000540       0.00000383
I        1.53485889      12.25356864      14.29006768       0.00000247       0.00000672       0.00000510
H        0.94919480      12.29963175      10.27912318       0.00000550      -0.00000384      -0.00000484
H        7.75424552      14.54094844      12.90585635       0.00000112      -0.00000012      -0.00000094
H        1.62592618      10.79874534       0.81294922      -0.00000140       0.00001363       0.00000611
H        6.16513432      15.12472895      12.30437295       0.00000537       0.00000400      -0.00000520
H        2.41792592      11.62308055       2.19760104      -0.00000696       0.00000231      -0.00000841
H        6.95722355      15.94903993      13.68898792      -0.00000124      -0.00000264       0.00000007
H        3.51061966      12.36669983       8.73948467      -0.00000416      -0.00000512      -0.00000295
H        5.90568739      13.14247529      13.68475768       0.00000438       0.00000009       0.00000470
H        2.67741769      13.60532785       0.81721664      -0.00000162      -0.00001083      -0.00000771
H        5.19281363      14.47392557      14.44548608      -0.00000272       0.00000354      -0.00000546
H        2.04798354      12.93660210       8.19407951      -0.00000166      -0.00000358       0.00000018
H        6.65544873      13.90403893      14.99090648       0.00000330      -0.00000229       0.00000859
C        1.78701044      11.75931107       1.31405622       0.00003082      -0.00003487       0.00000113
C        6.79609386      14.98848105      13.18788320      -0.00000133       0.00000128       0.00001099
Pb       3.57965240       9.70340495      14.23641713      -0.00000486      -0.00000572       0.00000265
Pb       7.54082651       9.60408027      14.20522704      -0.00000282      -0.00000724       0.00000461
N        2.60532486      12.77545319       9.05338377      -0.00000233       0.00000932      -0.00000703
N        6.09810761      14.06516307      14.13159709      -0.00000677       0.00000149      -0.00000840
I       14.83786648       3.42568152      11.10685551       0.00000395       0.00000263       0.00000178
I        9.45728420       8.13441315      12.08342558       0.00000056       0.00000170      -0.00000231
I       14.95512533       3.32013255      15.42835362       0.00000050      -0.00000574      -0.00000209
I        9.46031714       8.33269957      16.44493512      -0.00000671      -0.00000367      -0.00000200
I       13.37293060       7.02452095      14.23749118      -0.00000053       0.00000579       0.00000475
I       10.80193733       4.44280749       0.26978144      -0.00000275      -0.00000141      -0.00000351
H       10.70169992       3.28551465      13.74705206       0.00000381       0.00000229       0.00000351
H       13.47317477       8.18174076       0.76021052       0.00000105       0.00000598      -0.00000020
H        9.97197240       4.14426673      12.34864361      -0.00000974       0.00000211       0.00000586
H       12.61333959       6.79349400       1.51173255       0.00000513       0.00000189      -0.00000005
H       11.56159350       4.67375436      12.99558372      -0.00000432       0.00000104       0.00000457
H       14.32333513       7.41591312      10.84154162      -0.00000449       0.00000401      -0.00000171
H        9.73666322       6.12224595      13.73596034       0.00000265      -0.00000013      -0.00000298
H       15.20768172       6.65756294       0.03287200      -0.00000122       0.00000095      -0.00000016
H       10.43167419       5.33149320      15.05741661       0.00000016      -0.00000102      -0.00000670
H       13.74320623       6.13576286      -0.55013888      -0.00000190       0.00000398      -0.00000542
H        8.96720869       4.80970750      14.47437017      -0.00000305      -0.00000147      -0.00000127
H       14.43824795       5.34502356       0.77130733       0.00000134       0.00000372       0.00000084
C       10.58306333       4.25417295      13.24964827       0.00000196       0.00000231      -0.00000339
C       13.71212921       7.30590655       9.94062693       0.00001173      -0.00000076       0.00000431
Pb      12.92653848      16.98488448       0.20958655       0.00000755       0.00000323      -0.00000080
Pb       8.96536539      17.08419906       0.24077619      -0.00000325      -0.00000452       0.00000107
N        9.89064320       5.19242568      14.18286350       0.00000566       0.00000407       0.00000635
N       14.28425596       6.27484033       0.32439995      -0.00000219      -0.00000017      -0.00000032
I       13.45226403      10.92889374      16.39214468      -0.00000651      -0.00000079       0.00000577
I       11.21760932      15.88536444      15.36390419       0.00000351      -0.00000188      -0.00000523
I       13.44208628      11.04767676      12.02999882       0.00000122      -0.00000401      -0.00000132
I       11.10746114      15.67381059      11.04304691       0.00000406      -0.00000380       0.00000145
I       15.09166198      14.52744740       8.83894017       0.00000498      -0.00000250       0.00000138
I        9.45791745      12.19401524      14.23411446      -0.00000370       0.00000206       0.00000287
H        9.66924113      10.83198362       9.44000779       0.00001187       0.00000546       0.00000228
H       14.08821730      15.06526412      12.24845574       0.00000514      -0.00000007       0.00000042
H       10.34101157      11.56354108       2.14164101      -0.00000020      -0.00000269      -0.00000537
H       14.88027064      15.88952170      13.63312290       0.00000282       0.00000374      -0.00000836
H        8.75191879      12.14731060       1.54010087      -0.00000253       0.00000157      -0.00000166
H       15.67731923      14.48146846      12.84995040       0.00000071       0.00000055      -0.00000247
H        9.97107243      12.87696236       8.13807292       0.00000111       0.00000167       0.00001010
H       13.11585206      14.41436915      14.38951420       0.00000176      -0.00000401       0.00000508
H       11.31339771      12.21435121       0.00055238      -0.00000048       0.00001002       0.00000021
H       14.57847903      13.84447644      14.93495350      -0.00000080       0.00000208      -0.00000022
H       10.72078171      13.63854730       9.44424145       0.00000235       0.00000556       0.00000626
H       13.82875636      13.08294792      13.62876195      -0.00000664      -0.00000413      -0.00000103
C        9.71008467      11.69978761       1.25810713      -0.00000244      -0.00000522       0.00000525
C       14.71915823      14.92898294      13.13197425      -0.00000173      -0.00000156       0.00000204
Pb      11.50272065       9.64385564      14.18046051       0.00000681      -0.00000291       0.00000098
Pb      15.46389113       9.54457133      14.14926536      -0.00000223      -0.00000563      -0.00000694
N       10.52837931      12.71585313       8.99740899      -0.00000659      -0.00000548      -0.00000875
N       14.02115707      14.00562330      14.07563576      -0.00000263       0.00000268       0.00000355
I        7.04891021      18.55386149       2.36257730       0.00000913      -0.00000083       0.00000928
I        1.66834547      23.26263823       3.33914390      -0.00000142      -0.00000067      -0.00000868
I        7.16621641      18.44834674       6.68407074      -0.00000030       0.00000228      -0.00000497
I        1.67141533      23.46096625       7.70066870      -0.00001019      -0.00000018       0.00000371
I        5.58396801      22.15271602       5.49322992      -0.00000368       0.00001111       0.00000096
I        3.25358265      19.75655362       8.89151633       0.00000506      -0.00000212      -0.00000064
H        2.18293943      19.27251336       3.60440223      -0.00000084       0.00000122       0.00000483
H        6.65459611      22.63680817      10.78034784      -0.00000233      -0.00000066       0.00000009
H        3.77255938      19.80204524       4.25131032       0.00000084       0.00000051       0.00000286
H        5.92482927      23.49552972       9.38194155      -0.00000190      -0.00000692      -0.00000352
H        2.91271399      18.41378901       5.00280357       0.00000236      -0.00000666       0.00000334
H        4.94467339      22.01450990       1.45043619      -0.00000310      -0.00000097       0.00000064
H        1.17818665      19.93795614       5.73012063       0.00000591      -0.00000176       0.00000102
H        6.19484320      21.44953711       8.07160561       0.00000032      -0.00000076      -0.00000726
H        1.94763463      21.25050362       4.99171405       0.00000366      -0.00000837       0.00000273
H        6.88987035      20.65879959       9.39306162       0.00000325       0.00000209      -0.00000364
H        2.64264978      20.45974934       6.31316804       0.00000846       0.00000349       0.00000636
H        7.65931963      21.97132707       8.65462352      -0.00000836      -0.00000807       0.00000453
C        2.79404471      19.38244051       4.50539480      -0.00001037      -0.00000278      -0.00001221
C        5.92318373      22.43410499       1.19631956       0.00001005       0.00000230       0.00000178
Pb       4.86934875       1.97578348       9.06579473       0.00000117       0.00000381      -0.00000466
Pb       0.90816798       2.07508440       9.09695686       0.00000009       0.00000088      -0.00000560
N        2.10161825      20.32068253       5.43861553       0.00000178       0.00000744      -0.00000973
N        6.73588769      21.58861489       8.94614803       0.00000567      -0.00000045      -0.00000942
I        5.66332100      26.05710993       7.64786189       0.00000583      -0.00000370      -0.00000569
I        2.91983295       0.69075299       6.85409521      -0.00000510       0.00000232       0.00000593
I        5.65322073      26.17585643       3.28571701      -0.00001076       0.00000024       0.00000014
I        2.80967798       0.47926706       2.53324692       0.00000277      -0.00000914      -0.00000262
I        7.30270481      29.65565167       0.09463522      -0.00000206       0.00000185       0.00000069
I        1.66897028      27.32222979       5.48980080       0.00001024       0.00000862      -0.00000042
H        1.08337313      27.36829604       1.47890453      -0.00000279      -0.00000582      -0.00000468
H        7.88846775      29.60963717       4.10568252      -0.00000968      -0.00000089      -0.00000095
H        2.00055227      26.05294709       9.37888872      -0.00000003      -0.00001211      -0.00000783
H        6.29938535      30.19340531       3.50411242      -0.00001057      -0.00000588      -0.00000341
H        2.79265495      26.87735499      10.76344005      -0.00001031      -0.00000107      -0.00001819
H        7.09138702      31.01771461       4.88877761       0.00000027      -0.00000014      -0.00000102
H        3.64474254      27.43536887      -0.06082300       0.00000669      -0.00000001      -0.00000178
H        6.03986348      28.21114380       4.88447342       0.00000596       0.00000269       0.00000255
H        3.05213533      28.85949115       9.38289019       0.00000120      -0.00000385       0.00001383
H        5.32696044      29.54258769       5.64518591       0.00000123      -0.00000092       0.00000096
H        2.18209014      28.00527988      -0.60617676       0.00000774       0.00000035       0.00000695
H        6.78957136      28.97269382       6.19066104       0.00000762       0.00000337       0.00000324
C        2.16170226      27.01354288       9.87991482       0.00002972       0.00001062       0.00001491
C        6.93029472      30.05715720       4.38765813       0.00001178       0.00000322       0.00000883
Pb       3.71379634      24.77207193       5.43616338       0.00000103       0.00000564       0.00000600
Pb       7.67496464      24.67272690       5.40500863       0.00000112       0.00000778       0.00000207
N        2.73945868      27.84412228       0.25310809      -0.00000132      -0.00000228      -0.00001091
N        6.23226662      29.13382751       5.33132946      -0.00001358      -0.00000244      -0.00000699
I       14.97196478      18.49431454       2.30664626       0.00000852      -0.00000115      -0.00000467
I        9.59140242      23.20305973       3.28319826       0.00000359       0.00000205      -0.00000445
I       15.08927963      18.38876538       6.62813674       0.00000332       0.00000500       0.00000197
I        9.59446602      23.40133890       7.64470692      -0.00000425       0.00000541       0.00000350
I       13.50706823      22.09315814       5.43727184      -0.00000984       0.00000274      -0.00000123
I       11.17668649      19.69696147       8.83557612       0.00000174       0.00000363      -0.00000528
H       10.83584670      18.35419780       4.94684310       0.00000445      -0.00000850       0.00000120
H       13.84790289      23.43591262       9.32594941       0.00000361      -0.00000128       0.00000460
H       10.10603807      19.21291665       3.54845657      -0.00000137      -0.00000110       0.00000050
H       12.98805390      22.04767848      10.07747779       0.00000317       0.00000038       0.00000448
H       11.69568438      19.74243821       4.19531097      -0.00001316      -0.00001021      -0.00000069
H       14.45729823      22.48447784       2.04137134       0.00000238       0.00000016       0.00000070
H        9.87078619      21.19091951       4.93575491       0.00000415      -0.00001413       0.00001103
H       15.58242180      21.91172556       8.59866483      -0.00000439      -0.00000284       0.00000164
H       10.56584760      20.40018096       6.25719264       0.00000106       0.00000812       0.00000984
H       14.11795564      21.38991443       8.01564066       0.00000235       0.00000082      -0.00000181
H        9.10136175      19.87838441       5.67420563      -0.00000316       0.00000469      -0.00000635
H       14.81298028      20.59919563       9.33710848      -0.00000128      -0.00000125       0.00000259
C       10.71717249      19.32284591       4.44942902       0.00001345       0.00001149      -0.00001071
C       13.84621613      22.37454437       1.14036405       0.00001063       0.00000192      -0.00000248
Pb      12.79241802       1.91625697       9.00981214      -0.00000183      -0.00000711      -0.00000121
Pb       8.83124990       2.01557484       9.04101869      -0.00000128       0.00000063       0.00000111
N       10.02478476      20.26110359       5.38266223      -0.00001375       0.00000906      -0.00000873
N       14.65899248      21.52900542       8.89018553       0.00000091       0.00000592      -0.00001011
I       13.58640342      25.99753659       7.59190419      -0.00000358      -0.00000333       0.00000380
I       10.84286812       0.63123616       6.79813305      -0.00000110      -0.00000014      -0.00000658
I       13.57624527      26.11631830       3.22977900       0.00000217       0.00000109      -0.00000152
I       10.73273037       0.41965681       2.47728543      -0.00000075      -0.00000018       0.00000256
I       15.22581128      29.59610252       0.03869016       0.00000521       0.00000249       0.00000041
I        9.59206582      27.26266294       5.43389533       0.00000170      -0.00000015       0.00000031
H       10.59541231      26.72496534       2.02447714      -0.00000123      -0.00000464       0.00000412
H       14.22252987      30.13366467       3.44802313      -0.00000472       0.00000883       0.00001092
H       10.71572502      26.81771011      10.70742986      -0.00000390       0.00000585      -0.00001100
H       15.01438208      30.95819221       4.83264816       0.00000023      -0.00000049       0.00000210
H        9.12664858      27.40149001      10.10585443      -0.00000894       0.00000593       0.00000664
H       15.81158853      29.55004977       4.04979842       0.00000206      -0.00000167      -0.00000477
H       11.56778745      27.37570347      -0.11663490       0.00001171      -0.00000996      -0.00001001
H       13.24998562      29.48309707       5.58914594       0.00000341      -0.00000376       0.00000713
H       11.68815298      27.46848246       8.56634435      -0.00000051       0.00000491      -0.00000028
H       14.71257828      28.91328873       6.13475212       0.00000381      -0.00000597       0.00000005