768
Lattice="25.33951204865166 0.014184333321381349 0.0023799888866038103 -0.038261598655198056 25.37959008395588 0.08521541152130947 -0.09668657868363563 -0.29184035148719795 25.338541248958023" Properties=species:S:1:pos:R:3:forces:R:3 energy=-3349.806846177187 stress="0.003799824621636105 -3.2686396870262767e-05 -0.00011522666278088704 -3.2686396870262767e-05 0.005699470595378054 0.0015097837729208265 -0.00011522666278088704 0.0015097837729208265 0.005601697896359667" free_energy=-3349.806846177187 pbc="T T T"
I        4.80086865      24.09058366       4.36635387      -0.00000327      -0.00000298       0.00000747
I        4.07808314      12.70385379      10.69761527      -0.00000103      -0.00000138      -0.00000305
I        4.80330673       8.89123512       8.18244359      -0.00000266      -0.00000721      -0.00000042
I        4.11398381       2.52358427       6.79631176      -0.00000328       0.00001135      -0.00000434
I       23.79785324      12.71568079      10.70186547      -0.00000195       0.00000108      -0.00001099
I       10.42071920      24.09285760       4.36451254       0.00000493       0.00000947       0.00000006
I       11.15318800       2.52843968       6.79274523      -0.00000835       0.00000681      -0.00000031
I       23.10359066       8.90055202       8.18839665      -0.00000002      -0.00000280      -0.00000257
I        7.59339548      11.42475496      13.40972231       0.00000057       0.00001058       0.00000187
I        1.29012759       6.26197198       7.92500695       0.00000815       0.00000229       0.00000205
I        1.26367554      24.31889449       6.98851923      -0.00000477      -0.00000965       0.00000803
I        7.61532730      12.47549769       8.07542350       0.00001473       0.00000492      -0.00001025
H        2.21226051       3.47887439       3.40846069       0.00001007       0.00001389      -0.00000076
H        6.73878290       1.66402906       5.21439241      -0.00002683      -0.00000785       0.00002053
H        7.62833317       9.40443252       5.87908281      -0.00000649       0.00000174       0.00000023
H        0.38517415       3.41729141       9.75206932      -0.00000484       0.00000012      -0.00000191
H        1.27187240      10.38776917      11.17662257       0.00001059      -0.00001949      -0.00000233
H        7.64533110       1.02715908       3.80204200       0.00000362      -0.00001527      -0.00001325
H        7.61377282       2.98664297      12.19239202      -0.00001013       0.00002253      -0.00001108
H        2.18235192       3.42310579       9.75394623      -0.00000228      -0.00000496       0.00000041
H        1.30572686       4.11576391       4.82081136      -0.00000726       0.00000437       0.00000200
H        8.53594395       1.65999419       5.22638465       0.00000360      -0.00000382       0.00000557
H        8.53210448       7.99741470       5.22653208      -0.00000341       0.00000580       0.00001182
H        1.28896258       2.01018534       9.09973401       0.00000108      -0.00000023       0.00000434
H        1.30470690       1.27493658       3.89181814      -0.00000826      -0.00001072       0.00000577
H        7.61257297      10.13966758      11.08710143      -0.00000271       0.00000435      -0.00000442
H        7.63385776       8.51279971       3.02649857      -0.00000654      -0.00001286      -0.00000011
H        2.14048874       7.99114112       5.00970477      -0.00000563       0.00000666      -0.00000906
H        0.46012119       1.88923244       5.22617200       0.00001687       0.00002190      -0.00000746
H        6.78031222       9.52947231       9.74361048       0.00001673      -0.00001138       0.00001354
H        8.46790543       9.84596717       3.65702446       0.00000676      -0.00000841      -0.00000448
H        0.46391580       7.98679970       5.00843737      -0.00000088       0.00000316      -0.00001705
H        2.13697015       1.88537255       5.23519615      -0.00000592      -0.00000306      -0.00000821
H        8.49086691       3.25369272       3.39665430       0.00002733       0.00001049      -0.00001043
H        6.79132944       9.84157326       3.65579279       0.00000882      -0.00000508      -0.00000523
H        1.29799325       9.32004419       5.63876845      -0.00000594      -0.00000689       0.00000413
C        1.27554679       9.64499697      10.37294032       0.00000148       0.00001657       0.00001897
C        7.64172623       1.76987611       4.60577422       0.00001192       0.00002809      -0.00002337
C        7.61704106       2.19267505      11.43924971      -0.00001257       0.00000072      -0.00000038
C        1.28564829       2.80420808       9.85281897       0.00000834      -0.00000697      -0.00000378
Pb       4.45861702       5.70741030       7.48939660      -0.00000137       0.00000122      -0.00000329
Pb       4.44906621      12.05230571       7.51069091      -0.00000188      -0.00000349      -0.00000074
Pb      23.42952776      11.98997567      13.84712159      -0.00000095      -0.00000079      -0.00000874
Pb      23.45370997      12.06294129       7.51248721      -0.00000535      -0.00000416      -0.00000472
N        1.30208104       2.01136554       4.62555384       0.00000990      -0.00000674      -0.00000230
N        7.61519549       9.40336519      10.35323569      -0.00002741      -0.00000449      -0.00003320
N        7.63105201       9.23694871       3.77235387       0.00000754      -0.00000751       0.00003870
N        1.30078980       8.59577296       4.89302806       0.00000334      -0.00000022       0.00000888
I        4.80538075       4.98286019      10.63708761       0.00000207       0.00000879       0.00000385
I        4.11182817       6.43186597       4.34167878      -0.00000491       0.00000921       0.00000249
I        4.78872612       2.47337412      14.49575342      -0.00001021       0.00000232       0.00001332
I        4.12863362       8.94144610       0.48292196       0.00000449      -0.00000691      -0.00000163
I       23.83158074       6.44371543       4.34591537      -0.00000438       0.00000780      -0.00000520
I       10.42522569       4.98518194      10.63523304       0.00000717       0.00000508      -0.00000344
I       11.16770717       8.94628949       0.47933966       0.00000512       0.00000669       0.00000390
I       23.08897156       2.48268827      14.50174751       0.00000444       0.00000080      -0.00000249
I        7.62712328       5.15290051       7.05380946       0.00000652      -0.00001429       0.00000075
I        1.30474516      12.67982394       1.61165377      -0.00000294      -0.00001556       0.00000216
I        1.26819256       5.21127395      13.25931515      -0.00000248      -0.00000346      -0.00000539
I        7.64905967       6.20363592       1.71946119       0.00000759      -0.00000961       0.00000220
H        0.38136952       9.75482285       9.75226184      -0.00001577      -0.00000135       0.00000581
H        8.50213625       7.93154389      11.58208759      -0.00000412       0.00000949      -0.00000309
H        8.51751591       1.57957816      11.53991043       0.00000965      -0.00000867       0.00000623
H        2.19700192       9.84084120       3.44047854       0.00000092       0.00000591      -0.00000089
H        0.41510050       3.48296559       3.39646041       0.00001050      -0.00002804       0.00002415
H        6.70497340       7.93559539      11.56999197       0.00000392       0.00001138       0.00000190
H        6.73492853       7.99159247       5.22471379      -0.00000192       0.00000616      -0.00000217
H        1.30355108       8.42793092       2.78632813       0.00000309       0.00000721       0.00002245
H        2.17852705       9.75082327       9.76437177       0.00001113       0.00000011       0.00000211
H        7.61160109       7.29900817      10.15756516      -0.00000270       0.00001343       0.00001929
H        6.72033881       1.57377554      11.53812627       0.00000716       0.00000645      -0.00001240
H        0.39982417       9.83509914       3.43861576      -0.00000388      -0.00000432       0.00000364
H        2.10323400       8.15740288      11.59115300       0.00000777       0.00000479       0.00000307
H        7.64629966       3.86799025       4.73102001      -0.00000046       0.00001923       0.00000053
H        6.77672493       3.42364377       9.96908377       0.00001158       0.00000376       0.00000362
H        1.28336899       2.90218679      11.95220670      -0.00000186      -0.00000974      -0.00000589
H        1.27096305       7.54687980      10.24782029       0.00000811      -0.00000252      -0.00000170
H        6.81402077       3.25753492       3.38765871      -0.00003087       0.00000455      -0.00001362
H        7.61924359       2.09483081       9.33986209       0.00000804      -0.00000458      -0.00001023
H        2.12588246       1.57331908      11.32309207       0.00000578       0.00000496      -0.00000698
H        0.42638147       8.16125080      11.58213905       0.00000042       0.00000225      -0.00000823
H        8.45715975       9.52559323       9.75264547      -0.00000606      -0.00000423      -0.00000231
H        8.45330129       3.42804009       9.97029226      -0.00000498      -0.00001326       0.00000478
H        0.44931051       1.56895478      11.32182284       0.00000050      -0.00000100      -0.00000090
C        1.30931149       3.37304962       4.01707592      -0.00000919       0.00000429      -0.00001226
C        7.60795461       8.04156283      10.96144948       0.00001080       0.00000745       0.00001006
C        7.63162483       8.61050918       5.12589318       0.00000711       0.00001851      -0.00002337
C        1.30027445       9.22198334       3.53938315      -0.00000396      -0.00001004      -0.00000696
Pb       4.42489987      11.97934335      13.84530481      -0.00000040       0.00000144      -0.00000259
Pb       4.43446818       5.63444885      13.82401570      -0.00000116       0.00000231      -0.00000172
Pb      23.46327329       5.71804122       7.49117780       0.00000054       0.00000158       0.00000370
Pb      23.43908113       5.64508205      13.82579707      -0.00000038       0.00000090      -0.00000147
N        1.26833846       8.28335356      10.98150941      -0.00001025      -0.00002023      -0.00001076
N        7.64892031       3.13155839       3.99728825      -0.00000501      -0.00004353       0.00003572
N        7.61645003       2.81902930      10.08567112      -0.00000488      -0.00000835       0.00002597
N        1.28617616       2.17794438      11.20643893      -0.00001619       0.00001319      -0.00000221
I        4.75252536      23.94466349      17.03562450      -0.00000327      -0.00000299       0.00000745
I        4.02973985      12.55793361      23.36688589      -0.00000104      -0.00000138      -0.00000304
I        4.75496344       8.74531494      20.85171421      -0.00000266      -0.00000721      -0.00000042
I        4.06564052       2.37766409      19.46558238      -0.00000328       0.00001136      -0.00000434
I       23.74950995      12.56976062      23.37113609      -0.00000194       0.00000108      -0.00001099
I       10.37237591      23.94693743      17.03378317       0.00000493       0.00000947       0.00000004
I       11.10484471       2.38251950      19.46201585      -0.00000835       0.00000682      -0.00000031
I       23.05524737       8.75463185      20.85766727      -0.00000002      -0.00000281      -0.00000256
I        7.64173877      11.57067514       0.74045169       0.00000056       0.00001058       0.00000186
I        1.24178430       6.11605180      20.59427757       0.00000815       0.00000229       0.00000205
I        1.21533225      24.17297432      19.65778986      -0.00000477      -0.00000966       0.00000802
I        7.56698401      12.32957751      20.74469412       0.00001474       0.00000492      -0.00001025
H        2.16391722       3.33295421      16.07773131       0.00001007       0.00001389      -0.00000076
H        6.69043961       1.51810888      17.88366303      -0.00002682      -0.00000785       0.00002053
H        7.57998988       9.25851234      18.54835343      -0.00000649       0.00000174       0.00000023
H        0.33683086       3.27137123      22.42133994      -0.00000484       0.00000012      -0.00000191
H        1.22352911      10.24184899      23.84589319       0.00001059      -0.00001949      -0.00000233
H        7.59698781       0.88123890      16.47131262       0.00000362      -0.00001527      -0.00001325
H        7.56542953       2.84072279      24.86166264      -0.00001013       0.00002253      -0.00001108
H        2.13400863       3.27718561      22.42321685      -0.00000228      -0.00000496       0.00000041
H        1.25738357       3.96984373      17.49008198      -0.00000726       0.00000437       0.00000200
H        8.48760066       1.51407401      17.89565527       0.00000360      -0.00000382       0.00000557
H        8.48376119       7.85149452      17.89580270      -0.00000340       0.00000580       0.00001182
H        1.24061929       1.86426516      21.76900463       0.00000108      -0.00000023       0.00000434
H        1.25636361       1.12901640      16.56108876      -0.00000826      -0.00001073       0.00000577
H        7.56422968       9.99374740      23.75637205      -0.00000271       0.00000435      -0.00000442
H        7.58551447       8.36687953      15.69576919      -0.00000654      -0.00001286      -0.00000011
H        2.09214545       7.84522094      17.67897539      -0.00000562       0.00000666      -0.00000906
H        0.41177790       1.74331226      17.89544262       0.00001688       0.00002190      -0.00000746
H        6.73196893       9.38355213      22.41288110       0.00001673      -0.00001138       0.00001354
H        8.41956214       9.70004699      16.32629508       0.00000675      -0.00000841      -0.00000448
H        0.41557251       7.84087952      17.67770799      -0.00000088       0.00000317      -0.00001705
H        2.08862686       1.73945237      17.90446677      -0.00000592      -0.00000306      -0.00000821
H        8.44252362       3.10777254      16.06592492       0.00002733       0.00001049      -0.00001043
H        6.74298615       9.69565308      16.32506341       0.00000882      -0.00000508      -0.00000523
H        1.24964996       9.17412401      18.30803907      -0.00000594      -0.00000689       0.00000413
C        1.22720350       9.49907679      23.04221094       0.00000148       0.00001657       0.00001897
C        7.59338294       1.62395593      17.27504484       0.00001192       0.00002809      -0.00002337
C        7.56869777       2.04675487      24.10852033      -0.00001257       0.00000073      -0.00000038
C        1.23730500       2.65828790      22.52208959       0.00000834      -0.00000697      -0.00000378
Pb       4.41027373       5.56149012      20.15866722      -0.00000137       0.00000122      -0.00000329
Pb       4.40072292      11.90638553      20.17996153      -0.00000188      -0.00000348      -0.00000074
Pb      23.47787105      12.13589585       1.17785096      -0.00000094      -0.00000080      -0.00000873
Pb      23.40536668      11.91702112      20.18175783      -0.00000535      -0.00000417      -0.00000472
N        1.25373775       1.86544536      17.29482446       0.00000990      -0.00000673      -0.00000229
N        7.56685220       9.25744501      23.02250631      -0.00002742      -0.00000448      -0.00003318
N        7.58270872       9.09102853      16.44162449       0.00000754      -0.00000750       0.00003870
N        1.25244651       8.44985278      17.56229868       0.00000335      -0.00000021       0.00000889
I        4.75703746       4.83694001      23.30635823       0.00000207       0.00000879       0.00000386
I        4.06348488       6.28594579      17.01094940      -0.00000491       0.00000921       0.00000249
I        4.83706941       2.61929430       1.82648280      -0.00001021       0.00000231       0.00001332
I        4.08029033       8.79552592      13.15219258       0.00000449      -0.00000690      -0.00000162
I       23.78323745       6.29779526      17.01518599      -0.00000439       0.00000779      -0.00000519
I       10.37688240       4.83926176      23.30450366       0.00000717       0.00000508      -0.00000342
I       11.11936388       8.80036931      13.14861028       0.00000512       0.00000671       0.00000390
I       23.13731485       2.62860845       1.83247688       0.00000444       0.00000079      -0.00000249
I        7.57877999       5.00698033      19.72308008       0.00000652      -0.00001429       0.00000075
I        1.25640187      12.53390376      14.28092439      -0.00000294      -0.00001556       0.00000217
I        1.31653585       5.35719413       0.59004453      -0.00000247      -0.00000346      -0.00000539
I        7.60071638       6.05771574      14.38873181       0.00000759      -0.00000961       0.00000220
H        0.33302623       9.60890267      22.42153246      -0.00001577      -0.00000135       0.00000581
H        8.45379296       7.78562371      24.25135821      -0.00000411       0.00000949      -0.00000309
H        8.46917262       1.43365798      24.20918105       0.00000965      -0.00000867       0.00000623
H        2.14865863       9.69492102      16.10974916       0.00000092       0.00000591      -0.00000089
H        0.36675721       3.33704541      16.06573103       0.00001050      -0.00002804       0.00002415
H        6.65663011       7.78967521      24.23926259       0.00000391       0.00001138       0.00000190
H        6.68658524       7.84567229      17.89398441      -0.00000192       0.00000616      -0.00000217
H        1.25520779       8.28201074      15.45559875       0.00000309       0.00000721       0.00002245
H        2.13018376       9.60490309      22.43364239       0.00001113       0.00000011       0.00000211
H        7.56325780       7.15308799      22.82683578      -0.00000270       0.00001343       0.00001929
H        6.67199552       1.42785536      24.20739689       0.00000716       0.00000645      -0.00001240
H        0.35148088       9.68917896      16.10788638      -0.00000388      -0.00000432       0.00000364
H        2.05489071       8.01148270      24.26042362       0.00000777       0.00000479       0.00000307
H        7.59795637       3.72207007      17.40029063      -0.00000046       0.00001923       0.00000053
H        6.72838164       3.27772359      22.63835439       0.00001158       0.00000376       0.00000362
H        1.23502570       2.75626661      24.62147732      -0.00000186      -0.00000974      -0.00000589
H        1.22261976       7.40095962      22.91709091       0.00000811      -0.00000252      -0.00000170
H        6.76567748       3.11161474      16.05692933      -0.00003087       0.00000455      -0.00001362
H        7.57090030       1.94891063      22.00913271       0.00000805      -0.00000458      -0.00001023
H        2.07753917       1.42739890      23.99236269       0.00000579       0.00000496      -0.00000698
H        0.37803818       8.01533062      24.25140967       0.00000042       0.00000225      -0.00000823
H        8.40881646       9.37967305      22.42191609      -0.00000606      -0.00000423      -0.00000231
H        8.40495800       3.28211991      22.63956288      -0.00000498      -0.00001326       0.00000478
H        0.40096722       1.42303460      23.99109346       0.00000049      -0.00000100      -0.00000089
C        1.26096820       3.22712944      16.68634654      -0.00000919       0.00000429      -0.00001226
C        7.55961132       7.89564265      23.63072010       0.00001080       0.00000745       0.00001006
C        7.58328154       8.46458900      17.79516380       0.00000711       0.00001851      -0.00002337
C        1.25193116       9.07606316      16.20865377      -0.00000396      -0.00001004      -0.00000696
Pb       4.47324316      12.12526353       1.17603419      -0.00000040       0.00000145      -0.00000259
Pb       4.48281147       5.78036903       1.15474508      -0.00000116       0.00000231      -0.00000173
Pb      23.41493000       5.57212105      20.16044842       0.00000054       0.00000157       0.00000372
Pb      23.48742442       5.79100223       1.15652644      -0.00000038       0.00000089      -0.00000145
N        1.21999517       8.13743338      23.65078003      -0.00001024      -0.00002023      -0.00001076
N        7.60057702       2.98563821      16.66655887      -0.00000501      -0.00004353       0.00003572
N        7.56810674       2.67310912      22.75494174      -0.00000488      -0.00000834       0.00002598
N        1.23783287       2.03202420      23.87570955      -0.00001618       0.00001321      -0.00000221
I        4.81999945      11.40078862       4.32374617      -0.00000327      -0.00000299       0.00000746
I        4.09721394       0.01405875      10.65500756      -0.00000104      -0.00000139      -0.00000304
I        4.78417593      21.58103016       8.22505130      -0.00000266      -0.00000721      -0.00000042
I        4.09485301      15.21337931       6.83891947      -0.00000328       0.00001135      -0.00000434
I       23.81698404       0.02588575      10.65925776      -0.00000195       0.00000108      -0.00001098
I       10.43985000      11.40306256       4.32190484       0.00000493       0.00000947       0.00000004
I       11.13405720      15.21823472       6.83535294      -0.00000835       0.00000682      -0.00000032
I       23.08445986      21.59034707       8.23100435      -0.00000002      -0.00000281      -0.00000256
I        7.57426468      24.11455000      13.45233002       0.00000057       0.00001059       0.00000187
I        1.27099679      18.95176702       7.96761466       0.00000815       0.00000229       0.00000205
I        1.28280634      11.62909945       6.94591153      -0.00000477      -0.00000965       0.00000802
I        7.59619650      25.16529273       8.11803121       0.00001474       0.00000492      -0.00001025
H        2.19312971      16.16866943       3.45106840       0.00001007       0.00001390      -0.00000076
H        6.71965210      14.35382410       5.25700012      -0.00002682      -0.00000785       0.00002053
H        7.60920237      22.09422756       5.92169052      -0.00000649       0.00000174       0.00000023
H        0.36604335      16.10708645       9.79467703      -0.00000484       0.00000012      -0.00000191
H        1.25274160      23.07756421      11.21923028       0.00001059      -0.00001949      -0.00000233
H        7.62620030      13.71695412       3.84464971       0.00000362      -0.00001527      -0.00001325
H        7.59464202      15.67643801      12.23499973      -0.00001013       0.00002253      -0.00001108
H        2.16322112      16.11290083       9.79655394      -0.00000228      -0.00000496       0.00000041
H        1.28659606      16.80555895       4.86341907      -0.00000726       0.00000437       0.00000200
H        8.51681315      14.34978923       5.26899236       0.00000360      -0.00000382       0.00000557
H        8.51297368      20.68720974       5.26913979      -0.00000341       0.00000580       0.00001182
H        1.26983178      14.69998038       9.14234172       0.00000108      -0.00000023       0.00000434
H        1.28557610      13.96473162       3.93442585      -0.00000826      -0.00001072       0.00000577
H        7.59344217      22.82946262      11.12970914      -0.00000271       0.00000435      -0.00000442
H        7.61472696      21.20259475       3.06910628      -0.00000654      -0.00001286      -0.00000011
H        2.12135794      20.68093616       5.05231248      -0.00000562       0.00000666      -0.00000906
H        0.44099039      14.57902748       5.26877971       0.00001687       0.00002190      -0.00000746
H        6.76118142      22.21926735       9.78621819       0.00001673      -0.00001138       0.00001354
H        8.44877463      22.53576221       3.69963217       0.00000676      -0.00000841      -0.00000448
H        0.44478500      20.67659474       5.05104508      -0.00000088       0.00000317      -0.00001705
H        2.11783935      14.57516759       5.27780386      -0.00000592      -0.00000306      -0.00000821
H        8.47173611      15.94348776       3.43926201       0.00002733       0.00001049      -0.00001043
H        6.77219864      22.53136830       3.69840050       0.00000882      -0.00000508      -0.00000523
H        1.27886245      22.00983923       5.68137616      -0.00000594      -0.00000689       0.00000413
C        1.25641599      22.33479201      10.41554803       0.00000148       0.00001657       0.00001897
C        7.62259543      14.45967115       4.64838193       0.00001192       0.00002809      -0.00002337
C        7.59791026      14.88247009      11.48185742      -0.00001257       0.00000072      -0.00000038
C        1.26651749      15.49400312       9.89542668       0.00000834      -0.00000697      -0.00000378
Pb       4.43948622      18.39720534       7.53200431      -0.00000137       0.00000122      -0.00000330
Pb       4.42993541      24.74210075       7.55329862      -0.00000188      -0.00000349      -0.00000075
Pb      23.41039696      24.67977072      13.88972929      -0.00000094      -0.00000081      -0.00000873
Pb      23.43457917      24.75273634       7.55509491      -0.00000535      -0.00000417      -0.00000472
N        1.28295024      14.70116058       4.66816155       0.00000991      -0.00000674      -0.00000230
N        7.59606469      22.09316023      10.39584340      -0.00002741      -0.00000449      -0.00003320
N        7.61192121      21.92674375       3.81496158       0.00000755      -0.00000751       0.00003870
N        1.28165900      21.28556800       4.93563577       0.00000334      -0.00000023       0.00000888
I        4.78624995      17.67265523      10.67969532       0.00000207       0.00000879       0.00000385
I        4.09269737      19.12166101       4.38428649      -0.00000491       0.00000921       0.00000248
I        4.76959532      15.16316916      14.53836113      -0.00001021       0.00000232       0.00001332
I        4.10950282      21.63124114       0.52552967       0.00000448      -0.00000691      -0.00000163
I       23.81244994      19.13351048       4.38852307      -0.00000438       0.00000779      -0.00000519
I       10.40609489      17.67497698      10.67784075       0.00000717       0.00000508      -0.00000344
I       11.14857637      21.63608453       0.52194737       0.00000513       0.00000669       0.00000389
I       23.06984076      15.17248332      14.54435521       0.00000445       0.00000078      -0.00000250
I        7.60799248      17.84269555       7.09641717       0.00000652      -0.00001429       0.00000075
I        1.32387596      -0.00997110       1.56904606      -0.00000294      -0.00001556       0.00000217
I        1.24906176      17.90106899      13.30192286      -0.00000246      -0.00000346      -0.00000539
I        7.62992887      18.89343096       1.76206890       0.00000759      -0.00000961       0.00000220
H        0.36223872      22.44461789       9.79486955      -0.00001577      -0.00000135       0.00000581
H        8.48300545      20.62133893      11.62469530      -0.00000412       0.00000949      -0.00000309
H        8.49838511      14.26937320      11.58251814       0.00000965      -0.00000867       0.00000623
H        2.17787112      22.53063624       3.48308625       0.00000092       0.00000591      -0.00000089
H        0.39596970      16.17276063       3.43906812       0.00001050      -0.00002804       0.00002415
H        6.68584260      20.62539043      11.61259968       0.00000392       0.00001138       0.00000190
H        6.71579773      20.68138751       5.26732150      -0.00000192       0.00000616      -0.00000217
H        1.28442028      21.11772596       2.82893584       0.00000309       0.00000721       0.00002245
H        2.15939625      22.44061831       9.80697948       0.00001113       0.00000011       0.00000211
H        7.59247029      19.98880321      10.20017287      -0.00000270       0.00001343       0.00001929
H        6.70120801      14.26357058      11.58073398       0.00000716       0.00000645      -0.00001240
H        0.38069337      22.52489418       3.48122347      -0.00000388      -0.00000432       0.00000365
H        2.08410320      20.84719792      11.63376071       0.00000777       0.00000480       0.00000307
H        7.62716886      16.55778529       4.77362772      -0.00000046       0.00001923       0.00000053
H        6.75759413      16.11343881      10.01169148       0.00001158       0.00000376       0.00000362
H        1.26423819      15.59198183      11.99481441      -0.00000186      -0.00000974      -0.00000589
H        1.25183225      20.23667484      10.29042800       0.00000811      -0.00000252      -0.00000169
H        6.79488997      15.94732996       3.43026642      -0.00003086       0.00000455      -0.00001362
H        7.60011279      14.78462585       9.38246980       0.00000804      -0.00000458      -0.00001023
H        2.10675166      14.26311412      11.36569978       0.00000578       0.00000496      -0.00000698
H        0.40725067      20.85104584      11.62474676       0.00000041       0.00000225      -0.00000822
H        8.43802895      22.21538827       9.79525318      -0.00000606      -0.00000423      -0.00000231
H        8.43417049      16.11783513      10.01289997      -0.00000498      -0.00001326       0.00000478
H        0.43017971      14.25874982      11.36443055       0.00000050      -0.00000100      -0.00000090
C        1.29018069      16.06284466       4.05968363      -0.00000919       0.00000429      -0.00001226
C        7.58882381      20.73135787      11.00405719       0.00001080       0.00000745       0.00001006
C        7.61249403      21.30030422       5.16850089       0.00000711       0.00001851      -0.00002337
C        1.28114365      21.91177838       3.58199086      -0.00000396      -0.00001004      -0.00000696