96
Lattice="15.9520823834124 -0.1492052908204944 -0.0224422863026199 -0.07916621579312463 15.308181457770564 0.20287357609782253 -0.13435294568876605 -0.11071159648791035 8.710326265663921" Properties=species:S:1:pos:R:3:forces:R:3 energy=-457.54877213839495 stress="0.002214475698618749 -0.00019518372639187848 0.00011471044566660608 -0.00019518372639187848 0.0010302022754132892 7.748765916555711e-05 0.00011471044566660608 7.748765916555711e-05 0.00013094019872634093" free_energy=-457.54877213839495 pbc="T T T"
H        2.84084890       1.45416826       5.98900427      -0.00000367       0.00000171       0.00000039
H        3.24382372       1.91584197       8.23728437       0.00002256      -0.00001077      -0.00000791
H        2.85392988       0.30114080       8.75406919       0.00000195       0.00002381       0.00000588
H        2.21399530      -1.32514348       6.92379015      -0.00000610      -0.00004276       0.00001704
H        2.17150757      -0.64060114       5.29873468       0.00000371      -0.00001175      -0.00000746
H        7.18903946       1.84819807       1.71588976      -0.00000731       0.00001280       0.00000596
H        7.84924074       4.01417577       1.24365360       0.00000436       0.00001492      -0.00003027
H        7.73208186       4.54749785       2.90899118      -0.00000108      -0.00002261      -0.00000683
H        7.05126858       2.74633809       4.57502631      -0.00000127      -0.00002020      -0.00001537
H        6.70502861       1.18431704       3.89281269      -0.00001647      -0.00002383      -0.00000707
C        2.71389105       0.65996365       6.73149041       0.00000509      -0.00000761       0.00002206
C        7.27767985       2.57472319       2.53027690       0.00001009      -0.00003435      -0.00005306
N        2.97638113       0.95952341       7.98206209      -0.00000173      -0.00000047       0.00000311
N        2.32101207      -0.51622261       6.30129267       0.00000052       0.00004379      -0.00000806
N        7.67331673       3.78757000       2.22231409      -0.00001082       0.00001935       0.00005592
N        6.97034880       2.16162703       3.73842270       0.00000343       0.00007013       0.00006011
Pb       4.37919597      -2.17414167       2.55102877       0.00001087       0.00001542       0.00000351
Pb       0.38620937      -2.16714305       2.32948858      -0.00000247       0.00001338       0.00000082
I        6.35037528      -1.21560454       4.94085638      -0.00000013      -0.00000322      -0.00000674
I        3.59065431       4.10939143       4.98147658       0.00001080       0.00000454       0.00000763
I        6.25157771      -0.77707417       9.25193331       0.00000956       0.00001120      -0.00000815
I        3.61736482       4.22140625       9.41814302       0.00000157       0.00000350       0.00000870
I        7.49788679       2.88212806       7.27778487       0.00001419       0.00000165      -0.00000338
I        2.37562988       0.38737263       2.78778740      -0.00000529      -0.00001866      -0.00000843
H        3.32082749       7.07627014       1.63132597       0.00000072       0.00000284      -0.00000731
H        2.65894464       9.20070130       0.99314909       0.00000734       0.00000932      -0.00000188
H        2.46871119       9.76566319       2.64889469      -0.00000108       0.00000527      -0.00000112
H        3.08637471       8.09597392       4.43796541       0.00000132      -0.00000849      -0.00000370
H        3.53187667       6.51045302       3.87723833       0.00001031      -0.00000819       0.00001391
H        6.86368027       9.41647737       7.97472688      -0.00000825      -0.00000169      -0.00001397
H        7.24302539       8.89118421       5.74102715       0.00002496      -0.00003098      -0.00000585
H        6.78259173      10.46709126       5.16806177       0.00000524       0.00002546      -0.00002670
H        6.10862820      12.13547667       6.96068337       0.00000452      -0.00001996       0.00001333
H       15.19284814       9.24059968       8.68592133      -0.00002002       0.00000231       0.00002715
C        3.09715842       7.82630794       2.39559345       0.00000303      -0.00004117       0.00002600
C        6.69416991      10.17899081       7.20781746      -0.00000495      -0.00001592       0.00002591
N        2.67649536       9.00238490       1.99314396      -0.00000580      -0.00000009      -0.00002344
N        3.27304239       7.47505830       3.64776656      -0.00002847       0.00004921      -0.00004111
N        6.96511125       9.85183643       5.96481586      -0.00000902       0.00002829       0.00004502
N        6.24745865      11.34749974       7.60173992      -0.00000133       0.00001095      -0.00003704
Pb       5.56072776       5.47502260       7.16796986      -0.00000218      -0.00000834       0.00000099
Pb       1.59252881       5.44952550       7.16920040      -0.00000865      -0.00000200       0.00000209
I        7.73206003       6.87997358       9.11482311      -0.00000314      -0.00001244       0.00001244
I        2.27917482      12.09797832       8.95707047      -0.00002027      -0.00000065      -0.00000528
I        7.48070288       6.50463283       4.70083683      -0.00001238      -0.00000565      -0.00000155
I        2.19594183      11.50029387       4.63385229      -0.00000893      -0.00001738       0.00000839
I        6.22934370      10.54866121       2.46498704       0.00001685       0.00000829       0.00001163
I        3.52511776       8.06139638       7.24114240       0.00000724      -0.00002197      -0.00000522
H       10.74190127       1.28498018       7.76024606      -0.00000049       0.00000354       0.00001751
H       11.22572765       1.94905804       5.58333802       0.00001877       0.00000850       0.00000761
H       10.87945285       0.38709273       4.90101671       0.00001901       0.00000787       0.00000113
H       10.19883501      -1.41423024       6.56694711      -0.00000372       0.00001010       0.00001305
H       10.08178234      -0.88107503       8.23233761       0.00000585       0.00002666      -0.00001370
H       15.09000512       1.67902171       3.48723087      -0.00000066       0.00000204       0.00000837
H       14.68682880       1.21734101       1.23899246       0.00001295      -0.00000518       0.00001208
H       15.07673886       2.83201816       0.72215411       0.00001333      -0.00000504       0.00001509
H       15.71689456       4.45830703       2.55238023      -0.00000276      -0.00000413      -0.00002971
H       15.75947441       3.77377061       4.17743200      -0.00000478      -0.00000088      -0.00000682
C       10.65321201       0.55852398       6.94580378      -0.00001285       0.00000744      -0.00000411
C       15.21693449       2.47321540       2.74472851      -0.00002897      -0.00001592      -0.00006763
N       10.96042544       0.97173348       5.73766632      -0.00000668      -0.00004715      -0.00001189
N       10.25763316      -0.65436151       7.25368837      -0.00000242      -0.00005109       0.00000665
N       14.95431970       2.17365422       1.49418236      -0.00000670       0.00003155       0.00000362
N       15.60990327       3.64938681       3.17488471       0.00000249       0.00000682       0.00005428
Pb      12.37009047      -2.34183056       2.30821197      -0.00000230      -0.00000531       0.00000462
Pb       8.37073192      -2.25873432       2.51872289      -0.00000788      -0.00001488       0.00000434
I       14.34012386      -0.97621037       4.49474046       0.00000022       0.00000693      -0.00001881
I       11.58048854       4.34893282       4.53523414       0.00000139       0.00000431       0.00000348
I       14.17914282      -1.19894449       8.76839804      -0.00000199      -0.00000135      -0.00001885
I       11.54485446       3.79958722       8.93450635      -0.00001100       0.00001286      -0.00000455
I       15.55517503       2.74582705       6.68843466      -0.00000594       0.00001563       0.00000269
I       10.43296058       0.25110816       2.19831973       0.00000524       0.00000079       0.00000048
H       10.98792827       9.02499905       1.70427137       0.00000991      -0.00001728       0.00001657
H       10.60841894       9.55010150       3.93798918       0.00001018      -0.00002564      -0.00000821
H       11.06890448       7.97416841       4.51085546      -0.00000499       0.00003372      -0.00001566
H       11.74309465       6.30597987       2.71817062       0.00000577      -0.00003056       0.00003052
H       11.75684678       6.93978194       1.08001296       0.00000185      -0.00000921      -0.00003833
H       14.53095057      11.36506504       8.04783668      -0.00001142      -0.00000574      -0.00000894
H       14.31982446      11.93094672       5.80193996      -0.00000107      -0.00000979       0.00001143
H       14.76530999      10.34544458       5.24115690      -0.00000125      -0.00000748       0.00001863
H       15.38302638       8.67570246       7.03015278       0.00000120      -0.00001528       0.00000659
H        6.09493708      11.50179124       8.59888414      -0.00000131      -0.00000369      -0.00001818
C       11.15743564       8.26243769       2.47113461      -0.00000074       0.00001154      -0.00002031
C       14.75459305      10.61505032       7.28353882      -0.00000097       0.00003254      -0.00001716
N       10.88638367       8.58947579       3.71414220      -0.00000805       0.00002334       0.00005063
N       11.60425225       7.09398743       2.07715900      -0.00000937       0.00002863       0.00000854
N       14.57867431      10.96633778       6.03138132       0.00000746      -0.00000556       0.00000063
N       15.17526157       9.43895758       7.68593737       0.00001046       0.00000634      -0.00001177
Pb      13.55164035       5.30736804       6.92511709       0.00000114      -0.00001253       0.00000676
Pb       9.56010434       5.39200017       6.95737799      -0.00000692      -0.00000191      -0.00000140
I       15.43810883       6.23268671       9.43234681      -0.00000045      -0.00000599      -0.00001147
I        9.98525834      11.45077981       9.27445522       0.00000620       0.00000762       0.00000977
I       15.65577259       6.94106835       5.04521240       0.00001960       0.00000725      -0.00000071
I       10.37089004      11.93668963       4.97813743      -0.00000640       0.00000943      -0.00001015
I       14.32650845      10.37998033       2.43798115       0.00001251       0.00001782      -0.00001107
I       11.62234176       7.89277399       7.21396513      -0.00000281      -0.00000870      -0.00000672
