320
Lattice="36.16426840526522 -0.04373444033676728 -0.635891615382257 0.06409189077822319 21.17162663484452 0.055228187207073606 0.32970937011554713 -0.04347485342927254 19.393571839107018" Properties=species:S:1:pos:R:3:forces:R:3 energy=-994.5713374426512 stress="0.0032470040419503316 5.452111599033864e-05 -2.1287592898211234e-05 5.452111599033864e-05 0.003270786117570909 2.3543105323711004e-05 -2.1287592898211234e-05 2.3543105323711004e-05 0.0032767232655358195" free_energy=-994.5713374426512 pbc="T T T"
Cs       8.00896899       5.28796657       5.85130915       0.00000445       0.00001198       0.00001130
Cs      14.23375171      14.15382350       3.33966228      -0.00000096       0.00000314      -0.00001012
Cs       5.22407325      10.58428940       5.91394053      -0.00000161       0.00000652      -0.00000840
Cs      17.01863865       8.85753220       3.27704436       0.00000922       0.00000357       0.00000085
Cs       8.09141861       5.27707881      10.69972054      -0.00000642       0.00000564      -0.00000425
Cs      14.31618569      14.14300409       8.18803610      -0.00000171      -0.00001118       0.00000215
Cs       5.30650637      10.57344760      10.76233020      -0.00001381      -0.00000816      -0.00000195
Cs      17.10109601       8.84667488       8.12546614      -0.00000336      -0.00000004      -0.00000708
Pb       3.14196887       6.14912262       3.51409330       0.00000621       0.00001813       0.00000409
Pb      19.10078853      13.29270787       5.67687151      -0.00001635       0.00000886       0.00000114
Pb      10.01113988      11.43454426       3.40697096       0.00001489      -0.00001392       0.00002272
Pb      12.23156416       8.00729587       5.78399613      -0.00000304       0.00002559      -0.00000139
Pb       3.22440869       6.13827212       8.36250676       0.00000557       0.00000803       0.00000261
Pb      19.18319174      13.28186384      10.52528098      -0.00001317       0.00000537      -0.00001199
Pb      10.09357137      11.42366385       8.25537576       0.00001608      -0.00000778      -0.00000778
Pb      12.31399988       7.99644555      10.63238863       0.00001776      -0.00000261      -0.00000070
I        2.07195147       8.00963182       5.96184166      -0.00000360       0.00000117       0.00000277
I        2.08869029      11.45412653       3.54710405       0.00000064      -0.00000485      -0.00000667
I       11.17453718      13.28942505       5.81623100      -0.00001105       0.00000915      -0.00001076
I       11.06817713       6.15241181       3.37474663       0.00000472      -0.00000354      -0.00000653
I       18.12530429       4.75375658       3.24511561      -0.00000307      -0.00000483       0.00000639
I        4.11741174      14.68815629       5.94584367       0.00000396       0.00000394       0.00000350
I       13.10457527      10.04931663       3.34903419      -0.00000170      -0.00001115      -0.00000990
I        9.13813328       9.39253249       5.84194273       0.00000494       0.00000276       0.00000505
I        5.90863052       7.58099301       3.46912058      -0.00002500       0.00000180       0.00000840
I       16.33413545      11.86082780       5.72184755      -0.00000632       0.00000040      -0.00000162
I        7.25066986      12.87558819       3.45967981      -0.00001784       0.00001098       0.00000237
I       14.99204359       6.56626008       5.73131238       0.00000310      -0.00000359      -0.00000165
I        2.15439247       7.99876619      10.81027500      -0.00000720      -0.00000178      -0.00001566
I        2.17113960      11.44323377       8.39548242      -0.00000571       0.00000976      -0.00000653
I       11.25696764      13.27857798      10.66460280      -0.00001330      -0.00000373       0.00000647
I       11.15061249       6.14153580       8.22315765       0.00000371      -0.00000300      -0.00000302
I       18.20771504       4.74284504       8.09353839      -0.00000083       0.00000321      -0.00000118
I        4.19984692      14.67732146      10.79422626       0.00000631      -0.00001900      -0.00000135
I       13.18700627      10.03844054       8.19741125       0.00000106       0.00000058       0.00000609
I        9.22057022       9.38166554      10.69035539      -0.00000451      -0.00000253      -0.00000229
I        5.99107405       7.57013416       8.31755493      -0.00001486      -0.00001015      -0.00000821
I       16.41653027      11.84999110      10.57022795       0.00001364      -0.00001007       0.00000730
I        7.33310356      12.86472321       8.30807875      -0.00001022       0.00000198      -0.00000741
I       15.07448126       6.55539873      10.57972203      -0.00001225       0.00000288      -0.00000938
Cs       8.17380383       5.26621620      15.54810308       0.00001021       0.00001169       0.00001294
Cs      14.39858821      14.13209017      13.03646634       0.00000966       0.00001026      -0.00001381
Cs       5.38892321      10.56257366      15.61070246      -0.00000720       0.00000231       0.00000220
Cs      17.18352569       8.83582889      12.97385154      -0.00000081      -0.00000999      -0.00001087
Cs       7.92654374       5.29886483       1.00290442      -0.00000032      -0.00000317       0.00000713
Cs      14.48101479      14.12125804      17.88483879       0.00000994       0.00000020       0.00000032
Cs       5.14160807      10.59518912       1.06554822       0.00000596      -0.00000038      -0.00000303
Cs      17.26594398       8.82490374      17.82222191       0.00000484       0.00001099      -0.00000236
Pb       3.30684707       6.12736858      13.21089377      -0.00002542      -0.00000013      -0.00000591
Pb      19.26563730      13.27098907      15.37366288      -0.00002158       0.00000141      -0.00000385
Pb      10.17601147      11.41280918      13.10375651       0.00000279       0.00000017       0.00000308
Pb      12.39640823       7.98558057      15.48077581       0.00003096      -0.00000636       0.00000106
Pb       3.38922821       6.11657290      18.05928815      -0.00000616      -0.00000763      -0.00000678
Pb      19.01833781      13.30355259       0.82847264      -0.00000625       0.00001525       0.00000184
Pb      10.25840620      11.40193594      17.95215770       0.00001609       0.00000119       0.00001186
Pb      12.14912985       8.01819052       0.93559291       0.00001336      -0.00000373       0.00001241
I        2.23679417       7.98790770      15.65859167      -0.00000501       0.00000176       0.00001398
I        2.25353833      11.43237978      13.24387198       0.00001065       0.00000670      -0.00000458
I       11.33936873      13.26771250      15.51302110       0.00000015      -0.00000650      -0.00000492
I       11.23304160       6.13067014      13.07153563      -0.00000177      -0.00000101       0.00000128
I       18.29015752       4.73196184      12.94192556       0.00000541      -0.00000085      -0.00000111
I        4.28227969      14.66642039      15.64261650      -0.00000221      -0.00000041      -0.00000244
I       13.26944276      10.02758390      13.04581394      -0.00000788       0.00000123       0.00000346
I        9.30298343       9.37080854      15.53872442      -0.00000180      -0.00000785      -0.00000224
I        6.07349880       7.55923975      13.16591474      -0.00000578       0.00001238       0.00000742
I       16.49898366      11.83910332      15.41865046      -0.00000196       0.00000545      -0.00000525
I        7.41552818      12.85384539      13.15644611       0.00000209       0.00001415       0.00000578
I       15.15689220       6.54453005      15.42807906      -0.00001926       0.00000392      -0.00000304
I        1.98949086       8.02053409       1.11348578       0.00000633      -0.00000946      -0.00000954
I        2.33598313      11.42152492      18.09223918      -0.00000329      -0.00000658       0.00000374
I       11.09207435      13.30032652       0.96782657       0.00000914      -0.00000879      -0.00000377
I       11.31546314       6.11980938      17.91992852      -0.00000519      -0.00000585      -0.00001109
I       18.37260799       4.72113295      17.79028957      -0.00001034      -0.00000644       0.00001072
I        4.03499005      14.69902825       1.09745667       0.00000424      -0.00000805      -0.00000293
I       13.35185091      10.01671415      17.89420052      -0.00000426       0.00000595      -0.00000131
I        9.05569596       9.40340896       0.99355907      -0.00000201      -0.00000757      -0.00000483
I        6.15589261       7.54842406      18.01431173       0.00000388      -0.00000427      -0.00000089
I       16.25167394      11.87169292       0.87341875       0.00000527      -0.00000562       0.00001028
I        7.49793654      12.84298917      18.00487322      -0.00000139      -0.00000065      -0.00001248
I       14.90959949       6.57712227       0.88289231      -0.00000190       0.00001420       0.00000049
Cs       8.04100788      15.87381571       5.87893548      -0.00000850      -0.00000268      -0.00000159
Cs      14.20171856       3.56804244       3.31202235      -0.00000078       0.00000417       0.00001283
Cs       5.25609545      21.17017018       5.94154243      -0.00000966      -0.00000645      -0.00000137
Cs      17.05072651      19.44336486       3.30465224      -0.00000284      -0.00000493      -0.00000139
Cs       8.12341634      15.86296548      10.72732496       0.00000359      -0.00000433       0.00000052
Cs      14.28414630       3.55716546       8.16045202       0.00000040       0.00000604      -0.00000631
Cs       5.27440035      -0.01234531      10.73469459       0.00000133      -0.00000460       0.00001044
Cs      17.13312128      19.43246652       8.15304916       0.00000696      -0.00000043      -0.00000732
Pb       3.17397675      16.73498068       3.54172068       0.00001052       0.00000504       0.00000240
Pb      19.06871709       2.70691619       5.64923741      -0.00000277       0.00000344       0.00000894
Pb       9.97910762       0.84873004       3.37936914       0.00001343      -0.00000765      -0.00000635
Pb      12.26362802      18.59312868       5.81160314       0.00000133       0.00000665      -0.00001427
Pb       3.25640569      16.72413483       8.39008687       0.00000728      -0.00000511       0.00001561
Pb      19.15116974       2.69601109      10.49765008      -0.00000752       0.00000886       0.00000118
Pb      10.06154852       0.83782252       8.22776018       0.00000038       0.00000852      -0.00000265
Pb      12.34602298      18.58223626      10.66000371       0.00001828       0.00000436      -0.00001365
I        2.10391743      18.59549508       5.98944724       0.00001574      -0.00001411       0.00000463
I        2.05662065       0.86832811       3.51946619      -0.00001251      -0.00000091      -0.00000090
I       11.14251075       2.70361162       5.78862022      -0.00001143      -0.00000236      -0.00000054
I       11.10022606      16.73823104       3.40236713       0.00000256      -0.00000403       0.00000259
I       18.15733987      15.33951683       3.27272891       0.00000480      -0.00000407       0.00001016
I        4.08538183       4.10230885       5.91823963      -0.00000025      -0.00000537      -0.00000455
I       13.13664064      20.63513692       3.37662769      -0.00000776      -0.00000289       0.00000596
I        9.17018853      19.97834395       5.86955086      -0.00000560      -0.00000021       0.00000362
I        5.94063558      18.16686753       3.49677643      -0.00000931      -0.00001541      -0.00000945
I       16.30206603       1.27502739       5.69421565       0.00000510       0.00000104      -0.00000166
I        7.21863412       2.28977904       3.43203522      -0.00001216      -0.00000454       0.00000802
I       15.02409686      17.15206466       5.75888038      -0.00000680       0.00001408       0.00001127
I        2.18636735      18.58461619      10.83785211      -0.00000290       0.00000280       0.00000120
I        2.13901872       0.85743386       8.36785234       0.00000585       0.00000177      -0.00000425
I       11.22492481       2.69271637      10.63701211      -0.00000780       0.00001041       0.00000131
I       11.18263590      16.72735934       8.25072610       0.00001497       0.00000179       0.00002057
I       18.23976323      15.32867078       8.12113162       0.00000387       0.00000039       0.00000475
I        4.16780398       4.09140587      10.76660225       0.00000184       0.00001289       0.00000687
I       13.21907749      20.62424485       8.22504368      -0.00000902      -0.00000730      -0.00000220
I        9.25258871      19.96746103      10.71795372       0.00000374       0.00000036      -0.00000067
I        6.02307026      18.15599754       8.34513105      -0.00000824      -0.00000608      -0.00000313
I       16.38451905       1.26413167      10.54261075      -0.00001217       0.00000420       0.00000916
I        7.30108133       2.27888540       8.28045671      -0.00000839       0.00000275      -0.00000323
I       15.10649747      17.14118147      10.60731873      -0.00000499       0.00001605      -0.00000349
Cs       8.20585606      15.85206774      15.57570851      -0.00000813       0.00000581       0.00000887
Cs      14.36656416       3.54627920      13.00883046       0.00000685       0.00001009      -0.00000535
Cs       5.42089417      21.14842161      15.63835681       0.00001334      -0.00000946      -0.00001439
Cs      17.21556511      19.42159844      13.00144432      -0.00000090       0.00000573       0.00000243
Cs       7.95855282      15.88471377       1.03055059       0.00000542      -0.00000676      -0.00000455
Cs      14.44899557       3.53541663      17.85720088       0.00000286       0.00001462       0.00000752
Cs       5.10953311       0.00936724       1.03792684       0.00001369       0.00000208      -0.00000907
Cs      17.29798473      19.41071678      17.84985005       0.00000781       0.00000908      -0.00000005
Pb       3.33884487      16.71326111      13.23850364      -0.00000652      -0.00000140      -0.00000970
Pb      19.23358971       2.68513591      15.34605032      -0.00000686       0.00001499       0.00000147
Pb      10.14393946       0.82695213      13.07616121       0.00000793       0.00000703      -0.00000348
Pb      12.42846768      18.57139512      15.50839681       0.00000940       0.00000074      -0.00000872
Pb       3.42125721      16.70236079      18.08688908      -0.00000087       0.00000052       0.00000748
Pb      18.98631155       2.71778768       0.80085327      -0.00000400       0.00000865       0.00000244
Pb      10.22639206       0.81610387      17.92455285       0.00000825      -0.00000237       0.00000199
Pb      12.18118291      18.60400126       0.96322653       0.00000945       0.00000121      -0.00001185
I        2.26876897      18.57373261      15.68626400       0.00000963      -0.00000600      -0.00001185
I        2.22144683       0.84657325      13.21626926       0.00000413       0.00000398      -0.00000148
I       11.30733908       2.68186953      15.48538544      -0.00000593      -0.00000357       0.00000627
I       11.26506874      16.71648480      13.09915757       0.00000111      -0.00000090       0.00000366
I       18.32217011      15.31781811      12.96954185       0.00001257      -0.00000470       0.00000388
I        4.25020461       4.08055789      15.61507269       0.00001414       0.00000459      -0.00002035
I       13.30147748      20.61338284      13.07339567      -0.00000363      -0.00000633       0.00002065
I        9.33502829      19.95659847      15.56636701      -0.00000994      -0.00000257      -0.00000354
I        6.10549593      18.14514166      13.19354501      -0.00000079      -0.00000710       0.00000448
I       16.46692497       1.25326711      15.39100861       0.00000573      -0.00000904      -0.00000030
I        7.38346260       2.26800619      13.12886432       0.00000615       0.00000089      -0.00000745
I       15.18893836      17.13033126      15.45569442      -0.00000780       0.00000678       0.00000545
I        2.02150095      18.60633411       1.14106753       0.00000144       0.00000001       0.00000020
I        2.30384104       0.83568790      18.06464638       0.00001264       0.00000904       0.00000701
I       11.06006537       2.71449494       0.94021515       0.00000104      -0.00000510      -0.00000748
I       11.34750277      16.70563767      17.94753909      -0.00000212      -0.00000551       0.00000561
I       18.40463194      15.30693433      17.81793850       0.00000147      -0.00000261      -0.00000053
I        4.00294021       4.11318336       1.06979771      -0.00000191      -0.00000052       0.00001145
I       13.38392803      20.60251998      17.92181352      -0.00001115      -0.00000385       0.00001066
I        9.08774507      19.98922083       1.02118060       0.00000071      -0.00000336      -0.00000091
I        6.18791196      18.13423617      18.04190327       0.00000002       0.00000469       0.00001885
I       16.21966373       1.28589669       0.84581857      -0.00000789       0.00000374       0.00000006
I        7.46591829       2.25714234      17.97725762      -0.00001428       0.00000713      -0.00000374
I       14.94164982      17.16293459       0.91054304       0.00000023       0.00000675      -0.00000563
Cs      26.09108863       5.26615501       5.53336005       0.00000103      -0.00000802       0.00000400
Cs      32.31591307      14.13198563       3.02172065      -0.00001081       0.00000193      -0.00000007
Cs      23.30616833      10.56242840       5.59601889       0.00000230       0.00001158      -0.00001069
Cs      35.10083271       8.83570731       2.95912621      -0.00000821       0.00000171      -0.00000202
Cs      26.17350617       5.25526841      10.38177261       0.00001058      -0.00000446      -0.00000208
Cs      32.39831238      14.12119174       7.87010969       0.00000435      -0.00001809       0.00000274
Cs      23.38861979      10.55153989      10.44438687      -0.00001229       0.00001096       0.00000300
Cs      35.18328153       8.82480192       7.80750776      -0.00000941       0.00000675      -0.00000186
Pb      21.22407819       6.12731777       3.19614606      -0.00001513      -0.00002510      -0.00000724
Pb       1.01863968      13.31460747       5.99485221       0.00000231      -0.00000239      -0.00000512
Pb      28.09327293      11.41266818       3.08905658       0.00001109       0.00001690      -0.00000690
Pb      30.31371911       7.98551107       5.46606809      -0.00000087      -0.00000942      -0.00000953
Pb      21.30648621       6.11637763       8.04453825      -0.00000586      -0.00000096       0.00000234
Pb       1.10109163      13.30374625      10.84322009      -0.00001040      -0.00000397      -0.00000385
Pb      28.17570415      11.40181041       7.93744400      -0.00000255       0.00001164       0.00000413
Pb      30.39612088       7.97460332      10.31445350       0.00002123      -0.00000196       0.00000027
I       20.15401350       7.98777318       5.64391729       0.00000685      -0.00000208      -0.00000161
I       20.17081006      11.43220347       3.22913051       0.00000800       0.00000185       0.00000055
I       29.25667653      13.26757125       5.49829462      -0.00000786       0.00000424       0.00000973
I       29.15033198       6.13062085       3.05679967      -0.00000313      -0.00000610       0.00000748
I        0.04315550       4.77564329       3.56308905       0.00000310       0.00001145      -0.00000112
I       22.19957307      14.66623940       5.62790140      -0.00001335      -0.00000247      -0.00000024
I       31.18674184      10.02750737       3.03108799      -0.00000554      -0.00000222       0.00000885
I       27.22025480       9.37067583       5.52402548       0.00000579      -0.00000174      -0.00000209
I       23.99073332       7.55918580       3.15118112       0.00001414       0.00000573      -0.00000430
I       34.41625427      11.83899108       5.40393814       0.00000605      -0.00000169      -0.00000556
I       25.33280070      12.85371984       3.14180056       0.00000871      -0.00000033      -0.00002423
I       33.07418398       6.54444166       5.41337215      -0.00000232       0.00000836      -0.00000597
I       20.23646756       7.97687283      10.49230144      -0.00000007       0.00000450       0.00000111
I       20.25325594      11.42137336       8.07754290      -0.00000840      -0.00001841       0.00000305
I       29.33906458      13.25672640      10.34668521       0.00000517      -0.00000437      -0.00000874
I       29.23274170       6.11972591       7.90518747      -0.00000538      -0.00001455       0.00000037
I        0.12560018       4.76478632       8.41149241      -0.00000155      -0.00001317      -0.00000537
I       22.28196811      14.65540597      10.47629988       0.00000232      -0.00000307      -0.00000369
I       31.26915523      10.01661491       7.87950946      -0.00000112       0.00000003      -0.00000583
I       27.30267545       9.35980284      10.37240278       0.00000231      -0.00000546       0.00000100
I       24.07313997       7.54824881       7.99957926       0.00002274       0.00002063       0.00000607
I       34.49870916      11.82811966      10.25224533      -0.00000588       0.00000875       0.00000943
I       25.41522759      12.84285609       7.99016770       0.00000479      -0.00000572      -0.00001242
I       33.15659958       6.53355203      10.26174659      -0.00000942       0.00001780       0.00000574
Cs      26.25597155       5.24439105      15.23019118      -0.00001052       0.00000155      -0.00000357
Cs      32.48074666      14.11022692      12.71844960       0.00000580       0.00002514       0.00002392
Cs      23.47104328      10.54071247      15.29276436      -0.00000609       0.00000542      -0.00000252
Cs      35.26566875       8.81397316      12.65586586      -0.00000311      -0.00000284       0.00001530
Cs      26.00868477       5.27702264       0.68497588      -0.00000752      -0.00000325       0.00001054
Cs      32.56315343      14.09939512      17.56689899       0.00001237       0.00000324      -0.00000754
Cs      23.22379869      10.57338834       0.74757982      -0.00001652      -0.00002072       0.00000147
Cs      35.34812530       8.80308917      17.50426780      -0.00000771       0.00001168       0.00000274
Pb      21.38893707       6.10549968      12.89293853      -0.00001595      -0.00000947       0.00001077
Pb       1.18349693      13.29289593      15.69159758      -0.00001488      -0.00001311       0.00000848
Pb      28.25810372      11.39094566      12.78582070       0.00003031       0.00000848       0.00001611
Pb      30.47857372       7.96378436      15.16283858      -0.00000117      -0.00000580       0.00000234
Pb      21.47138502       6.09469557      17.74133891      -0.00002604      -0.00002370      -0.00000456
Pb       0.93621945      13.32547636       1.14643328      -0.00000550      -0.00001423       0.00000181
Pb      28.34057263      11.38013819      17.63420428       0.00001884      -0.00001847       0.00000344
Pb      30.23130611       7.99639186       0.61765872      -0.00000951      -0.00000357      -0.00001451
I       20.31890541       7.96601821      15.34066190      -0.00000536       0.00000810       0.00000250
I       20.33566749      11.41048922      12.92590949      -0.00000154       0.00000418       0.00000547
I       29.42153030      13.24587224      15.19502954      -0.00001536      -0.00000319       0.00000119
I       29.31517618       6.10884794      12.75363051      -0.00000509       0.00000155      -0.00001026
I        0.20802137       4.75390733      13.25986217      -0.00000072      -0.00000488       0.00000812
I       22.36440614      14.64454114      15.32464005       0.00000198      -0.00000494       0.00001099
I       31.35157192      10.00576503      12.72784185      -0.00000348      -0.00001183       0.00000421
I       27.38512195       9.34896925      15.22082747      -0.00000209      -0.00000236      -0.00001711
I       24.15558386       7.53738608      12.84801203       0.00002327       0.00001000      -0.00001166
I       34.58111806      11.81726712      15.10067764       0.00000183      -0.00000171      -0.00000615
I       25.49764406      12.83200485      12.83852017      -0.00000714      -0.00000214      -0.00000041
I       33.23903868       6.52271870      15.11014486       0.00000186       0.00000045      -0.00000545
I       20.07161891       7.99867901       0.79549344       0.00000187      -0.00001227      -0.00000190
I       20.41810157      11.39960566      17.77427937       0.00000433       0.00000060       0.00000612
I       29.17423378      13.27847121       0.64992619      -0.00000347      -0.00000392      -0.00000703
I       29.39761876       6.09801120      17.60198477       0.00000392      -0.00000821       0.00001211
I        0.29043312       4.74305288      18.10827403       0.00000184      -0.00000459      -0.00000166
I       22.11712045      14.67708515       0.77948067       0.00000607       0.00001311       0.00000237
I       31.43401636       9.99492400      17.57625847       0.00000006      -0.00001472       0.00000154
I       27.13785448       9.38158156       0.67558668      -0.00001136       0.00000288       0.00000753
I       24.23803249       7.52657630      17.69637253       0.00000997      -0.00000349       0.00000551
I       34.33384763      11.84983484       0.55549408      -0.00000296       0.00001957       0.00000605
I       25.58010021      12.82118518      17.68685115      -0.00001507      -0.00001632       0.00001708
I       32.99176887       6.55532460       0.56496533      -0.00000102       0.00000497       0.00000131
Cs      26.12316465      15.85194329       5.56103737      -0.00001178      -0.00000073      -0.00000494
Cs      32.28380942       3.54624401       2.99410017       0.00001058      -0.00001160      -0.00000521
Cs      23.33820812      21.14823115       5.62358968       0.00000042       0.00000613      -0.00000070
Cs      35.13282583      19.42154257       2.98671972       0.00000178      -0.00000078      -0.00000843
Cs      26.20557074      15.84110422      10.40940986      -0.00000915      -0.00000082      -0.00001372
Cs      32.36625073       3.53535545       7.84248630       0.00000211      -0.00000540       0.00000165
Cs      23.35657128      -0.03422742      10.41675866      -0.00001072       0.00000829      -0.00000226
Cs      35.21525057      19.41064361       7.83510916       0.00000440       0.00001460      -0.00000255
Pb      21.25612771      16.71303792       3.22375853      -0.00000778       0.00000508       0.00000583
Pb       0.98656942       2.72882161       5.96721468       0.00000317      -0.00001188       0.00000551
Pb      28.06120041       0.82686628       3.06143298       0.00000470       0.00000403      -0.00001112
Pb      30.34573398      18.57129094       5.49366593       0.00001020      -0.00000279       0.00000378
Pb      21.33854060      16.70220431       8.07215165      -0.00001234      -0.00000427       0.00000231
Pb       1.06899084       2.71792842      10.81560365       0.00000378       0.00000298       0.00000591
Pb      28.14364718       0.81601789       7.90981417       0.00000584       0.00000140      -0.00000100
Pb      30.42819018      18.56045534      10.34207034       0.00000765      -0.00000372      -0.00000288
I       20.18606525      18.57354808       5.67148582       0.00001124       0.00000213       0.00000399
I       20.13877496       0.84642177       3.20150234      -0.00000577      -0.00000586       0.00000704
I       29.22458974       2.68178614       5.47065025       0.00000343       0.00000423       0.00001046
I       29.18234166      16.71636566       3.08445442       0.00001550      -0.00000176      -0.00000214
I        0.07521564      15.36142113       3.59070773      -0.00000974       0.00000677       0.00000351
I       22.16749463       4.08046087       5.60024819       0.00000097      -0.00000703       0.00000504
I       31.21873741      20.61328526       3.05869314      -0.00000068       0.00000033       0.00000373
I       27.25229613      19.95649317       5.55164057      -0.00000337       0.00000072      -0.00000334
I       24.02278149      18.14490729       3.17882643       0.00000958       0.00002426      -0.00000294
I       34.38418223       1.25321483       5.37628032       0.00000380      -0.00000045      -0.00000356
I       25.30072757       2.26792187       3.11412566       0.00001516      -0.00001003      -0.00000612
I       33.10621382      17.13024558       5.44094911       0.00000214       0.00000392       0.00000890
I       20.26848265      18.56272228      10.51987240       0.00000578      -0.00000277       0.00000925
I       20.22118892       0.83554164       8.04987116       0.00000594      -0.00000719       0.00000951
I       29.30703827       2.67093720      10.31905327      -0.00000615      -0.00001030       0.00000292
I       29.26480604      16.70553250       7.93284940      -0.00000518      -0.00000373      -0.00001432
I        0.15763604      15.35057222       8.43911272       0.00000504       0.00000643      -0.00001262
I       22.24994702       4.06955410      10.44865453      -0.00000803       0.00000223       0.00000387
I       31.30118320      20.60244124       7.90707139      -0.00000059      -0.00000070       0.00001034
I       27.33474640      19.94565021      10.40002344      -0.00000905      -0.00000379       0.00000141
I       24.10518441      18.13409472       8.02721178       0.00002652       0.00000341      -0.00000177
I       34.46659714       1.24233209      10.22467401       0.00000732      -0.00000123      -0.00000317
I       25.38315920       2.25703647       7.96248825       0.00001132       0.00001530       0.00000401
I       33.18866484      17.11940157      10.28937673      -0.00001445      -0.00000750       0.00000140