768
Lattice="38.322138455744906 0.8008643429155324 0.10459777366291671 -0.11738699342832003 22.245391945115234 -0.11392937582694286 -0.017487643525237902 0.036766201994958135 19.25876699794919" Properties=species:S:1:pos:R:3:forces:R:3 energy=-3354.065841514449 stress="0.0031745154182663262 0.00037882214791661034 5.0050218325094986e-05 0.00037882214791661034 0.0027129072346003913 -0.0001467613323110305 5.0050218325094986e-05 -0.0001467613323110305 0.002873793092498996" free_energy=-3354.065841514449 pbc="T T T"
I       16.60028817       5.11070792       1.82495870      -0.00000180      -0.00000753       0.00001030
I       17.21557828       8.96248949      18.65235739       0.00000118       0.00001291       0.00001745
I        7.64738582      10.47212257       1.77243517      -0.00000503       0.00002226      -0.00000377
I        7.00745551       3.20070694      18.65256131      -0.00002398      -0.00000449       0.00000516
I       14.92713394       1.60873373      18.69663010      -0.00001208       0.00000411       0.00001063
I       38.04985500      12.86492430       1.83303692      -0.00001236      -0.00001136       0.00000436
I        9.31054858       7.00081216      18.64516687      -0.00000142      -0.00002806       0.00000305
I        5.34424424       6.67203465       1.77988360      -0.00000016       0.00000350      -0.00000743
I        1.35281830       4.61335496      18.62697291      -0.00001172      -0.00000970      -0.00000479
I       13.30203637       9.05942423       1.79798886      -0.00001528       0.00000887       0.00000084
I        3.65997985      10.28811657      18.60839491       0.00000579       0.00000663       0.00000093
I       10.99482366       3.38473601       1.81665228      -0.00001587      -0.00000412      -0.00000952
H        4.02423937       3.23376956       2.68962358       0.00001370      -0.00001322      -0.00000343
H       10.62225888      10.44779183      19.52331372       0.00001232      -0.00000654      -0.00000603
H        2.29655238       7.71529270       1.75579498       0.00001431       0.00000804       0.00000284
H       13.58146214       4.99047507      19.55945766      -0.00000363       0.00002632      -0.00001164
H        4.03231927       3.22499868       0.90155295       0.00001073       0.00000227       0.00000372
H       10.63070038      10.43924076      17.73524338       0.00001452      -0.00001683       0.00001425
H        1.07357423       8.68229604       0.86562380       0.00000244      -0.00001071       0.00000064
H       12.35818655       5.95762006      18.66983929      -0.00000746      -0.00002089      -0.00000480
H        2.81705887       2.25192471       1.79501245       0.00000733      -0.00000320       0.00000463
H       11.83776644      11.42089681      18.63021378       0.00000240       0.00000417      -0.00000674
H        1.08257981       8.68653899       2.65328876       0.00001073      -0.00000318       0.00000097
H       13.57171833       4.98634501      17.77179694       0.00001489      -0.00000378      -0.00003702
H        5.76694581       1.75732996       1.81117643      -0.00000347      -0.00001835       0.00000825
H       10.03879852      12.82114524      17.78667688      -0.00001279      -0.00000063      -0.00001217
H        0.49620495       6.29697786       0.93844460      -0.00000931       0.00002583      -0.00000307
H       14.14979248       7.37256601      17.82812457       0.00002076      -0.00001369      -0.00000656
H        4.62341232       0.84464921       0.98048372       0.00001359       0.00000233       0.00001889
H       10.03132963      12.82820061      19.44453485       0.00001021       0.00000570      -0.00001132
H       -0.65002822       7.20210540       1.77311333       0.00000022      -0.00000641       0.00001257
H       15.30479278       6.47060441      18.65133225       0.00000410       0.00001153       0.00001369
H        4.61627679       0.85187632       2.63833801      -0.00000673       0.00000514       0.00001015
H        8.88791219      11.91567820      18.61349730       0.00001654       0.00000199       0.00001547
H        0.50470265       6.30028504       2.59688211      -0.00002194      -0.00000786       0.00000772
H       14.15895001       7.37574671      19.48655713      -0.00001310       0.00000553       0.00002618
C        3.84613476       2.62606064       1.79774976      -0.00000871      -0.00000847      -0.00000294
C       10.80866771      11.04682702      18.62722794      -0.00002150      -0.00000503       0.00003755
C        1.26461591       8.08197317       1.75994503       0.00000067      -0.00001580      -0.00001245
C       13.39009622       5.59086830      18.66525262      -0.00003398      -0.00000806       0.00003565
Pb      37.02463225       3.71049819      18.73547590       0.00000505       0.00002117       0.00000326
Pb      15.95233659      10.76313246       1.79416938       0.00000617      -0.00000136       0.00000940
Pb       6.35508359       8.66233217      18.62674787       0.00000937      -0.00001740      -0.00000467
Pb       8.29970951       5.01050174       1.79828892       0.00000813       0.00001479      -0.00000967
N        4.77776497       1.46665327       1.80746460      -0.00001417      -0.00000017      -0.00002563
N        9.87711142      12.20629183      18.61746286      -0.00003682      -0.00003263      -0.00001646
N        0.34047293       6.91604056       1.76721255       0.00001529       0.00000243      -0.00000939
N       14.31431364       6.75673809      18.65769082       0.00002998       0.00001820      -0.00001975
I       16.59591034       5.11989236       6.63968141      -0.00000783      -0.00000165      -0.00000509
I       17.22874529       8.93494393       4.20833604      -0.00001012       0.00000381      -0.00002012
I        7.64298684      10.48132896       6.58715555      -0.00000072       0.00000375       0.00000126
I        7.02054968       3.17312785       4.20852356      -0.00001713       0.00000716      -0.00000267
I       14.94021490       1.58114634       4.25253320       0.00002171      -0.00000138      -0.00000151
I       38.04543182      12.87408492       6.64771085       0.00000619       0.00000501      -0.00000109
I        9.32367355       6.97322654       4.20106214       0.00000556       0.00000540       0.00000635
I        5.33990335       6.68121568       6.59455640       0.00000241       0.00001336      -0.00000324
I        1.36589304       4.58580534       4.18288285       0.00000264      -0.00000650      -0.00000355
I       13.29758393       9.06862977       6.61270271       0.00000509      -0.00001173       0.00001152
I        3.67309246      10.26051247       4.16427669       0.00000066       0.00001325       0.00001065
I       10.99050184       3.39396291       6.63121564      -0.00001225      -0.00000158       0.00000282
H        4.02782751       3.23413284       5.71625480       0.00001331      -0.00001544       0.00001302
H       10.64371667      10.41146108       3.29138962      -0.00001399       0.00000687       0.00000518
H        1.06935375       8.69147911       5.68048183       0.00000109       0.00000244      -0.00000887
H       13.59445400       4.96298083       5.11532589       0.00000278       0.00000091      -0.00002188
H        2.81264528       2.26103443       6.60979477      -0.00000688      -0.00000410      -0.00000722
H       11.85080924      11.39328674       4.18613700       0.00001878       0.00002400      -0.00000481
H        1.07835827       8.69560565       7.46814806       0.00000343      -0.00000310      -0.00001131
H       12.37138325       5.93000343       4.22530359      -0.00002544       0.00001269       0.00000285
H        4.01985648       3.24291083       7.50432583       0.00001559       0.00001131       0.00001054
H       10.63541004      10.42025700       5.07946012       0.00000965      -0.00002795      -0.00001095
H        2.29226124       7.72433257       6.57059132       0.00001087       0.00001003       0.00000359
H       13.58523340       4.95874740       3.32766014      -0.00001340      -0.00000275       0.00000210
H        4.61898492       0.85379156       5.79517088      -0.00000272      -0.00000685       0.00002194
H        8.90093490      11.88794959       4.16963218       0.00000122      -0.00000969      -0.00000982
H        0.50032073       6.30939591       7.41158404       0.00000118       0.00000930      -0.00001053
H       15.31797061       6.44315003       4.20757679      -0.00003358      -0.00000081       0.00001718
H        4.61193751       0.86104211       7.45303032      -0.00000560      -0.00001333      -0.00001621
H       10.05169833      12.79335829       3.34256478       0.00002970       0.00001532      -0.00000487
H        0.49181560       6.30620495       5.75314337      -0.00001966      -0.00001602      -0.00000855
H       14.17187528       7.34825673       5.04247406      -0.00000468       0.00001478       0.00002205
H        5.76254345       1.76650446       6.62578658       0.00000791       0.00000088       0.00001339
H       10.04440653      12.80062154       5.00041757       0.00000809       0.00001855      -0.00001391
H       -0.65435413       7.21135390       6.58788460      -0.00000273      -0.00001233       0.00000114
H       14.16312493       7.34501714       3.38403573       0.00000933       0.00000098       0.00000422
C        3.84171232       2.63519410       6.61246620       0.00000854       0.00000043      -0.00002430
C       10.82172529      11.01917654       4.18327843       0.00000031      -0.00001408      -0.00001850
C        1.26035033       8.09108516       6.57476465      -0.00000948      -0.00000257      -0.00001673
C       13.40331412       5.56331022       4.22102990       0.00001640      -0.00002167       0.00001217
Pb      37.03771777       3.68294446       4.29138477       0.00000549      -0.00000453       0.00000417
Pb      15.94793950      10.77229870       6.60886231      -0.00000228       0.00003785      -0.00002006
Pb       6.36821212       8.63475686       4.18264841      -0.00000012      -0.00001157       0.00000572
Pb       8.29536213       5.01971578       6.61296677      -0.00000009       0.00001421       0.00001141
N        4.77336853       1.47580762       6.62213757      -0.00001727       0.00001813      -0.00001234
N        9.89012224      12.17860329       4.17343866       0.00000295       0.00000800       0.00003765
N        0.33612627       6.92521699       6.58195434      -0.00000749       0.00002094       0.00001302
N       14.32747318       6.72922810       4.21366163       0.00004544      -0.00002400      -0.00002509
I       16.59154435       5.12909102      11.45434220      -0.00000180      -0.00000752       0.00001030
I       17.22432210       8.94410639       9.02297389       0.00000118       0.00001290       0.00001745
I        7.63864200      10.49050567      11.40181867      -0.00000504       0.00002226      -0.00000377
I        7.01619933       3.18232384       9.02317781      -0.00002398      -0.00000449       0.00000517
I       14.93587776       1.59035063       9.06724660      -0.00001207       0.00000411       0.00001064
I       38.04111117      12.88330740      11.46242042      -0.00001235      -0.00001136       0.00000435
I        9.31929240       6.98242906       9.01578337      -0.00000142      -0.00002807       0.00000305
I        5.33550042       6.69041775      11.40926710      -0.00000016       0.00000351      -0.00000743
I        1.36156212       4.59497186       8.99758941      -0.00001172      -0.00000970      -0.00000479
I       13.29329255       9.07780733      11.42737236      -0.00001528       0.00000887       0.00000085
I        3.66872367      10.26973347       8.97901141       0.00000579       0.00000663       0.00000093
I       10.98607984       3.40311911      11.44603578      -0.00001588      -0.00000413      -0.00000952
H        4.01549555       3.25215266      12.31900708       0.00001370      -0.00001322      -0.00000343
H       10.63100270      10.42940873       9.89393022       0.00001232      -0.00000650      -0.00000609
H        2.28780856       7.73367580      11.38517848       0.00001431       0.00000804       0.00000284
H       13.59020596       4.97209197       9.93007416      -0.00000366       0.00002638      -0.00001173
H        4.02357545       3.24338178      10.53093645       0.00001073       0.00000227       0.00000372
H       10.63944420      10.42085766       8.10585988       0.00001452      -0.00001683       0.00001425
H        1.06483041       8.70067914      10.49500730       0.00000245      -0.00001071       0.00000064
H       12.36693037       5.93923696       9.04045579      -0.00000746      -0.00002089      -0.00000479
H        2.80831505       2.27030781      11.42439595       0.00000733      -0.00000320       0.00000463
H       11.84651026      11.40251371       9.00083028       0.00000240       0.00000418      -0.00000675
H        1.07383599       8.70492209      12.28267226       0.00001073      -0.00000318       0.00000097
H       13.58046215       4.96796191       8.14241344       0.00001489      -0.00000378      -0.00003702
H        5.75820199       1.77571306      11.44055993      -0.00000347      -0.00001835       0.00000824
H       10.04754234      12.80276214       8.15729338      -0.00001278      -0.00000063      -0.00001217
H        0.48746113       6.31536096      10.56782810      -0.00000932       0.00002583      -0.00000307
H       14.15853630       7.35418291       8.19874107       0.00002076      -0.00001368      -0.00000655
H        4.61466850       0.86303231      10.60986722       0.00001359       0.00000234       0.00001889
H       10.04007345      12.80981751       9.81515135       0.00001018       0.00000569      -0.00001136
H       -0.65877205       7.22048850      11.40249683       0.00000057      -0.00000650       0.00001257
H       15.31353660       6.45222131       9.02194875       0.00000410       0.00001153       0.00001367
H        4.60753297       0.87025942      12.26772151      -0.00000673       0.00000514       0.00001015
H        8.89665601      11.89729510       8.98411380       0.00001654       0.00000200       0.00001548
H        0.49595883       6.31866814      12.22626561      -0.00002194      -0.00000786       0.00000772
H       14.16769383       7.35736361       9.85717363      -0.00001312       0.00000554       0.00002617
C        3.83739094       2.64444374      11.42713326      -0.00000871      -0.00000847      -0.00000294
C       10.81741153      11.02844392       8.99784444      -0.00002150      -0.00000507       0.00003759
C        1.25587209       8.10035627      11.38932853       0.00000065      -0.00001580      -0.00001245
C       13.39884004       5.57248520       9.03586912      -0.00003395      -0.00000812       0.00003573
Pb      37.03337607       3.69211509       9.10609240       0.00000506       0.00002117       0.00000326
Pb      15.94359277      10.78151556      11.42355288       0.00000617      -0.00000136       0.00000940
Pb       6.36382741       8.64394907       8.99736437       0.00000938      -0.00001740      -0.00000467
Pb       8.29096569       5.02888484      11.42767242       0.00000813       0.00001479      -0.00000967
N        4.76902115       1.48503637      11.43684810      -0.00001417      -0.00000017      -0.00002564
N        9.88585524      12.18790873       8.98807936      -0.00003680      -0.00003263      -0.00001642
N        0.33172911       6.93442366      11.39659605       0.00001496       0.00000252      -0.00000939
N       14.32305746       6.73835499       9.02830732       0.00003000       0.00001819      -0.00001974
I       16.58716652       5.13827546      16.26906491      -0.00000783      -0.00000164      -0.00000510
I       17.22000147       8.95332703      13.83771954      -0.00001012       0.00000381      -0.00002013
I        7.63424302      10.49971206      16.21653905      -0.00000072       0.00000375       0.00000126
I        7.01180586       3.19151095      13.83790706      -0.00001714       0.00000716      -0.00000267
I       14.93147108       1.59952944      13.88191670       0.00002171      -0.00000138      -0.00000151
I       38.03668799      12.89246802      16.27709435       0.00000620       0.00000501      -0.00000110
I        9.31492973       6.99160964      13.83044564       0.00000556       0.00000540       0.00000635
I        5.33115953       6.69959878      16.22393990       0.00000241       0.00001336      -0.00000325
I        1.35714922       4.60418844      13.81226635       0.00000262      -0.00000651      -0.00000355
I       13.28884011       9.08701287      16.24208621       0.00000509      -0.00001173       0.00001152
I        3.66434864      10.27889557      13.79366019       0.00000066       0.00001325       0.00001065
I       10.98175802       3.41234601      16.26059914      -0.00001225      -0.00000158       0.00000282
H        4.01908369       3.25251594      15.34563830       0.00001331      -0.00001544       0.00001302
H       10.63497285      10.42984418      12.92077312      -0.00001399       0.00000687       0.00000518
H        1.06060993       8.70986221      15.30986533       0.00000109       0.00000244      -0.00000887
H       13.58571018       4.98136393      14.74470939       0.00000278       0.00000091      -0.00002188
H        2.80390146       2.27941753      16.23917827      -0.00000688      -0.00000410      -0.00000722
H       11.84206542      11.41166984      13.81552050       0.00001878       0.00002400      -0.00000481
H        1.06961445       8.71398875      17.09753156       0.00000343      -0.00000310      -0.00001131
H       12.36263943       5.94838653      13.85468709      -0.00002544       0.00001269       0.00000285
H        4.01111266       3.26129393      17.13370933       0.00001559       0.00001131       0.00001054
H       10.62666622      10.43864010      14.70884362       0.00000965      -0.00002795      -0.00001095
H        2.28351742       7.74271567      16.19997482       0.00001087       0.00001003       0.00000359
H       13.57648958       4.97713050      12.95704364      -0.00001340      -0.00000275       0.00000210
H        4.61024110       0.87217466      15.42455438      -0.00000272      -0.00000685       0.00002194
H        8.89219108      11.90633269      13.79901568       0.00000122      -0.00000969      -0.00000982
H        0.49157691       6.32777901      17.04096754       0.00000118       0.00000930      -0.00001053
H       15.30922679       6.46153313      13.83696029      -0.00003359      -0.00000081       0.00001718
H        4.60319369       0.87942521      17.08241382      -0.00000560      -0.00001333      -0.00001621
H       10.04295451      12.81174139      12.97194828       0.00002970       0.00001532      -0.00000487
H        0.48307178       6.32458805      15.38252687      -0.00001966      -0.00001602      -0.00000855
H       14.16313146       7.36663983      14.67185756      -0.00000468       0.00001478       0.00002205
H        5.75379963       1.78488756      16.25517008       0.00000791       0.00000088       0.00001339
H       10.03566271      12.81900464      14.62980107       0.00000809       0.00001855      -0.00001391
H       -0.66309796       7.22973700      16.21726810      -0.00000238      -0.00001242       0.00000114
H       14.15438111       7.36340024      13.01341923       0.00000933       0.00000098       0.00000422
C        3.83296850       2.65357720      16.24184970       0.00000854       0.00000043      -0.00002430
C       10.81298147      11.03755964      13.81266193       0.00000031      -0.00001408      -0.00001850
C        1.25160651       8.10946826      16.20414815      -0.00000950      -0.00000257      -0.00001673
C       13.39457030       5.58169332      13.85041340       0.00001640      -0.00002167       0.00001217
Pb      37.02897394       3.70132756      13.92076827       0.00000553      -0.00000452       0.00000417
Pb      15.93919568      10.79068180      16.23824581      -0.00000227       0.00003786      -0.00002006
Pb       6.35946830       8.65313996      13.81203191      -0.00000012      -0.00001157       0.00000572
Pb       8.28661831       5.03809888      16.24235027      -0.00000009       0.00001421       0.00001141
N        4.76462471       1.49419072      16.25152107      -0.00001727       0.00001813      -0.00001234
N        9.88137842      12.19698639      13.80282216       0.00000295       0.00000800       0.00003765
N        0.32738245       6.94360009      16.21133784      -0.00000781       0.00002103       0.00001303
N       14.31872936       6.74761120      13.84304513       0.00004544      -0.00002400      -0.00002509
I       16.54159467      16.23340389       1.76799401      -0.00000180      -0.00000752       0.00001031
I       17.15688478      20.08518546      18.59539270       0.00000118       0.00001291       0.00001746
I        7.58869232      21.59481854       1.71547048      -0.00000503       0.00002226      -0.00000376
I        6.94876201      14.32340291      18.59559662      -0.00002397      -0.00000449       0.00000516
I       14.86844044      12.73142970      18.63966541      -0.00001207       0.00000413       0.00001064
I       38.10854849       1.74222833       1.89000161      -0.00001235      -0.00001138       0.00000435
I        9.25185508      18.12350813      18.58820218      -0.00000142      -0.00002806       0.00000305
I        5.28555074      17.79473062       1.72291891      -0.00000016       0.00000350      -0.00000743
I        1.29412480      15.73605093      18.57000822      -0.00001169      -0.00000968      -0.00000479
I       13.24334287      20.18212020       1.74102417      -0.00001528       0.00000887       0.00000084
I        3.60128635      21.41081254      18.55143022       0.00000580       0.00000664       0.00000094
I       10.93613016      14.50743198       1.75968759      -0.00001587      -0.00000412      -0.00000952
H        3.96554587      14.35646553       2.63265889       0.00001371      -0.00001322      -0.00000343
H       10.56356538      21.57048780      19.46634903       0.00001232      -0.00000654      -0.00000603
H        2.23785888      18.83798867       1.69883029       0.00001431       0.00000805       0.00000284
H       13.52276864      16.11317104      19.50249297      -0.00000363       0.00002632      -0.00001164
H        3.97362577      14.34769465       0.84458826       0.00001073       0.00000227       0.00000372
H       10.57200688      21.56193673      17.67827869       0.00001452      -0.00001681       0.00001425
H        1.01488073      19.80499201       0.80865911       0.00000244      -0.00001072       0.00000064
H       12.29949305      17.08031603      18.61287460      -0.00000746      -0.00002089      -0.00000480
H        2.75836537      13.37462068       1.73804776       0.00000733      -0.00000320       0.00000463
H       11.77907294      22.54359279      18.57324909       0.00000245       0.00000417      -0.00000676
H        1.02388631      19.80923496       2.59632407       0.00001073      -0.00000318       0.00000097
H       13.51302483      16.10904098      17.71483225       0.00001489      -0.00000378      -0.00003702
H        5.70825231      12.88002593       1.75421174      -0.00000347      -0.00001835       0.00000825
H        9.98010502      23.94384122      17.72971219      -0.00001278      -0.00000064      -0.00001217
H        0.43751145      17.41967383       0.88147991      -0.00000936       0.00002584      -0.00000307
H       14.09109898      18.49526198      17.77115988       0.00002076      -0.00001369      -0.00000656
H        4.56471882      11.96734518       0.92351903       0.00001359       0.00000233       0.00001888
H        9.97263613      23.95089659      19.38757016       0.00001016       0.00000566      -0.00001135
H       -0.70872172      18.32480138       1.71614865       0.00000031      -0.00000649       0.00001252
H       15.24609928      17.59330038      18.59436756       0.00000410       0.00001153       0.00001369
H        4.55758329      11.97457229       2.58137332      -0.00000673       0.00000514       0.00001015
H        8.82921869      23.03837418      18.55653261       0.00001655       0.00000201       0.00001550
H        0.44600915      17.42298101       2.53991742      -0.00002193      -0.00000786       0.00000772
H       14.10025651      18.49844268      19.42959244      -0.00001310       0.00000553       0.00002618
C        3.78744126      13.74875661       1.74078507      -0.00000871      -0.00000847      -0.00000294
C       10.74997421      22.16952299      18.57026325      -0.00002163      -0.00000492       0.00003759
C        1.20592241      19.20466914       1.70298034       0.00000070      -0.00001581      -0.00001245
C       13.33140272      16.71356427      18.60828793      -0.00003398      -0.00000806       0.00003565
Pb      36.96593876      14.83319417      18.67851121       0.00000502       0.00002114       0.00000327
Pb      15.89364309      21.88582843       1.73720469       0.00000617      -0.00000135       0.00000941
Pb       6.29639009      19.78502814      18.56978318       0.00000937      -0.00001740      -0.00000467
Pb       8.24101601      16.13319771       1.74132423       0.00000813       0.00001479      -0.00000967
N        4.71907147      12.58934924       1.75049991      -0.00001417      -0.00000016      -0.00002563
N        9.81841792      23.32898781      18.56049817      -0.00003670      -0.00003272      -0.00001647
N        0.28177943      18.03873653       1.71024786       0.00001520       0.00000250      -0.00000934
N       14.25562014      17.87943406      18.60072613       0.00002998       0.00001820      -0.00001975
I       16.53721684      16.24258833       6.58271672      -0.00000783      -0.00000164      -0.00000508
I       17.17005179      20.05763990       4.15137135      -0.00001012       0.00000381      -0.00002012
I        7.58429334      21.60402493       6.53019086      -0.00000071       0.00000376       0.00000126
I        6.96185618      14.29582382       4.15155887      -0.00001713       0.00000716      -0.00000267
I       14.88152140      12.70384231       4.19556851       0.00002171      -0.00000137      -0.00000150
I       38.10412531       1.75138895       6.70467554       0.00000620       0.00000499      -0.00000110
I        9.26498005      18.09592251       4.14409745       0.00000556       0.00000540       0.00000635
I        5.28120985      17.80391165       6.53759171       0.00000241       0.00001336      -0.00000324
I        1.30719954      15.70850131       4.12591816       0.00000264      -0.00000649      -0.00000355
I       13.23889043      20.19132574       6.55573802       0.00000509      -0.00001173       0.00001152
I        3.61439896      21.38320844       4.10731200       0.00000066       0.00001326       0.00001066
I       10.93180834      14.51665888       6.57425095      -0.00001225      -0.00000158       0.00000282
H        3.96913401      14.35682881       5.65929011       0.00001331      -0.00001544       0.00001302
H       10.58502317      21.53415705       3.23442493      -0.00001399       0.00000689       0.00000517
H        1.01066025      19.81417508       5.62351714       0.00000109       0.00000244      -0.00000887
H       13.53576050      16.08567680       5.05836120       0.00000278       0.00000091      -0.00002188
H        2.75395178      13.38373040       6.55283008      -0.00000688      -0.00000410      -0.00000722
H       11.79211575      22.51598272       4.12917231       0.00001855       0.00002388      -0.00000483
H        1.01966477      19.81830162       7.41118337       0.00000343      -0.00000310      -0.00001131
H       12.31268975      17.05269940       4.16833890      -0.00002544       0.00001269       0.00000285
H        3.96116298      14.36560680       7.44736114       0.00001559       0.00001131       0.00001054
H       10.57671654      21.54295297       5.02249543       0.00000965      -0.00002795      -0.00001095
H        2.23356774      18.84702854       6.51362663       0.00001088       0.00001003       0.00000359
H       13.52653990      16.08144337       3.27069545      -0.00001340      -0.00000275       0.00000210
H        4.56029142      11.97648753       5.73820619      -0.00000272      -0.00000685       0.00002194
H        8.84224141      23.01064557       4.11266749       0.00000121      -0.00000967      -0.00000982
H        0.44162723      17.43209188       7.35461935       0.00000119       0.00000930      -0.00001053
H       15.25927711      17.56584600       4.15061210      -0.00003359      -0.00000081       0.00001718
H        4.55324401      11.98373808       7.39606563      -0.00000560      -0.00001333      -0.00001621
H        9.99300484      23.91605427       3.28560009       0.00002970       0.00001532      -0.00000487
H        0.43312210      17.42890092       5.69617868      -0.00001971      -0.00001601      -0.00000855
H       14.11318178      18.47095270       4.98550937      -0.00000468       0.00001478       0.00002205
H        5.70384995      12.88920043       6.56882189       0.00000791       0.00000088       0.00001339
H        9.98571304      23.92331752       4.94345288       0.00000810       0.00001853      -0.00001390
H       -0.71304763      18.33404988       6.53091992      -0.00000263      -0.00001241       0.00000109
H       14.10443143      18.46771311       3.32707104       0.00000933       0.00000098       0.00000422
C        3.78301882      13.75789007       6.55550151       0.00000855       0.00000043      -0.00002430
C       10.76303179      22.14187251       4.12631374       0.00000059      -0.00001394      -0.00001845
C        1.20165683      19.21378113       6.51779996      -0.00000945      -0.00000258      -0.00001673
C       13.34462062      16.68600619       4.16406521       0.00001640      -0.00002167       0.00001217