768
Lattice="25.474366558737515 0.05409075088716251 0.1081628215731178 0.04193380380336498 25.466469663111287 0.053669375875309414 -0.1624688441775422 -0.17275154907053208 25.632979484630784" Properties=species:S:1:pos:R:3:forces:R:3 energy=-3348.0908775993307 stress="0.005746347115081567 8.861671280906959e-05 -5.081756182767987e-05 8.861671280906959e-05 0.0071543591977657256 -0.00010629712762395245 -5.081756182767987e-05 -0.00010629712762395245 0.005247215708634672" free_energy=-3348.0908775993307 pbc="T T T"
I        5.52882379       3.76700520       3.26093171      -0.00001513       0.00000402       0.00001236
I        5.60317004      15.46228645       9.69137791      -0.00000445      -0.00000588      -0.00000665
I        5.36458525      12.68915853       6.08582754      -0.00000034      -0.00000213       0.00001494
I        6.64712960       6.31907056       6.87511259      -0.00000301      -0.00000974      -0.00000789
I       24.71313713      16.44171151       9.78180346       0.00000409      -0.00000683       0.00000989
I       11.88272162       2.73612323       3.28665047       0.00000251      -0.00000230       0.00000360
I       11.72683859       6.51278737       6.09790765      -0.00000239       0.00001036       0.00000279
I        0.29319160      12.84888809       6.85992427      -0.00001483       0.00000165      -0.00000635
I        8.93745003      15.23603165      12.63503580       0.00000775      -0.00000527      -0.00000710
I        3.05755247       8.91116942       6.19288252       0.00000554       0.00000548       0.00000794
I        2.57922577       3.89362901       6.72602514      -0.00000253      -0.00000950       0.00000710
I        8.97107525      15.27639648       6.78817980       0.00000883      -0.00001475      -0.00000175
H        1.95591265       5.56937501       2.34973523       0.00000619      -0.00000116      -0.00000652
H        8.26180549       5.83871321       4.16998371       0.00001392      -0.00000538       0.00001477
H        8.32390155      13.67296841       2.39198842       0.00000227       0.00001232      -0.00002530
H        4.31717042       5.81851838       9.66800652       0.00003488       0.00001550      -0.00000283
H        3.74586194      12.13912591      10.57057285      -0.00000227      -0.00001420      -0.00000071
H        8.27220669       5.84462042       2.37442331      -0.00000234       0.00000382      -0.00003863
H        8.72621352       7.71324698       9.69506616       0.00000794       0.00000312      -0.00000570
H        3.68648210       7.23904829       8.76848733       0.00001366       0.00000255      -0.00002235
H        1.31957257       6.98624535       3.25085986       0.00005091       0.00001196      -0.00000875
H        9.64771039       5.11874023       3.27791522       0.00000511       0.00000428       0.00001393
H        8.30993460      13.67115864       4.19263325      -0.00000612       0.00002136      -0.00000365
H        3.68084405       7.23532846      10.56923789       0.00000180       0.00000813       0.00000386
H        3.55090484       7.39074843       4.09837768       0.00000766       0.00002782      -0.00001399
H        8.48217687      13.71917220       8.85891825       0.00001314       0.00000851      -0.00002363
H       10.52655454      13.18435087       3.30927931       0.00001963       0.00000870      -0.00001493
H        3.82810372      11.90456685       4.10719066       0.00000331      -0.00001397       0.00000246
H        3.55658796       7.39584631       2.42034749      -0.00001779       0.00001456       0.00001291
H        8.46954824      13.71534372      10.53681873      -0.00000750       0.00000603       0.00000155
H        9.92540190      11.84975636       2.46308410       0.00001539      -0.00001106      -0.00001500
H        3.83126345      11.91489526       2.42566771       0.00000578      -0.00000479       0.00000831
H        4.16206594       6.05709684       3.25752916       0.00000601      -0.00001438       0.00000856
H       10.18683470       7.31513159       4.12875482       0.00000018      -0.00001574      -0.00002763
H        9.91270986      11.84596007       4.14098298       0.00001367      -0.00001659       0.00001318
H        2.52836789      11.22487180       3.25966100      -0.00002070      -0.00004110      -0.00001678
C        3.12436522      12.21421003       9.67274969      -0.00000496       0.00003559       0.00000086
C        8.88944223       5.90909085       3.27602538       0.00000143       0.00001134       0.00001023
C        9.48452464       6.92293734       9.69697782       0.00003319       0.00001575      -0.00000662
C        3.57593281       6.62405428       9.66728320      -0.00000938      -0.00002223       0.00001415
Pb       6.20340746       9.62407885       6.48840151      -0.00001332      -0.00001532      -0.00000407
Pb       5.82564502      15.98906282       6.48381309      -0.00000678      -0.00000273      -0.00000586
Pb      24.89013537      15.92215479      12.99006434       0.00001794      -0.00000015      -0.00001441
Pb      24.92871061      15.96805471       6.56552254       0.00000663       0.00001527       0.00000139
N        3.42363302       6.79039680       3.25705545      -0.00003510      -0.00002775      -0.00001174
N        8.60635667      13.11436307       9.69740339      -0.00004521      -0.00005007      -0.00000695
N        9.78851502      12.45074280       3.30248052      -0.00005117       0.00001573       0.00003346
N        3.22143115      11.99766096       3.26571327       0.00002138       0.00003519      -0.00000492
I        6.49120448      10.09573656       9.68635794       0.00000471       0.00001330      -0.00000676
I        6.41891415       9.15040768       3.27211282       0.00001861       0.00000726       0.00001906
I        6.61149050       6.27946213      12.48407567      -0.00001402      -0.00000803      -0.00000048
I        5.39434991      12.73085707       0.47411891       0.00001212       0.00000628       0.00000835
I        0.05457511      10.07574201       3.25439095      -0.00000087       0.00001452      -0.00001279
I       12.84522493       9.06482612       9.71207370       0.00000115       0.00001077       0.00000511
I       12.91929024      12.74784799      25.34217901      -0.00000063      -0.00001856       0.00000642
I       24.41844969       6.49305145      13.35946157       0.00000421       0.00001355       0.00000462
I        9.42385056      10.28864694       6.21164012      -0.00000502       0.00000699      -0.00000120
I        2.48585853      16.50301094      25.42299172      -0.00001649      -0.00001017       0.00000139
I        3.00942768       8.86224803      13.15578427       0.00001282      -0.00001043       0.00000233
I        9.45749218      10.32899749       0.36487649      -0.00001630       0.00000440      -0.00000297
H        3.74704607      12.14973117       8.77490458       0.00000225      -0.00001219       0.00000016
H       10.07086869      11.89194719      10.60779794      -0.00000052       0.00001498      -0.00000485
H       10.11218450       6.99335086       8.80303816      -0.00000705       0.00001015       0.00000525
H        1.91067202      13.38838697       4.17076077       0.00000735       0.00000846       0.00000813
H        1.95019427       5.56576049       4.15048567       0.00002522      -0.00002055       0.00002020
H       10.08481317      11.89386575       8.80715411       0.00000022      -0.00002504      -0.00001772
H        7.68469589      12.25283117       3.28598777      -0.00000345      -0.00000306      -0.00001468
H        3.29499240      14.11098428       3.27805026       0.00000057       0.00000538       0.00000521
H        2.36279576      11.42706459       9.66766423      -0.00000437      -0.00000952       0.00000394
H       10.71019652      13.31208106       9.71387982      -0.00002640      -0.00001797      -0.00000145
H       10.10172744       6.98743659      10.59860179      -0.00000864       0.00000514      -0.00000651
H        1.91196495      13.39891753       2.37509224      -0.00002356       0.00001168      -0.00001039
H        3.12935927      14.31319204       9.68617530      -0.00000394       0.00000983       0.00000663
H        8.89277178       8.00781525       3.28307194      -0.00003806       0.00000140      -0.00000773
H        8.17745294       5.51091446      10.52584296       0.00000995      -0.00001018      -0.00004344
H        2.08584584       5.41397402       8.82058676      -0.00002110      -0.00002608      -0.00001481
H        1.82648323      13.62309319      10.52014228      -0.00001730       0.00000773       0.00000868
H       10.19657016       7.32104960       2.44712397       0.00002300      -0.00000553      -0.00002137
H        9.48130861       4.82421314       9.68991924       0.00000433      -0.00000461      -0.00000633
H        1.47466785       6.74760423       9.66145526      -0.00000722      -0.00000106       0.00000475
H        1.82962941      13.63351944       8.83861917      -0.00001355       0.00001747       0.00000598
H        7.86825390      12.38081682       9.69061919       0.00004276       0.00001738      -0.00001403
H        8.18722404       5.51683857       8.84421041      -0.00001350      -0.00000010       0.00002185
H        2.08020295       5.40886125      10.49861815      -0.00002952       0.00000030      -0.00000633
C        2.06080040       6.18069892       3.25165903      -0.00001751       0.00002387      -0.00001800
C        9.96967825      12.50593268       9.70727846       0.00003040       0.00004092       0.00006988
C        8.42513722      13.05904918       3.29254593       0.00003692      -0.00001347       0.00000843
C        2.53340519      13.32385580       3.27295584       0.00001231      -0.00002208       0.00001216
Pb       5.78555981      15.94615935      12.90389324      -0.00000913       0.00000801       0.00001690
Pb       6.16074187       9.58360798      12.88036262      -0.00000677      -0.00000717       0.00000062
Pb      25.30649787       9.60307383       6.57011140       0.00000360       0.00000178      -0.00000347
Pb      25.26536303       9.55958809      12.96650086      -0.00000227       0.00000823       0.00000457
N        2.43630991      13.54038955       9.68008565       0.00002853      -0.00002317      -0.00004585
N        9.58294699       7.23243758       3.28421004      -0.00001702      -0.00003441       0.00005054
N        8.79109116       5.59955657       9.68876757      -0.00003138      -0.00001317       0.00005697
N        2.21311747       6.01432191       9.66191056       0.00000916       0.00004076       0.00001546
I        5.44758937       3.68062943      16.07742145      -0.00001513       0.00000402       0.00001237
I        5.52193562      15.37591068      22.50786765      -0.00000445      -0.00000588      -0.00000664
I        5.28335083      12.60278276      18.90231728      -0.00000034      -0.00000212       0.00001494
I        6.56589518       6.23269479      19.69160233      -0.00000301      -0.00000975      -0.00000789
I       24.63190271      16.35533574      22.59829320       0.00000409      -0.00000683       0.00000989
I       11.80148720       2.64974746      16.10314021       0.00000252      -0.00000230       0.00000361
I       11.64560417       6.42641160      18.91439739      -0.00000239       0.00001034       0.00000280
I        0.21195718      12.76251232      19.67641401      -0.00001483       0.00000164      -0.00000635
I        8.85621561      15.14965588      25.45152554       0.00000775      -0.00000527      -0.00000710
I        2.97631805       8.82479365      19.00937226       0.00000554       0.00000548       0.00000794
I        2.49799135       3.80725324      19.54251488      -0.00000254      -0.00000951       0.00000710
I        8.88984083      15.19002071      19.60466954       0.00000883      -0.00001475      -0.00000175
H        1.87467823       5.48299924      15.16622497       0.00000619      -0.00000116      -0.00000652
H        8.18057107       5.75233744      16.98647345       0.00001392      -0.00000538       0.00001477
H        8.24266713      13.58659264      15.20847816       0.00000227       0.00001232      -0.00002530
H        4.23593600       5.73214261      22.48449626       0.00003488       0.00001550      -0.00000284
H        3.66462752      12.05275014      23.38706259      -0.00000227      -0.00001420      -0.00000071
H        8.19097227       5.75824465      15.19091305      -0.00000234       0.00000382      -0.00003863
H        8.64497910       7.62687121      22.51155590       0.00000794       0.00000312      -0.00000570
H        3.60524768       7.15267252      21.58497707       0.00001366       0.00000255      -0.00002235
H        1.23833815       6.89986958      16.06734960       0.00005091       0.00001196      -0.00000875
H        9.56647597       5.03236446      16.09440496       0.00000511       0.00000428       0.00001393
H        8.22870018      13.58478287      17.00912299      -0.00000612       0.00002136      -0.00000365
H        3.59960963       7.14895269      23.38572763       0.00000180       0.00000813       0.00000386
H        3.46967042       7.30437266      16.91486742       0.00000766       0.00002782      -0.00001399
H        8.40094245      13.63279643      21.67540799       0.00001314       0.00000851      -0.00002363
H       10.44532012      13.09797510      16.12576905       0.00001963       0.00000870      -0.00001493
H        3.74686930      11.81819108      16.92368040       0.00000331      -0.00001397       0.00000246
H        3.47535354       7.30947054      15.23683723      -0.00001779       0.00001455       0.00001292
H        8.38831382      13.62896795      23.35330847      -0.00000750       0.00000603       0.00000155
H        9.84416748      11.76338059      15.27957384       0.00001539      -0.00001106      -0.00001500
H        3.75002903      11.82851949      15.24215745       0.00000578      -0.00000479       0.00000831
H        4.08083152       5.97072107      16.07401890       0.00000601      -0.00001438       0.00000856
H       10.10560028       7.22875582      16.94524456       0.00000018      -0.00001573      -0.00002763
H        9.83147544      11.75958430      16.95747272       0.00001367      -0.00001659       0.00001318
H        2.44713347      11.13849603      16.07615074      -0.00002070      -0.00004110      -0.00001678
C        3.04313080      12.12783426      22.48923943      -0.00000496       0.00003559       0.00000086
C        8.80820781       5.82271508      16.09251512       0.00000143       0.00001134       0.00001023
C        9.40329022       6.83656157      22.51346756       0.00003319       0.00001575      -0.00000662
C        3.49469839       6.53767851      22.48377294      -0.00000938      -0.00002223       0.00001415
Pb       6.12217304       9.53770308      19.30489125      -0.00001332      -0.00001533      -0.00000407
Pb       5.74441060      15.90268705      19.30030283      -0.00000679      -0.00000274      -0.00000586
Pb      24.97136979      16.00853057       0.17357460       0.00001794      -0.00000016      -0.00001442
Pb      24.84747619      15.88167894      19.38201228       0.00000662       0.00001527       0.00000139
N        3.34239860       6.70402103      16.07354519      -0.00003510      -0.00002775      -0.00001174
N        8.52512225      13.02798730      22.51389313      -0.00004521      -0.00005007      -0.00000695
N        9.70728060      12.36436703      16.11897026      -0.00005117       0.00001572       0.00003346
N        3.14019673      11.91128519      16.08220301       0.00002138       0.00003519      -0.00000492
I        6.40997006      10.00936079      22.50284768       0.00000470       0.00001330      -0.00000675
I        6.33767973       9.06403191      16.08860256       0.00001861       0.00000726       0.00001906
I        6.53025608       6.19308636      25.30056541      -0.00001402      -0.00000805      -0.00000048
I        5.31311549      12.64448130      13.29060865       0.00001212       0.00000627       0.00000835
I       -0.02665931       9.98936624      16.07088069      -0.00000087       0.00001452      -0.00001279
I       12.76399051       8.97845035      22.52856344       0.00000115       0.00001076       0.00000512
I       13.00052466      12.83422377      12.52568927      -0.00000062      -0.00001856       0.00000642
I       24.49968411       6.57942723       0.54297183       0.00000421       0.00001354       0.00000462
I        9.34261614      10.20227117      19.02812986      -0.00000501       0.00000699      -0.00000120
I        2.56709295      16.58938672      12.60650198      -0.00001649      -0.00001017       0.00000139
I        3.09066210       8.94862380       0.33929453       0.00001282      -0.00001043       0.00000233
I        9.37625776      10.24262172      13.18136623      -0.00001630       0.00000440      -0.00000297
H        3.66581165      12.06335540      21.59139432       0.00000225      -0.00001219       0.00000016
H        9.98963427      11.80557142      23.42428768      -0.00000051       0.00001498      -0.00000485
H       10.03095008       6.90697509      21.61952790      -0.00000705       0.00001015       0.00000525
H        1.82943760      13.30201120      16.98725051       0.00000735       0.00000846       0.00000813
H        1.86895985       5.47938472      16.96697541       0.00002522      -0.00002055       0.00002020
H       10.00357875      11.80748998      21.62364385       0.00000022      -0.00002504      -0.00001772
H        7.60346147      12.16645540      16.10247751      -0.00000345      -0.00000306      -0.00001467
H        3.21375798      14.02460851      16.09454000       0.00000057       0.00000538       0.00000521
H        2.28156134      11.34068882      22.48415397      -0.00000437      -0.00000952       0.00000394
H       10.62896210      13.22570529      22.53036956      -0.00002640      -0.00001797      -0.00000145
H       10.02049302       6.90106082      23.41509153      -0.00000864       0.00000514      -0.00000651
H        1.83073053      13.31254176      15.19158198      -0.00002356       0.00001168      -0.00001039
H        3.04812485      14.22681627      22.50266504      -0.00000394       0.00000983       0.00000663
H        8.81153736       7.92143948      16.09956168      -0.00003806       0.00000140      -0.00000773
H        8.09621852       5.42453869      23.34233270       0.00000995      -0.00001018      -0.00004344
H        2.00461142       5.32759825      21.63707650      -0.00002110      -0.00002608      -0.00001482
H        1.74524881      13.53671742      23.33663202      -0.00001730       0.00000773       0.00000868
H       10.11533574       7.23467383      15.26361371       0.00002300      -0.00000553      -0.00002137
H        9.40007419       4.73783737      22.50640898       0.00000433      -0.00000461      -0.00000633
H        1.39343343       6.66122846      22.47794500      -0.00000722      -0.00000106       0.00000475
H        1.74839499      13.54714367      21.65510891      -0.00001355       0.00001747       0.00000598
H        7.78701948      12.29444105      22.50710893       0.00004276       0.00001738      -0.00001403
H        8.10598962       5.43046280      21.66070015      -0.00001350      -0.00000009       0.00002184
H        1.99896853       5.32248548      23.31510789      -0.00002952       0.00000031      -0.00000633
C        1.97956598       6.09432315      16.06814877      -0.00001751       0.00002387      -0.00001800
C        9.88844383      12.41955691      22.52376820       0.00003040       0.00004092       0.00006988
C        8.34390280      12.97267341      16.10903567       0.00003692      -0.00001347       0.00000843
C        2.45217077      13.23748003      16.08944558       0.00001231      -0.00002208       0.00001216
Pb       5.86679423      16.03253512       0.08740350      -0.00000913       0.00000802       0.00001689
Pb       6.24197629       9.66998375       0.06387288      -0.00000677      -0.00000717       0.00000061
Pb      25.22526345       9.51669806      19.38660114       0.00000360       0.00000177      -0.00000347
Pb      25.34659745       9.64596387       0.15001112      -0.00000227       0.00000822       0.00000457
N        2.35507549      13.45401378      22.49657539       0.00002853      -0.00002317      -0.00004585
N        9.50171257       7.14606181      16.10069978      -0.00001702      -0.00003441       0.00005054
N        8.70985674       5.51318080      22.50525731      -0.00003138      -0.00001317       0.00005697
N        2.13188305       5.92794614      22.47840030       0.00000916       0.00004075       0.00001547
I        5.54979069      16.50024003       3.28776640      -0.00001513       0.00000402       0.00001236
I        5.58220314       2.72905162       9.66454322      -0.00000445      -0.00000588      -0.00000665
I        5.38555215      25.42239336       6.11266223      -0.00000033      -0.00000212       0.00001494
I        6.66809650      19.05230539       6.90194728      -0.00000301      -0.00000974      -0.00000789
I       24.69217023       3.70847668       9.75496877       0.00000409      -0.00000683       0.00000989
I       11.90368852      15.46935806       3.31348516       0.00000252      -0.00000229       0.00000359
I       11.74780549      19.24602220       6.12474234      -0.00000239       0.00001036       0.00000279
I        0.27222470       0.11565326       6.83308958      -0.00001483       0.00000165      -0.00000635
I        8.91648313       2.50279682      12.60820111       0.00000775      -0.00000527      -0.00000710
I        3.07851937      21.64440425       6.21971721       0.00000554       0.00000548       0.00000794
I        2.60019267      16.62686384       6.75285983      -0.00000253      -0.00000950       0.00000710
I        8.95010835       2.54316165       6.76134511       0.00000883      -0.00001475      -0.00000175
H        1.97687955      18.30260984       2.37656992       0.00000619      -0.00000116      -0.00000652
H        8.28277239      18.57194804       4.19681840       0.00001392      -0.00000538       0.00001477
H        8.30293465       0.93973358       2.36515373       0.00000227       0.00001231      -0.00002530
H        4.33813732      18.55175321       9.69484121       0.00003488       0.00001550      -0.00000283
H        3.76682884      24.87236074      10.59740754      -0.00000228      -0.00001419      -0.00000071
H        8.29317359      18.57785525       2.40125800      -0.00000234       0.00000382      -0.00003863
H        8.74718042      20.44648181       9.72190085       0.00000794       0.00000312      -0.00000570
H        3.70744900      19.97228312       8.79532202       0.00001366       0.00000255      -0.00002235
H        1.34053947      19.71948018       3.27769455       0.00005091       0.00001196      -0.00000875
H        9.66867729      17.85197506       3.30474991       0.00000511       0.00000428       0.00001393
H        8.28896770       0.93792381       4.16579856      -0.00000612       0.00002137      -0.00000365
H        3.70181095      19.96856329      10.59607258       0.00000180       0.00000813       0.00000386
H        3.57187174      20.12398326       4.12521237       0.00000766       0.00002782      -0.00001399
H        8.50314377      26.45240703       8.88575294       0.00001314       0.00000850      -0.00002363
H       10.50558764       0.45111604       3.28244462       0.00001952       0.00000858      -0.00001491
H        3.80713682      -0.82866798       4.08035597       0.00000331      -0.00001397       0.00000246
H        3.57755486      20.12908114       2.44718218      -0.00001779       0.00001455       0.00001292
H        8.49051514      26.44857855      10.56365342      -0.00000750       0.00000604       0.00000155
H        9.90443500      -0.88347847       2.43624941       0.00001539      -0.00001107      -0.00001500
H        3.81029655      -0.81833957       2.39883302       0.00000579      -0.00000481       0.00000831
H        4.18303284      18.79033167       3.28436385       0.00000601      -0.00001438       0.00000856
H       10.20780160      20.04836642       4.15558951       0.00000018      -0.00001574      -0.00002763
H        9.89174296      -0.88727476       4.11414829       0.00001366      -0.00001658       0.00001318
H        2.50740099      -1.50836303       3.23282631      -0.00002071      -0.00004109      -0.00001678
C        3.14533212      24.94744486       9.69958438      -0.00000494       0.00003562       0.00000083
C        8.91040913      18.64232568       3.30286007       0.00000142       0.00001134       0.00001023
C        9.50549154      19.65617217       9.72381251       0.00003319       0.00001575      -0.00000662
C        3.59689971      19.35728911       9.69411789      -0.00000938      -0.00002223       0.00001415
Pb       6.22437436      22.35731368       6.51523620      -0.00001332      -0.00001532      -0.00000408
Pb       5.80467812       3.25582799       6.45697840      -0.00000679      -0.00000274      -0.00000586
Pb      24.86916847       3.18891996      12.96322965       0.00001794      -0.00000016      -0.00001441
Pb      24.90774371       3.23481988       6.53868785       0.00000663       0.00001527       0.00000139
N        3.44459992      19.52363163       3.28389014      -0.00003510      -0.00002774      -0.00001175
N        8.62732357      25.84759790       9.72423808      -0.00004538      -0.00005020      -0.00000690
N        9.76754812      -0.28249203       3.27564583      -0.00005100       0.00001585       0.00003340
N        3.20046425      -0.73557387       3.23887858       0.00002140       0.00003523      -0.00000495
I        6.51217138      22.82897139       9.71319263       0.00000471       0.00001331      -0.00000676
I        6.43988105      21.88364251       3.29894751       0.00001861       0.00000726       0.00001906
I        6.63245740      19.01269696      12.51091036      -0.00001402      -0.00000802      -0.00000048
I        5.41531681      25.46409190       0.50095360       0.00001211       0.00000630       0.00000835
I        0.07554201      22.80897684       3.28122564      -0.00000088       0.00001452      -0.00001279
I       12.86619183      21.79806095       9.73890839       0.00000114       0.00001077       0.00000511
I       12.89832333       0.01461316      25.31534433      -0.00000062      -0.00001857       0.00000641
I       24.43941659      19.22628628      13.38629626       0.00000421       0.00001355       0.00000462
I        9.44481746      23.02188177       6.23847481      -0.00000501       0.00000699      -0.00000120
I        2.46489162       3.76977611      25.39615704      -0.00001647      -0.00001017       0.00000138
I        3.03039458      21.59548286      13.18261896       0.00001281      -0.00001043       0.00000233
I        9.47845908      23.06223232       0.39171118      -0.00001629       0.00000440      -0.00000297
H        3.76801297      24.88296600       8.80173927       0.00000225      -0.00001221       0.00000017
H       10.09183559      24.62518202      10.63463263      -0.00000052       0.00001499      -0.00000485
H       10.13315140      19.72658569       8.82987285      -0.00000705       0.00001015       0.00000526
H        1.88970512       0.65515214       4.14392608       0.00000734       0.00000848       0.00000813
H        1.97116117      18.29899532       4.17732036       0.00002522      -0.00002055       0.00002020
H       10.10578007      24.62710058       8.83398880       0.00000022      -0.00002504      -0.00001772
H        7.66372899      -0.48040366       3.25915308      -0.00000336      -0.00000294      -0.00001469
H        3.27402550       1.37774945       3.25121557       0.00000058       0.00000536       0.00000521
H        2.38376266      24.16029942       9.69449892      -0.00000438      -0.00000951       0.00000394
H       10.73116342      26.04531589       9.74071451      -0.00002649      -0.00001809      -0.00000143
H       10.12269434      19.72067142      10.62543648      -0.00000864       0.00000514      -0.00000651
H        1.89099805       0.66568270       2.34825755      -0.00002355       0.00001168      -0.00001039
H        3.15032617      27.04642687       9.71300999      -0.00000394       0.00000981       0.00000663
H        8.91373868      20.74105008       3.30990663      -0.00003806       0.00000140      -0.00000773
H        8.19841984      18.24414929      10.55267765       0.00000995      -0.00001018      -0.00004344
H        2.10681274      18.14720885       8.84742145      -0.00002110      -0.00002608      -0.00001481
H        1.84745013      26.35632802      10.54697697      -0.00001730       0.00000775       0.00000868
H       10.21753706      20.05428443       2.47395866       0.00002300      -0.00000553      -0.00002137
H        9.50227551      17.55744797       9.71675393       0.00000433      -0.00000461      -0.00000633
H        1.49563475      19.48083906       9.68828995      -0.00000722      -0.00000107       0.00000475
H        1.85059631      26.36675427       8.86545386      -0.00001355       0.00001746       0.00000598
H        7.88922080      25.11405165       9.71745388       0.00004286       0.00001751      -0.00001405
H        8.20819094      18.25007340       8.87104510      -0.00001350      -0.00000010       0.00002185
H        2.10116985      18.14209608      10.52545284      -0.00002952       0.00000030      -0.00000632
C        2.08176730      18.91393375       3.27849372      -0.00001751       0.00002387      -0.00001800
C        9.99064515      25.23916751       9.73411315       0.00003055       0.00004103       0.00006983
C        8.40417032       0.32581435       3.26571124       0.00003677      -0.00001359       0.00000848
C        2.51243829       0.59062097       3.24612115       0.00001228      -0.00002212       0.00001219