320
Lattice="36.16426840526522 -0.04373444033676728 -0.635891615382257 0.06409189077822319 21.17162663484452 0.055228187207073606 0.32970937011554713 -0.04347485342927254 19.393571839107018" Properties=species:S:1:pos:R:3:forces:R:3 energy=-994.5713374275568 stress="0.0032469259359027692 5.4573247058316636e-05 -2.1282130771971218e-05 5.4573247058316636e-05 0.00327067394057774 2.3589994058449905e-05 -2.1282130771971218e-05 2.3589994058449905e-05 0.0032766683573689525" free_energy=-994.5713374275568 pbc="T T T"
Cs      35.27111000      15.74498823       1.56302339       0.00001111      -0.00000266      -0.00000753
Cs       5.59727318       3.43950364      19.02559179      -0.00001131      -0.00000793      -0.00000920
Cs      32.48620926      21.04130227       1.62561068      -0.00000849      -0.00000327      -0.00000496
Cs       8.44625318      19.31480208      19.01818799       0.00000042       0.00000130       0.00000860
Cs      35.35354534      15.73410230       6.41138830       0.00000720       0.00001227       0.00000596
Cs       5.34998414       3.47206427       4.48039984      -0.00000431       0.00001579       0.00000221
Cs      32.56864969      21.03039852       6.47401528      -0.00000639       0.00001934      -0.00000467
Cs       8.19898131      19.34741774       4.47301152      -0.00000093      -0.00000702       0.00000315
Pb      30.73382136      16.56262405      18.61934187      -0.00000928       0.00001704       0.00000626
Pb      10.13457984       2.62181956       1.96921306      -0.00002388      -0.00000962       0.00000270
Pb       1.37464152       0.72017798      19.09291410       0.00002286      -0.00003619      -0.00000486
Pb       3.32944246      18.50806237       2.13157667       0.00000309       0.00002294      -0.00000779
Pb      30.48651900      16.59529357       4.07417025      -0.00001225       0.00000673      -0.00000762
Pb      10.21700598       2.61097552       6.81758819      -0.00005305      -0.00005206       0.00001022
Pb       1.12737533       0.75279001       4.54774024       0.00003035      -0.00003139       0.00000788
Pb       3.41189519      18.49716624       6.97996630      -0.00000276       0.00004084       0.00000510
I       29.33406389      18.46663013       1.67347539       0.00000454      -0.00000936       0.00002203
I       29.61647202       0.69600770      18.59708114      -0.00000675       0.00000796       0.00000626
I        2.20831359       2.61855105       2.10857407       0.00001369       0.00001455      -0.00000270
I        2.49576489      16.60969441      19.11590578      -0.00000097      -0.00002102       0.00000840
I        9.55289566      15.21097971      18.98627281       0.00000410       0.00001322       0.00000417
I       31.31548431       3.97349750       1.60232530       0.00000502      -0.00001052      -0.00000434
I        4.53216817      20.50658251      19.09017690       0.00000657       0.00000083      -0.00000522
I        0.23600365      19.89329481       2.18956017       0.00000834      -0.00002635      -0.00001103
I       33.50047765      17.99449599      18.57439127       0.00000399       0.00001509       0.00000338
I        7.36791696       1.18994217       2.01418208       0.00001573       0.00000737      -0.00000364
I       34.77843248       2.11747714      18.50971455      -0.00002035       0.00001545      -0.00000980
I        6.08990627      17.06700640       2.07888729       0.00002740       0.00000204      -0.00000452
I       29.41649135      18.45577148       6.52195593       0.00000582      -0.00002478      -0.00002692
I       29.36915982       0.72856882       4.05191120       0.00000700       0.00001736       0.00001057
I        2.29075791       2.60768958       6.95700140      -0.00000344       0.00000135      -0.00001950
I        2.24852783      16.64227912       4.57071770      -0.00003546      -0.00002777       0.00001184
I        9.30560613      15.24360834       4.44108440       0.00001674      -0.00000614      -0.00000009
I       31.39791074       3.96261780       6.45063262       0.00000750       0.00000263       0.00000951
I        4.28489525      20.53918821       4.54500420       0.00001252      -0.00000359      -0.00000144
I        0.31846722      19.88239400       7.03791634      -0.00001398       0.00000833       0.00000829
I       33.25318538      18.02715014       4.02921008      -0.00000510      -0.00001161       0.00000477
I        7.45033876       1.17907711       6.86258803       0.00004194       0.00002400      -0.00000526
I       34.53116818       2.15006674       3.96453606      -0.00004352       0.00002621       0.00000160
I        6.17237030      17.05612206       6.92726728       0.00000624      -0.00000141      -0.00000177
Cs      35.43596468      15.72325080      11.25980931       0.00001112      -0.00000266      -0.00000753
Cs       5.43241849       3.46124107       9.32880587      -0.00001131      -0.00000793      -0.00000920
Cs      32.65106394      21.01956484      11.32239660      -0.00000848      -0.00000327      -0.00000496
Cs       8.28139850      19.33653950       9.32140207       0.00000041       0.00000131       0.00000860
Cs      35.51840002      15.71236487      16.10817422       0.00000721       0.00001228       0.00000595
Cs       5.51483882       3.45032684      14.17718576      -0.00000431       0.00001580       0.00000221
Cs      32.73350437      21.00866109      16.17080120      -0.00000639       0.00001935      -0.00000467
Cs       8.36383600      19.32568031      14.16979744      -0.00000093      -0.00000702       0.00000315
Pb      30.56896667      16.58436147       8.92255595      -0.00000927       0.00001705       0.00000625
Pb      10.29943452       2.60008213      11.66599898      -0.00002386      -0.00000960       0.00000269
Pb       1.20978683       0.74191541       9.39612818       0.00002289      -0.00003621      -0.00000486
Pb       3.49429715      18.48632494      11.82836259       0.00000308       0.00002295      -0.00000779
Pb      30.65137368      16.57355614      13.77095617      -0.00001224       0.00000674      -0.00000761
Pb      10.38186066       2.58923809      16.51437411      -0.00005304      -0.00005206       0.00001022
Pb       1.29223001       0.73105258      14.24452616       0.00003037      -0.00003139       0.00000788
Pb       3.57674988      18.47542881      16.67675222      -0.00000277       0.00004085       0.00000509
I       29.49891857      18.44489270      11.37026131       0.00000454      -0.00000936       0.00002202
I       29.45161734       0.71774513       8.90029522      -0.00000675       0.00000795       0.00000627
I        2.37316827       2.59681362      11.80535999       0.00001369       0.00001456      -0.00000270
I        2.33091021      16.63143183       9.41911986      -0.00000097      -0.00002101       0.00000840
I        9.38804098      15.23271713       9.28948689       0.00000409       0.00001324       0.00000417
I       31.48033900       3.95176008      11.29911122       0.00000502      -0.00001052      -0.00000434
I        4.36731349      20.52831993       9.39339098       0.00000656       0.00000084      -0.00000522
I        0.40085834      19.87155738      11.88634609       0.00000834      -0.00002635      -0.00001104
I       33.33562296      18.01623341       8.87760535       0.00000399       0.00001509       0.00000339
I        7.53277164       1.16820474      11.71096800       0.00001574       0.00000737      -0.00000364
I       34.61357780       2.13921457       8.81292863      -0.00002037       0.00001545      -0.00000980
I        6.25476096      17.04526897      11.77567321       0.00002740       0.00000204      -0.00000452
I       29.58134603      18.43403405      16.21874185       0.00000582      -0.00002477      -0.00002692
I       29.53401451       0.70683140      13.74869712       0.00000700       0.00001735       0.00001055
I        2.45561259       2.58595215      16.65378732      -0.00000343       0.00000136      -0.00001950
I        2.41338252      16.62054169      14.26750362      -0.00003546      -0.00002776       0.00001184
I        9.47046082      15.22187091      14.13787032       0.00001674      -0.00000612      -0.00000009
I       31.56276543       3.94088038      16.14741854       0.00000750       0.00000263       0.00000950
I        4.44974994      20.51745078      14.24179012       0.00001251      -0.00000359      -0.00000144
I        0.48332191      19.86065657      16.73470226      -0.00001398       0.00000833       0.00000829
I       33.41804006      18.00541271      13.72599600      -0.00000510      -0.00001161       0.00000477
I        7.61519344       1.15733968      16.55937395       0.00004195       0.00002400      -0.00000526
I       34.69602287       2.12832932      13.66132198      -0.00004354       0.00002620       0.00000160
I        6.33722499      17.03438463      16.62405320       0.00000624      -0.00000141      -0.00000177
Cs      35.23906405       5.15917491       1.53540930       0.00001111      -0.00000266      -0.00000753
Cs       5.62931912      14.02531696      19.05320589      -0.00001131      -0.00000793      -0.00000920
Cs      32.45416331      10.45548895       1.59799659      -0.00000849      -0.00000327      -0.00000497
Cs       8.41420723       8.72898876      18.99057390       0.00000042       0.00000130       0.00000860
Cs      35.32149939       5.14828898       6.38377421       0.00000720       0.00001227       0.00000596
Cs       5.38203008      14.05787758       4.50801394      -0.00000431       0.00001580       0.00000221
Cs      32.53660374      10.44458520       6.44640119      -0.00000639       0.00001935      -0.00000468
Cs       8.16693536       8.76160442       4.44539743      -0.00000092      -0.00000702       0.00000315
Pb      30.70177541       5.97681073      18.59172778      -0.00000928       0.00001704       0.00000625
Pb      10.16662578      13.20763287       1.99682716      -0.00002386      -0.00000960       0.00000269
Pb       1.40668746      11.30599130      19.12052820       0.00002288      -0.00003621      -0.00000486
Pb       3.29739651       7.92224905       2.10396258       0.00000308       0.00002294      -0.00000779
Pb      30.45447305       6.00948025       4.04655616      -0.00001224       0.00000673      -0.00000762
Pb      10.24905192      13.19678883       6.84520229      -0.00005304      -0.00005205       0.00001021
Pb       1.15942127      11.33860332       4.57535434       0.00003035      -0.00003139       0.00000788
Pb       3.37984924       7.91135292       6.95235221      -0.00000276       0.00004085       0.00000509
I       29.30201794       7.88081681       1.64586130       0.00000455      -0.00000936       0.00002203
I       29.64851797      11.28182102      18.62469523      -0.00000676       0.00000795       0.00000627
I        2.24035953      13.20436436       2.13618817       0.00001370       0.00001456      -0.00000270
I        2.46371894       6.02388109      19.08829169      -0.00000096      -0.00002102       0.00000839
I        9.52084971       4.62516639      18.95865872       0.00000411       0.00001323       0.00000416
I       31.34753026      14.55931082       1.62993939       0.00000502      -0.00001052      -0.00000434
I        4.50012222       9.92076919      19.06256281       0.00000657       0.00000083      -0.00000521
I        0.20395770       9.30748149       2.16194608       0.00000834      -0.00002635      -0.00001104
I       33.46843170       7.40868267      18.54677718       0.00000399       0.00001509       0.00000338
I        7.39996290      11.77575548       2.04179618       0.00001574       0.00000737      -0.00000364
I       34.81047843      12.70329046      18.53732864      -0.00002038       0.00001546      -0.00000979
I        6.05786032       6.48119308       2.05127320       0.00002740       0.00000205      -0.00000453
I       29.38444540       7.86995816       6.49434184       0.00000581      -0.00002477      -0.00002692
I       29.40120577      11.31438214       4.07952529       0.00000700       0.00001735       0.00001057
I        2.32280385      13.19350289       6.98461550      -0.00000343       0.00000137      -0.00001951
I        2.21648188       6.05646580       4.54310361      -0.00003545      -0.00002776       0.00001184
I        9.27356018       4.65779502       4.41347031       0.00001675      -0.00000612      -0.00000011
I       31.42995669      14.54843112       6.47824671       0.00000751       0.00000263       0.00000951
I        4.25284930       9.95337489       4.51739011       0.00001253      -0.00000359      -0.00000144
I        0.28642127       9.29658068       7.01030225      -0.00001398       0.00000833       0.00000830
I       33.22113943       7.44133682       4.00159599      -0.00000510      -0.00001161       0.00000477
I        7.48238470      11.76489042       6.89020213       0.00004195       0.00002400      -0.00000526
I       34.56321413      12.73588006       3.99215015      -0.00004354       0.00002621       0.00000160
I        6.14032435       6.47030874       6.89965319       0.00000624      -0.00000141      -0.00000177
Cs      35.40391873       5.13743749      11.23219522       0.00001112      -0.00000266      -0.00000753
Cs       5.46446444      14.04705439       9.35641997      -0.00001131      -0.00000793      -0.00000920
Cs      32.61901799      10.43375153      11.29478251      -0.00000848      -0.00000327      -0.00000497
Cs       8.24935255       8.75072619       9.29378798       0.00000042       0.00000130       0.00000860
Cs      35.48635407       5.12655156      16.08056013       0.00000721       0.00001227       0.00000596
Cs       5.54688477      14.03614016      14.20479986      -0.00000431       0.00001580       0.00000221
Cs      32.70145842      10.42284778      16.14318711      -0.00000639       0.00001934      -0.00000468
Cs       8.33179005       8.73986700      14.14218335      -0.00000093      -0.00000702       0.00000315
Pb      30.53692072       5.99854816       8.89494186      -0.00000927       0.00001704       0.00000626
Pb      10.33148047      13.18589545      11.69361308      -0.00002388      -0.00000961       0.00000269
Pb       1.24183278      11.32772873       9.42374228       0.00002286      -0.00003621      -0.00000486
Pb       3.46225120       7.90051163      11.80074850       0.00000308       0.00002294      -0.00000779
Pb      30.61932773       5.98774283      13.74334208      -0.00001224       0.00000673      -0.00000761
Pb      10.41390661      13.17505141      16.54198821      -0.00005305      -0.00005206       0.00001022
Pb       1.32427596      11.31686590      14.27214026       0.00003034      -0.00003138       0.00000788
Pb       3.54470393       7.88961550      16.64913813      -0.00000277       0.00004083       0.00000509
I       29.46687262       7.85907939      11.34264722       0.00000455      -0.00000937       0.00002202
I       29.48366328      11.30355845       8.92790931      -0.00000675       0.00000794       0.00000627
I        2.40521422      13.18262694      11.83297409       0.00001369       0.00001455      -0.00000270
I        2.29886426       6.04561852       9.39150577      -0.00000097      -0.00002102       0.00000841
I        9.35599503       4.64690382       9.26187280       0.00000410       0.00001323       0.00000416
I       31.51238494      14.53757340      11.32672531       0.00000503      -0.00001054      -0.00000434
I        4.33526754       9.94250662       9.36577689       0.00000656       0.00000083      -0.00000522
I        0.36881239       9.28574407      11.85873200       0.00000834      -0.00002636      -0.00001103
I       33.30357701       7.43042010       8.84999126       0.00000400       0.00001509       0.00000339
I        7.56481759      11.75401806      11.73858210       0.00001573       0.00000737      -0.00000364
I       34.64562374      12.72502789       8.84054272      -0.00002036       0.00001544      -0.00000979
I        6.22271501       6.45945566      11.74805912       0.00002740       0.00000204      -0.00000453
I       29.54930008       7.84822074      16.19112776       0.00000582      -0.00002478      -0.00002692
I       29.56606045      11.29264472      13.77631121       0.00000700       0.00001735       0.00001057
I        2.48765854      13.17176547      16.68140142      -0.00000343       0.00000136      -0.00001950
I        2.38133657       6.03472838      14.23988953      -0.00003546      -0.00002777       0.00001184
I        9.43841487       4.63605760      14.11025623       0.00001674      -0.00000614      -0.00000011
I       31.59481137      14.52669370      16.17503263       0.00000751       0.00000261       0.00000951
I        4.41770399       9.93163747      14.21417603       0.00001252      -0.00000359      -0.00000144
I        0.45127596       9.27484326      16.70708817      -0.00001398       0.00000832       0.00000829
I       33.38599411       7.41959940      13.69838191      -0.00000510      -0.00001161       0.00000477
I        7.64723939      11.74315300      16.58698805       0.00004195       0.00002400      -0.00000526
I       34.72806881      12.71414264      13.68893607      -0.00004352       0.00002619       0.00000160
I        6.30517904       6.44857132      16.59643911       0.00000623      -0.00000141      -0.00000177
Cs      17.18897579      15.76685545       1.88096920       0.00001112      -0.00000266      -0.00000753
Cs      23.67940738       3.41763642      18.70764598      -0.00001131      -0.00000793      -0.00000920
Cs      14.40407505      21.06316949       1.94355649      -0.00000848      -0.00000327      -0.00000496
Cs      26.52838738      19.29293486      18.70024218       0.00000042       0.00000130       0.00000860
Cs      17.27141113      15.75596952       6.72933411       0.00000721       0.00001227       0.00000595
Cs      23.43211834       3.45019704       4.16245404      -0.00000431       0.00001580       0.00000220
Cs      14.48651548      21.05226574       6.79196109      -0.00000639       0.00001934      -0.00000467
Cs      26.28111551      19.32555052       4.15506571      -0.00000092      -0.00000703       0.00000315
Pb      12.65168715      16.58449127      18.93728768      -0.00000927       0.00001704       0.00000627
Pb      28.21671404       2.59995233       1.65126726      -0.00002387      -0.00000959       0.00000268
Pb      19.45677572       0.69831076      18.77496829       0.00002288      -0.00003620      -0.00000486
Pb      21.41157666      18.48619515       1.81363086       0.00000308       0.00002294      -0.00000779
Pb      12.40438479      16.61716079       4.39211606      -0.00001224       0.00000673      -0.00000761
Pb      28.29914018       2.58910829       6.49964239      -0.00005305      -0.00005204       0.00001020
Pb      19.20950953       0.73092278       4.22979444       0.00003034      -0.00003138       0.00000786
Pb      21.49402939      18.47529902       6.66202049      -0.00000276       0.00004084       0.00000510
I       11.25192968      18.48849735       1.99142120       0.00000455      -0.00000936       0.00002203
I       11.53433782       0.71787492      18.91502694      -0.00000676       0.00000796       0.00000628
I       20.29044779       2.59668382       1.79062827       0.00001369       0.00001456      -0.00000271
I       20.57789909      16.58782719      18.79795997      -0.00000096      -0.00002102       0.00000840
I       27.63502986      15.18911249      18.66832700       0.00000412       0.00001322       0.00000417
I       13.23335011       3.99536472       1.92027111       0.00000503      -0.00001052      -0.00000434
I       22.61430237      20.48471529      18.77223109       0.00000657       0.00000083      -0.00000522
I       18.31813785      19.87142759       1.87161436       0.00000834      -0.00002636      -0.00001103
I       15.41834344      18.01636321      18.89233708       0.00000400       0.00001509       0.00000338
I       25.45005116       1.16807494       1.69623628       0.00001573       0.00000738      -0.00000365
I       16.69629828       2.13934436      18.82766035      -0.00002037       0.00001545      -0.00000979
I       24.17204047      17.04513918       1.76094148       0.00002740       0.00000204      -0.00000452
I       11.33435714      18.47763870       6.83990174       0.00000582      -0.00002478      -0.00002692
I       11.28702562       0.75043604       4.36985701       0.00000699       0.00001737       0.00001056
I       20.37289211       2.58582235       6.63905560      -0.00000342       0.00000138      -0.00001952
I       20.33066203      16.62041190       4.25277189      -0.00003545      -0.00002777       0.00001184
I       27.38774033      15.22174112       4.12313859       0.00001676      -0.00000614      -0.00000009
I       13.31577654       3.98448502       6.76857843       0.00000751       0.00000264       0.00000951
I       22.36702945      20.51732099       4.22705839       0.00001253      -0.00000359      -0.00000143
I       18.40060142      19.86052678       6.71997053      -0.00001398       0.00000831       0.00000831
I       15.17105117      18.04901736       4.34715589      -0.00000510      -0.00001161       0.00000477
I       25.53247296       1.15720988       6.54464223       0.00004195       0.00002400      -0.00000526
I       16.44903398       2.17193396       4.28248187      -0.00004353       0.00002621       0.00000160
I       24.25450450      17.03425484       6.60932147       0.00000624      -0.00000141      -0.00000177
Cs      17.35383048      15.74511802      11.57775512       0.00001111      -0.00000266      -0.00000753
Cs      23.51455270       3.43937385       9.01086006      -0.00001131      -0.00000793      -0.00000919
Cs      14.56892974      21.04143206      11.64034241      -0.00000848      -0.00000327      -0.00000497
Cs      26.36353270      19.31467228       9.00345626       0.00000042       0.00000130       0.00000860
Cs      17.43626582      15.73423209      16.42612003       0.00000720       0.00001228       0.00000596
Cs      23.59697303       3.42845962      13.85923995      -0.00000431       0.00001580       0.00000221
Cs      14.65137017      21.03052831      16.48874701      -0.00000639       0.00001935      -0.00000468
Cs      26.44597020      19.30381309      13.85185163      -0.00000093      -0.00000702       0.00000315
Pb      12.48683247      16.60622869       9.24050176      -0.00000927       0.00001706       0.00000624
Pb      28.38156873       2.57821491      11.34805317      -0.00002388      -0.00000959       0.00000271
Pb      19.29192104       0.72004819       9.07818237       0.00002286      -0.00003621      -0.00000484
Pb      21.57643135      18.46445772      11.51041678       0.00000308       0.00002294      -0.00000780
Pb      12.56923948      16.59542336      14.08890198      -0.00001224       0.00000674      -0.00000761
Pb      28.46399487       2.56737087      16.19642830      -0.00005306      -0.00005205       0.00001023
Pb      19.37436422       0.70918536      13.92658035       0.00003035      -0.00003139       0.00000788
Pb      21.65888408      18.45356159      16.35880641      -0.00000277       0.00004085       0.00000509
I       11.41678437      18.46675992      11.68820712       0.00000454      -0.00000936       0.00002202
I       11.36948314       0.73961235       9.21824102      -0.00000677       0.00000796       0.00000629
I       20.45530248       2.57494640      11.48741418       0.00001369       0.00001456      -0.00000270
I       20.41304441      16.60956461       9.10117405      -0.00000097      -0.00002101       0.00000840
I       27.47017518      15.21084991       8.97154108       0.00000409       0.00001324       0.00000417
I       13.39820480       3.97362730      11.61705702       0.00000500      -0.00001052      -0.00000432
I       22.44944769      20.50645271       9.07544517       0.00000657       0.00000083      -0.00000521
I       18.48299254      19.84969016      11.56840028       0.00000834      -0.00002635      -0.00001103
I       15.25348876      18.03810063       9.19555116       0.00000399       0.00001509       0.00000338
I       25.61490585       1.14633752      11.39302219       0.00001573       0.00000737      -0.00000364
I       16.53144360       2.16108179       9.13087443      -0.00002037       0.00001545      -0.00000979
I       24.33689516      17.02340175      11.45772740       0.00002741       0.00000204      -0.00000452
I       11.49921183      18.45590127      16.53668766       0.00000581      -0.00002477      -0.00002693
I       11.45188031       0.72869862      14.06664292       0.00000699       0.00001736       0.00001058
I       20.53774680       2.56408493      16.33584151      -0.00000344       0.00000136      -0.00001950
I       20.49551672      16.59867447      13.94955781      -0.00003546      -0.00002776       0.00001184
I       27.55259502      15.20000369      13.81992451       0.00001674      -0.00000612      -0.00000009
I       13.48063123       3.96274760      16.46536434       0.00000749       0.00000263       0.00000952
I       22.53188414      20.49558356      13.92384431       0.00001252      -0.00000359      -0.00000144
I       18.56545611      19.83878935      16.41675645      -0.00001398       0.00000833       0.00000829
I       15.33590586      18.02727993      14.04394181      -0.00000510      -0.00001161       0.00000477
I       25.69732765       1.13547246      16.24142814       0.00004194       0.00002400      -0.00000526
I       16.61388867       2.15019654      13.97926778      -0.00004353       0.00002620       0.00000161
I       24.41935919      17.01251741      16.30610739       0.00000624      -0.00000141      -0.00000177
Cs      17.15692985       5.18104213       1.85335511       0.00001112      -0.00000266      -0.00000753
Cs      23.71145333      14.00344974      18.73526008      -0.00001131      -0.00000793      -0.00000920
Cs      14.37202911      10.47735617       1.91594240      -0.00000848      -0.00000327      -0.00000497
Cs      26.49634144       8.70712154      18.67262809       0.00000041       0.00000130       0.00000860
Cs      17.23936519       5.17015620       6.70172002       0.00000720       0.00001227       0.00000595
Cs      23.46416429      14.03601036       4.19006813      -0.00000431       0.00001580       0.00000221
Cs      14.45446954      10.46645242       6.76434700      -0.00000639       0.00001935      -0.00000468
Cs      26.24906957       8.73973720       4.12745162      -0.00000093      -0.00000702       0.00000315
Pb      12.61964121       5.99867795      18.90967359      -0.00000928       0.00001704       0.00000624
Pb      28.24875999      13.18576565       1.67888135      -0.00002388      -0.00000959       0.00000269
Pb      19.48882167      11.28412408      18.80258239       0.00002287      -0.00003620      -0.00000486
Pb      21.37953072       7.90038183       1.78601677       0.00000309       0.00002294      -0.00000779
Pb      12.37233885       6.03134747       4.36450197      -0.00001225       0.00000673      -0.00000761
Pb      28.33118613      13.17492161       6.52725648      -0.00005306      -0.00005204       0.00001020
Pb      19.24155548      11.31673610       4.25740853       0.00003035      -0.00003139       0.00000788
Pb      21.46198345       7.88948570       6.63440640      -0.00000277       0.00004085       0.00000509
I       11.21988374       7.90268403       1.96380711       0.00000454      -0.00000936       0.00002202
I       11.56638377      11.30368824      18.94264104      -0.00000676       0.00000796       0.00000627
I       20.32249374      13.18249714       1.81824236       0.00001369       0.00001456      -0.00000270
I       20.54585315       6.00201387      18.77034588      -0.00000097      -0.00002102       0.00000840
I       27.60298392       4.60329917      18.64071291       0.00000410       0.00001322       0.00000417
I       13.26539606      14.58117804       1.94788520       0.00000500      -0.00001052      -0.00000434
I       22.58225643       9.89890197      18.74461700       0.00000657       0.00000083      -0.00000521
I       18.28609191       9.28561427       1.84400027       0.00000834      -0.00002636      -0.00001103
I       15.38629750       7.43054989      18.86472299       0.00000399       0.00001509       0.00000339
I       25.48209711      11.75388826       1.72385037       0.00001573       0.00000737      -0.00000364
I       16.72834423      12.72515768      18.85527445      -0.00002037       0.00001545      -0.00000979
I       24.13999453       6.45932586       1.73332739       0.00002740       0.00000204      -0.00000452
I       11.30231120       7.89182538       6.81228765       0.00000581      -0.00002477      -0.00002693
I       11.31907157      11.33624936       4.39747110       0.00000699       0.00001736       0.00001056
I       20.40493806      13.17163567       6.66666969      -0.00000343       0.00000136      -0.00001951
I       20.29861609       6.03459858       4.22515780      -0.00003546      -0.00002777       0.00001184
I       27.35569439       4.63592780       4.09552450       0.00001674      -0.00000613      -0.00000009
I       13.34782249      14.57029834       6.79619252       0.00000749       0.00000263       0.00000950
I       22.33498351       9.93150767       4.19944430       0.00001253      -0.00000359      -0.00000144
I       18.36855548       9.27471346       6.69235644      -0.00001398       0.00000833       0.00000830
I       15.13900523       7.46320404       4.31954180      -0.00000510      -0.00001161       0.00000477
I       25.56451891      11.74302320       6.57225632       0.00004194       0.00002400      -0.00000526
I       16.48107993      12.75774728       4.31009596      -0.00004353       0.00002620       0.00000160
I       24.22245856       6.44844152       6.58170738       0.00000624      -0.00000141      -0.00000177