96
Lattice="12.779149157428936 0.017503525633292227 0.028855813642683872 -0.00744478119404604 12.810388064460515 -0.13785211228638639 -0.12148374675005263 0.08385329926132357 12.791953464330193" Properties=species:S:1:pos:R:3:forces:R:3 energy=-457.14735565639154 stress="0.0017620608755279307 8.664574363882775e-06 -0.00019480557130267066 8.664574363882775e-06 0.0034248748470014374 0.0008418043699532356 -0.00019480557130267066 0.0008418043699532356 0.0032227227739721003" free_energy=-457.14735565639154 pbc="T T T"
H        7.49891905      10.12150842       2.32355296      -0.00000201       0.00000109      -0.00000962
H        7.51037871       4.71633882       1.37594162      -0.00000796       0.00000725       0.00000717
H        7.44172561       3.75843892       8.78844963       0.00001780      -0.00001387      -0.00000761
H        7.44577183      11.16335011       7.70311583      -0.00000975       0.00000316       0.00001932
H        7.61049033      11.36548212       0.36335014      -0.00001366      -0.00000412      -0.00001835
H        7.57605100       2.78281587       2.66557236      -0.00001523      -0.00000602       0.00000492
H        2.52561593       9.54577889       9.46392196      -0.00000336       0.00003552      -0.00002908
H        7.51167499       9.22991443       8.99286080       0.00000313      -0.00001019      -0.00003296
H        3.41781892       3.93985895       1.82783278      -0.00004801       0.00000625       0.00000524
H        3.41586997      10.55622195       1.56154407      -0.00000778       0.00000707      -0.00000600
H        3.35318440      10.38699961       8.15481053       0.00000962       0.00000262      -0.00000535
H        8.87190369       9.78628578       9.94088678       0.00000878       0.00001283       0.00000408
H        2.58221928       6.23363224       1.30785297       0.00004941       0.00000689      -0.00005966
H        2.53229854      10.06002450       3.84397634      -0.00000644       0.00000944       0.00000458
H        2.51764980      12.68082986       7.63495017       0.00001035      -0.00000223       0.00000138
H        3.35885530       4.19280166       8.02643269      -0.00000982       0.00001209       0.00001079
H        8.97584575      10.50800483       4.06951883      -0.00001758       0.00003028      -0.00003974
H        1.16807164      11.01715970       4.37337479      -0.00003069      -0.00000009       0.00001987
H        7.55368361       5.00228764       6.82819480      -0.00001137      -0.00001136       0.00000130
H        2.55907804       5.50385681       7.16123409      -0.00000778       0.00001785       0.00000234
C        8.26231543      10.89958451       2.22437247      -0.00002633       0.00000592       0.00000705
C        1.86167236      11.47933803       2.52578708       0.00000823       0.00001754       0.00000575
C        1.80720685      11.38494303       9.05514735      -0.00001765       0.00006873      -0.00005523
C        1.80462773       5.11602095       8.99053797       0.00002529       0.00002012       0.00000599
N        2.66980088       3.91518547       2.52755513      -0.00000601      -0.00000396       0.00004307
N        2.67557785      11.26347703       1.51892288      -0.00000235      -0.00004881       0.00004024
N        2.60518629      10.36231906       8.85455254       0.00005834      -0.00007383       0.00002571
N        8.21755419       9.94957056       9.17640556       0.00002408       0.00000145       0.00004026
N        1.91532986       6.06797212       2.06097203      -0.00003765      -0.00000187       0.00005355
N        1.87717013      10.81928786       3.66079790       0.00002223      -0.00002292      -0.00008245
N        8.25051956       5.19499958       7.55425061      -0.00000649      -0.00002129      -0.00000772
N        2.61861038       4.90010368       7.98374914      -0.00001052      -0.00002565       0.00001605
Pb       5.18533039       1.60291217      12.03744745      -0.00000192       0.00001208       0.00000884
Pb      -1.20585493       1.67165887      12.10528030       0.00001926       0.00000201      -0.00000161
Pb       5.24243738       7.96618415       5.57257523       0.00000880       0.00000530      -0.00000773
Pb       5.24440104       1.55648566       5.64624337       0.00000602      -0.00000810       0.00000291
I        8.37899547       1.92504393      11.90891704      -0.00000813       0.00000569       0.00000331
I        1.98190291      14.17101552      12.10191599      -0.00000443       0.00000975       0.00000047
I        2.05086273       1.75801907       5.38369892       0.00002020       0.00000739      -0.00000161
I        8.43918538       1.44126057       5.97174714      -0.00000504       0.00000719       0.00000702
I        5.38171566      11.22982137      11.53723711      -0.00000256      -0.00000256       0.00000573
I        5.00815401       4.74828548      -0.21457076       0.00001285       0.00001553      -0.00000901
I        5.44628555       4.78269741       5.21024863       0.00000420       0.00000758      -0.00000057
I        4.94368163      11.19540740       6.11251126       0.00000225       0.00000059       0.00000896
I        5.47755101      13.94830472       2.33588433       0.00000337       0.00001583      -0.00001502
I       -1.40400807       1.03541688       2.48857111      -0.00000137      -0.00001057       0.00001035
I       -0.96385083       2.04390305       8.87990184       0.00001101       0.00001230       0.00000519
I        4.92816467       2.15637769       8.85700150      -0.00000101       0.00002072       0.00001520
H        1.10697957       4.84297213       3.50535912      -0.00000527      -0.00002032      -0.00001744
H        1.10684146      12.26381368       2.41247988      -0.00000601      -0.00001119      -0.00001693
H        1.04241739      11.29010817       9.83242956      -0.00001011       0.00001142       0.00000147
H        1.04985879       5.90054654       8.87716069       0.00001043      -0.00002047      -0.00000648
H        2.59022715       3.09866443       3.13694717       0.00000808       0.00000004      -0.00001346
H        2.61594688      11.86723514       0.69641879      -0.00000917       0.00002726      -0.00001537
H        8.91854062       4.14481278      10.53454337       0.00000137      -0.00001998       0.00001408
H        1.11083521       4.65390277      10.83807456       0.00002046      -0.00001762      -0.00003560
H        8.97294421      12.31191347       0.92058837       0.00001331       0.00002233      -0.00000510
H        8.93617156       3.33906847       3.61380599       0.00001087       0.00000420      -0.00000957
H        9.74619676       5.44794700       9.68426640      -0.00001697      -0.00001545      -0.00000133
H        2.47502284       3.69665732      10.30879859       0.00004165      -0.00002689       0.00000363
H        9.80325966      11.81127662       3.21920640       0.00001515       0.00000695       0.00001896
H        9.81439192       5.61022659       3.06789787       0.00002698       0.00002187       0.00001226
H        8.91622523       5.94855012       7.38552745       0.00000960       0.00001801       0.00000859
H        9.74994420      12.05745370       9.39474040      -0.00000724      -0.00000385       0.00001556
H        1.21553134       6.79305183       2.24580433      -0.00000518      -0.00001985       0.00001913
H        9.01363466       6.44574982       1.73817578       0.00000637      -0.00001747       0.00000480
H        1.15098891      13.24023101       8.57295000      -0.00001817       0.00001304       0.00000693
H        8.94900366      12.89284174       8.06504835       0.00002747       0.00000222       0.00000392
C        1.87178058       4.93779239       2.72808590       0.00000723       0.00001738      -0.00002776
C        8.26446272       4.62225879       2.16371548      -0.00002893      -0.00002179       0.00002999
C        8.20524215       4.53640323       8.68930882      -0.00000039       0.00002708       0.00003590
C        8.19995220      11.06935028       8.49080800      -0.00000035       0.00004472      -0.00001288
N        8.30737101      11.55825423       1.08934710       0.00002141      -0.00003938       0.00004506
N        8.28193406       3.50243434       2.84924609       0.00001836       0.00002257      -0.00001781
N        9.00014065       4.74649240       9.71241719       0.00000187       0.00000342      -0.00003510
N        1.81997361       4.45597055      10.12555092      -0.00006607       0.00004443       0.00003242
N        9.05729604      11.10972496       3.24740478       0.00001170      -0.00003853       0.00001970
N        9.07577743       5.63547909       2.35813933      -0.00002600      -0.00000903      -0.00002832
N        1.85077902      12.51515365       8.38808449      -0.00000328      -0.00007479       0.00004351
N        9.01124789      12.08261990       8.68506653      -0.00004047      -0.00005503      -0.00002412
Pb      -1.20736052       8.07889381      12.03177353      -0.00001275      -0.00000572       0.00000866
Pb       5.17993304       8.00364114      11.97332690       0.00000824      -0.00002371       0.00000383
Pb      -1.14289648       1.63176860       5.70472329      -0.00000686      -0.00000988      -0.00001040
Pb      -1.14873860       8.03492507       5.64038446      -0.00000780       0.00001185      -0.00000566
I        1.98639329       8.20509681      11.71066946       0.00000922       0.00000040       0.00000547
I        8.37471435       7.88840203      12.29896060      -0.00000432      -0.00000352      -0.00000342
I        8.43610516       8.28834970       5.44398604      -0.00001782      -0.00000201      -0.00000983
I        2.04644813       7.72386998       5.77492694       0.00001545       0.00000718      -0.00000353
I       -0.99962736       4.85404900      12.46334179       0.00000439       0.00000065       0.00000329
I       -1.35706702      11.16668298      -1.35833619       0.00001496       0.00000645      -0.00002207
I       -0.94252068      11.21731338       5.99845865      -0.00001351       0.00002208      -0.00000175
I       -1.41398678       4.80342297       5.10660033       0.00000796      -0.00000658      -0.00001080
I       11.87248067       8.42467780       2.44385579       0.00000177       0.00000605       0.00001435
I        4.98515171       8.51972965       2.39213485      -0.00000249       0.00000211      -0.00000620
I        5.42062224       7.58507592       8.80081756      -0.00000374       0.00000242       0.00000055
I       -1.46848298       7.48247766       8.81563078      -0.00000374      -0.00000365      -0.00000848
