96
Lattice="15.715601999058293 0.02256672044412709 0.26198828216783826 0.13530063936145664 14.966308798308091 0.06965023251873265 0.09319966813527583 -0.04844042423253462 8.604303519686143" Properties=species:S:1:pos:R:3:forces:R:3 energy=-419.10464832757987 stress="0.0013278716327102954 0.0003378610008347832 -5.222563649013183e-05 0.0003378610008347832 0.0026809435818840014 -1.4394042651115473e-05 -5.222563649013183e-05 -1.4394042651115473e-05 0.0022098725929409753" free_energy=-419.10464832757987 pbc="T T T"
I        5.65923178       1.33206202       3.82262648       0.00000116       0.00001839      -0.00000365
I        3.44183313       6.19542420       2.90429361      -0.00000659      -0.00001324       0.00001082
I        5.83324873       1.48021571       8.06370488       0.00001594       0.00001189      -0.00001619
I        3.36093048       5.99883037       7.26753615      -0.00002149      -0.00003018       0.00001387
I        7.36922254       4.92855593       5.11035099       0.00001708      -0.00002450       0.00001222
I        1.82496784       2.55048883      10.22090035       0.00001300       0.00000971       0.00000107
H        1.99923537       1.21149859       5.50330880       0.00000034      -0.00001934       0.00002157
H        7.10170622       6.31602872       1.22354438       0.00001918       0.00000344       0.00001142
H        2.79551954       1.99525236       6.90870437      -0.00002680       0.00001704      -0.00001634
H        7.90887626       4.94963036       0.37944199      -0.00001671      -0.00000127       0.00001084
H        1.19222904       2.57791305       6.34753890       0.00000360      -0.00000277       0.00000285
H        6.30557183       5.53212522      -0.18184826       0.00001248      -0.00001469      -0.00000711
H        3.73703064       2.73722924       4.78710196      -0.00002753      -0.00003305       0.00005258
H        5.36402820       4.79023821       1.93978653       0.00002169      -0.00000252       0.00000643
H        3.01374130       4.02887954       5.60418991       0.00000396       0.00003094       0.00000459
H        6.83891016       4.21628067       2.44978316       0.00000113       0.00001350       0.00001971
H        2.26215618       3.31122969       4.27714506      -0.00001889       0.00003000      -0.00000408
H        6.08736167       3.49858338       1.12274538      -0.00001789       0.00001347      -0.00000655
C        2.15296063       2.15490654       6.03780159       0.00004394      -0.00002027      -0.00002491
C        6.94809170       5.37257475       0.68910147      -0.00002073       0.00001994      -0.00001122
Pb       4.00822840      14.98490474      10.22216330      -0.00000550      -0.00001218      -0.00000054
Pb       0.07965930      14.90949892      10.15007347       0.00000512      -0.00003239      -0.00000203
N        2.82891253       3.12174961       5.12335113       0.00000011       0.00000109      -0.00003586
N        6.27216107       4.40573055       1.60356559      -0.00001367      -0.00001682      -0.00000540
I        7.28376654       8.97340746       7.34441088       0.00000624      -0.00002234      -0.00002170
I        2.04574120      13.47196066       8.05652875       0.00000078      -0.00000228      -0.00000841
I        7.38292875       8.80913520       2.97729248      -0.00000227       0.00000483       0.00000994
I        1.85335985      13.68464053       3.81931010      -0.00000786      -0.00000101       0.00000372
I        5.79293303      12.42809808       1.72062156      -0.00000698       0.00000153      -0.00000237
I        3.44334084      10.06567956       5.07596312       0.00000540      -0.00003673      -0.00001074
H        3.28027203       8.65594409       9.76799922      -0.00000005       0.00000756       0.00001027
H        6.78323537      12.94335968       7.03622531      -0.00000068       0.00000597      -0.00000653
H        2.54621488       9.50223781       8.36450001       0.00001041      -0.00003681      -0.00001475
H        6.04896435      13.78930795       5.63263185       0.00001611      -0.00002240       0.00001917
H        4.13826393      10.03602409       8.99924429      -0.00001959       0.00000201      -0.00001850
H        5.19121807      12.40923878       6.40168408      -0.00001058       0.00000306       0.00000485
H        3.01263189      10.71858965      11.05788026      -0.00004240       0.00001437       0.00002049
H        7.78129982      12.25903960       4.91717901      -0.00000022       0.00000630      -0.00001613
H        1.54816143      10.18625830      10.48370599      -0.00000342       0.00001726       0.00002139
H        6.31686836      11.72659120       4.34302168       0.00000522      -0.00000112       0.00001546
H        2.31446176      11.49117421       9.72928212       0.00001937      -0.00000493      -0.00001188
H        7.01503447      10.95416816       5.67171526      -0.00000260       0.00000981      -0.00000628
C        3.16058615       9.61977772       9.26201518       0.00002763       0.00003143      -0.00001885
C        6.16881803      12.82557664       6.13877298      -0.00000628       0.00001076       0.00000728
Pb       5.32126908       7.46043884       5.17875602      -0.00000134       0.00003502      -0.00001681
Pb       9.24984098       7.53587240       5.25083515       0.00000759      -0.00000542      -0.00000981
N        2.47080449      10.56696153      10.18690280       0.00001213       0.00000212       0.00002203
N        6.85866519      11.87833090       5.21399763       0.00003283      -0.00000801      -0.00001890
I       13.51688325       1.34340720       3.95357689       0.00000457       0.00000667       0.00000439
I       11.29962770       6.20658147       3.03531956      -0.00000666       0.00001147       0.00001638
I       13.69114630       1.49153466       8.19465596      -0.00001719       0.00001178      -0.00000356
I       11.21868435       6.01002382       7.39853962       0.00000653      -0.00000553       0.00000615
I       15.22710771       4.93980948       5.24137487      -0.00000704       0.00000786      -0.00000311
I        9.68267946       2.56174971      10.35180743       0.00004186      -0.00001945      -0.00000686
H        9.04995454       2.58903729       6.47860901      -0.00000303       0.00001992       0.00000341
H       14.95956211       6.32731478       1.35463552      -0.00000179       0.00000191      -0.00001116
H        9.85691945       1.22270219       5.63421239       0.00000221      -0.00002465       0.00001508
H       15.76675962       4.96093754       0.51052955      -0.00000510      -0.00000001      -0.00001331
H       10.65330970       2.00638082       7.03958734      -0.00001958       0.00000428      -0.00000325
H       14.16347704       5.54344225      -0.05080783       0.00000270       0.00000706      -0.00000243
H       10.11967716       3.32255836       4.40818417       0.00000171      -0.00000364      -0.00001685
H       13.22187498       4.80151567       2.07080780       0.00001265      -0.00001408       0.00000770
H       11.59460149       2.74849292       4.91794319       0.00002871       0.00000008       0.00000585
H       14.69674618       4.22751700       2.58079360      -0.00002032      -0.00000330       0.00001499
H       10.87140739       4.04008768       5.73520370      -0.00000618       0.00001183      -0.00001235
H       13.94519449       3.50988163       1.25372065       0.00000275       0.00001422       0.00001684
C       10.01066859       2.16607832       6.16875365       0.00000284       0.00000627      -0.00002220
C       14.80596367       5.38387456       0.82016291       0.00000241       0.00000522      -0.00002667
Pb      11.86602277      14.99622198      10.35303101       0.00000392       0.00000738      -0.00000291
Pb       7.93746205      14.92071155      10.28100078      -0.00000699      -0.00001110      -0.00001688
N       10.68652064       3.13299681       5.25431017      -0.00001163       0.00003046       0.00003457
N       14.13000530       4.41700662       1.73457954       0.00000037      -0.00000097       0.00000913
I       15.14151425       8.98468820       7.47538891       0.00001476      -0.00001394       0.00000420
I        9.90354397      13.48322975       8.18737115      -0.00001230      -0.00000037       0.00003195
I       15.24066230       8.82042038       3.10831472       0.00000784       0.00000032       0.00000024
I        9.71123257      13.69585730       3.95017488      -0.00001159       0.00000584       0.00002435
I       13.65075219      12.43943989       1.85157648      -0.00000920      -0.00000095       0.00001419
I       11.30118720      10.07689592       5.20693112      -0.00003358      -0.00001145      -0.00000308
H       11.99606350      10.04738778       9.13014240       0.00000737       0.00000763       0.00000473
H       14.64101519      12.95458695       7.16726768      -0.00001550       0.00002255      -0.00001303
H       11.13845056       8.66735374       9.89940387      -0.00001748      -0.00001559      -0.00000118
H       13.90681975      13.80066017       5.76370997      -0.00001230       0.00001058       0.00000467
H       10.40405587       9.51306876       8.49573955       0.00000508       0.00000095      -0.00000447
H       13.04896242      12.42061812       6.53268767      -0.00001070      -0.00000250       0.00000600
H       10.87042506      10.73016571      11.18878762       0.00000132      -0.00000379       0.00002002
H       15.63901363      12.27034493       5.04813891      -0.00000015      -0.00002340      -0.00000249
H        9.40600712      10.19760120      10.61469548       0.00000322      -0.00000911       0.00001344
H       14.17454959      11.73791945       4.47403515       0.00000217       0.00001889      -0.00001042
H       10.17222163      11.50243760       9.86003646      -0.00000222      -0.00000436       0.00000068
H       14.87274958      10.96547763       5.80269190       0.00002300      -0.00002703      -0.00000969
C       11.01850516       9.63101266       9.39314884      -0.00002496      -0.00000261      -0.00003421
C       14.02659552      12.83689593       6.26980422       0.00001462      -0.00000569       0.00000162
Pb      13.17906332       7.47163070       5.30977430      -0.00000883       0.00001188      -0.00000771
Pb      17.10762492       7.54717232       5.38183400       0.00000129       0.00001653      -0.00001087
N       10.32862518      10.57832081      10.31783582       0.00001828       0.00002370      -0.00001437
N       14.71638316      11.88964610       5.34498847       0.00002974      -0.00001892       0.00000541
