96
Lattice="15.815912532355389 0.20256546716152746 -0.16174855822393028 0.1552014080115614 15.163053524923718 -0.23858769612674913 -0.1738444013724702 0.12325818028840389 8.729545041710058" Properties=species:S:1:pos:R:3:forces:R:3 energy=-457.5731899008211 stress="0.0025552999245246734 0.0003145262563561474 -0.0006794521085727572 0.0003145262563561474 0.0020546737014800775 -8.044816393203235e-06 -0.0006794521085727572 -8.044816393203235e-06 0.0033822329317851623" free_energy=-457.5731899008211 pbc="T T T"
H        1.65767037       3.45394837       8.76559911      -0.00000249       0.00003242       0.00001089
H        0.46514302       1.55232437       8.18523678      -0.00003138       0.00001235       0.00002269
H        1.66430069       0.99769722       7.03755639      -0.00000045      -0.00000918       0.00000395
H        3.71526057       2.52962204       6.79608028       0.00006501      -0.00001059      -0.00003423
H        3.67937666       3.94724093       7.81877412      -0.00001290      -0.00002567      -0.00003833
H        7.45735278       4.26723195       4.37968808       0.00000673      -0.00003640       0.00000316
H        8.56926377       6.10921956       3.53923180       0.00001567      -0.00001338       0.00001876
H        7.29669517       6.53882419       2.42087160      -0.00002808      -0.00000082      -0.00000958
H        5.24816685       4.97003065       2.48444802       0.00004376       0.00001150      -0.00000036
H        5.38545600       3.65505689       3.63657050      -0.00000745       0.00002994      -0.00003466
C        2.06064502       2.77382881       8.01219381      -0.00001695      -0.00003707      -0.00004679
C        6.98761888       4.86334233       3.59478518      -0.00006297      -0.00001779      -0.00003171
N        1.35259414       1.71162048       7.70667269       0.00005630       0.00002870      -0.00000767
N        3.22409949       3.09525787       7.49181258      -0.00005037       0.00002115       0.00005644
N        7.65859415       5.89159579       3.12982480       0.00003968       0.00000910       0.00000446
N        5.79314975       4.48383447       3.20210010       0.00003535      -0.00002016       0.00002961
Pb       4.11910626      -0.02756774       3.24985729      -0.00000916       0.00004826       0.00000067
Pb       0.15267914      -0.01165984       3.34366902       0.00004346      -0.00000164      -0.00001149
I        5.95951111       1.48493695       5.39231774       0.00000307       0.00000683       0.00000180
I        2.87567726       6.40925790       5.20392753      -0.00000713       0.00000946       0.00005348
I        5.98298013       1.35077891       9.67671587       0.00000675      -0.00000492       0.00002682
I        3.11208934       6.17563298       9.64865042       0.00002275      -0.00000767      -0.00000728
I        6.89533800       5.11370892       7.48457522      -0.00000525      -0.00000548      -0.00000764
I        2.16148749       2.52927945       3.20980182      -0.00003248      -0.00003555      -0.00000330
H        3.35262117      11.01564259       2.00034306       0.00000951       0.00004082      -0.00001617
H        1.29037376      11.35240465       2.96865014       0.00005714      -0.00000527      -0.00002959
H        1.37329358       9.93115419       3.96929742      -0.00002474      -0.00001011       0.00000227
H        3.50394816       8.55109170       3.71077586      -0.00003052       0.00002723       0.00004946
H        4.66891602       9.17998238       2.56290857       0.00000944       0.00003223      -0.00001352
H        5.71989619      11.81269922       6.29090207       0.00002296       0.00001633       0.00002422
H        4.52666843      13.65569834       7.02476385      -0.00001425       0.00000609      -0.00001820
H        5.78578771      14.20438410       8.10881193       0.00001836      -0.00002028       0.00000176
H        7.90110873      12.73988913       8.12205424      -0.00003187       0.00002568       0.00001067
H       15.74025408      11.45773531       6.97694759      -0.00000487      -0.00000333      -0.00002682
C        2.99916017      10.30129032       2.74797196      -0.00004196      -0.00006267       0.00005645
C        6.16291209      12.48001531       7.03360694       0.00002275      -0.00000955       0.00001365
N        1.81836323      10.53672304       3.27612964       0.00003835       0.00004834      -0.00004165
N        3.77494396       9.28534008       3.04565624      -0.00003714      -0.00001547       0.00001139
N        5.44629905      13.50027740       7.44345378       0.00001158       0.00001818      -0.00000632
N        7.37693026      12.18452535       7.43979018       0.00000169       0.00003768      -0.00003748
Pb       4.93856373       7.67792431       7.46028544      -0.00001115      -0.00003411      -0.00000946
Pb       0.97888737       7.56396135       7.55704807      -0.00000478       0.00001795      -0.00000280
I        6.81807957       8.93812404       9.73345545      -0.00000815       0.00000379       0.00001912
I        1.99842114      13.77938002       9.68827005      -0.00002431      -0.00002101      -0.00000558
I        7.00245598       9.07167097       5.31007065       0.00000286       0.00002118      -0.00002340
I        2.39126120      13.96031791       5.36893646      -0.00000709       0.00000142       0.00002255
I        6.32559179      12.62608448       3.07542039       0.00000649       0.00001878       0.00000091
I        2.88591839      10.17967719       7.53220586       0.00000912      -0.00000449       0.00000821
H        9.56569814       3.55546810       8.68455378       0.00001696       0.00001664       0.00000409
H       11.58733544       4.04861321       7.73751080       0.00004567      -0.00000184      -0.00001557
H       11.62318127       2.63081732       6.71507029       0.00001385       0.00004052      -0.00000528
H        9.57224739       1.09892581       6.95692823      -0.00002157      -0.00001673      -0.00000898
H        8.37315643       1.65372866       8.10460487      -0.00000819      -0.00003678      -0.00002593
H       15.36510614       4.36820801       4.29867744      -0.00001019       0.00001955       0.00000099
H       16.47721634       6.21035090       3.45876879       0.00003264       0.00002316      -0.00001114
H       15.20483017       6.64019822       2.34028177      -0.00003086      -0.00002925      -0.00000202
H       13.15627942       5.07147682       2.40319060      -0.00000674      -0.00002547       0.00002247
H       13.29328863       3.75628040       3.55507165      -0.00000842      -0.00000721       0.00003122
C        9.96863429       2.87521687       7.93124565      -0.00001573      -0.00003662      -0.00000100
C       14.89552649       4.96449917       3.51381807      -0.00003574      -0.00000122      -0.00001819
N       11.13204992       3.19656949       7.41073125      -0.00000571      -0.00003948       0.00002376
N        9.26058185       1.81294295       7.62596251       0.00000104       0.00000037      -0.00001095
N       15.56659888       5.99283391       3.04918193       0.00004987      -0.00002591       0.00000181
N       13.70111796       4.58510723       3.12083602      -0.00000540      -0.00001123      -0.00000042
Pb      12.02702396       0.07364158       3.16886802      -0.00002953      -0.00001480      -0.00000439
Pb       8.06058204       0.08964761       3.26281626       0.00002089      -0.00001315       0.00001858
I       13.86741948       1.58617199       5.31127399      -0.00000851       0.00002308       0.00001353
I       10.78358499       6.51041104       5.12315189      -0.00000234       0.00001133      -0.00003891
I       13.89093910       1.45188190       9.59572703       0.00000432       0.00001446       0.00001030
I       11.01992925       6.27691314       9.56780691      -0.00001785       0.00001104      -0.00001425
I       14.80330753       5.21488387       7.40363941      -0.00000997       0.00001044       0.00001432
I       10.06949538       2.63049728       3.12878595      -0.00000137      -0.00000339      -0.00000516
H       11.26109889      11.11680055       1.91938827      -0.00003191      -0.00002302       0.00001211
H        9.19876217      11.45406146       2.88715574      -0.00003071       0.00002159       0.00001017
H        9.28111329      10.03288476       3.88799859       0.00002774       0.00000353      -0.00003945
H       11.41167145       8.65239682       3.63009898       0.00000645      -0.00004390       0.00004701
H       12.57694381       9.28099801       2.48238356       0.00003199      -0.00000183       0.00001080
H       13.62844770      11.91383669       6.20997065      -0.00002178      -0.00003520       0.00000159
H       12.43470565      13.75670908       6.94343247      -0.00001568       0.00002392       0.00003137
H       13.69350653      14.30564052       8.02774901      -0.00001703       0.00001040      -0.00001819
H       15.80903016      12.84158213       8.04159143       0.00000666      -0.00002136      -0.00000280
H        7.83177130      11.35613490       7.05728665      -0.00001920      -0.00000941      -0.00001352
C       10.90734506      10.40258165       2.66700660      -0.00000132      -0.00000765       0.00001629
C       14.07114856      12.58128377       6.95274501       0.00000628       0.00000541      -0.00001618
N        9.72647090      10.63828530       3.19486639       0.00001028       0.00002983      -0.00001804
N       11.68289876       9.38653436       2.96495341      -0.00003987      -0.00000114       0.00000256
N       13.35426100      13.60144676       7.36235583       0.00007337      -0.00000055       0.00000049
N       15.28512261      12.28605373       7.35925152      -0.00002715      -0.00002479      -0.00000345
Pb      12.84648742       7.77911727       7.37946370       0.00003606      -0.00000555      -0.00002261
Pb       8.88686415       7.66534194       7.47614786       0.00000971       0.00000201       0.00001074
I       14.72607400       9.03924538       9.65266917      -0.00002961      -0.00000525      -0.00001065
I        9.90614716      13.88052706       9.60736638       0.00000032       0.00001491       0.00000640
I       14.91031685       9.17288815       5.22930035       0.00000688       0.00002535       0.00002461
I       10.29921952      14.06165544       5.28806474      -0.00000557      -0.00000059       0.00001535
I       14.23365195      12.72730185       2.99450223       0.00000379       0.00001050      -0.00000428
I       10.79400337      10.28094360       7.45130317       0.00001234       0.00001252      -0.00000858
