96
Lattice="15.68524254678303 -0.16442630243227987 0.07283398476043183 0.1572087362772218 15.100799030043145 0.22765619060014625 -0.04063418503282183 -0.12714979008681315 8.461217028126434" Properties=species:S:1:pos:R:3:forces:R:3 energy=-457.75449564991004 stress="3.150173165654349e-08 -1.97543402029899e-08 7.2929565889309045e-09 -1.97543402029899e-08 -1.134436772438448e-08 -1.0464470505760118e-08 7.2929565889309045e-09 -1.0464470505760118e-08 7.661525852147639e-08" free_energy=-457.75449564991004 pbc="T T T"
H       -2.01392068       6.25982634       1.88883858      -0.00000746       0.00001165      -0.00001934
H       -3.18169727       4.38370659       2.57884748      -0.00000597       0.00001104       0.00000818
H       -1.90747252       3.81806880       3.63429901      -0.00000782       0.00000223      -0.00000869
H        0.18293035       5.31427543       3.69056263      -0.00001745       0.00000173      -0.00002208
H        0.08947695       6.72589350       2.66105176       0.00000139       0.00002241      -0.00000577
H        3.72611098       6.94490082      -2.30500859       0.00001319      -0.00002218      -0.00000681
H        1.61548041       6.45626714      -1.56723452       0.00000167       0.00002246       0.00000286
H        1.51207760       7.83636788      -0.49675998      -0.00000523      -0.00002711      -0.00001548
H        3.60277643       9.33316990      -0.48811602      -0.00000778      -0.00000622      -0.00000789
H        4.88707834       8.79923309      -1.54786104       0.00001170       0.00000255       0.00000896
C       -1.55902583       5.57869483       2.61093045       0.00001805      -0.00001779       0.00002227
C        3.26428428       7.60413322      -1.56716366      -0.00001584       0.00001886       0.00001838
N       -2.25867638       4.53518725       2.98986215      -0.00000373       0.00001286      -0.00002374
N       -0.35062504       5.88141114       3.02625378      -0.00000954      -0.00002697       0.00001977
N        2.05200214       7.28932041      -1.17266653       0.00000667       0.00000610      -0.00000078
N        3.96018803       8.63565728      -1.15041121      -0.00000332       0.00002288      -0.00001102
Pb       0.40594657       2.80515159      -1.23599438      -0.00000320      -0.00001433      -0.00000169
Pb      -3.51423668       2.92905872      -1.31104369      -0.00000977       0.00000245      -0.00000219
I        2.44029888       4.06961443       1.00816315       0.00000395      -0.00000895       0.00001312
I       -0.55257327       8.94969881       0.91483937       0.00002885       0.00000229       0.00000331
I        2.23398661       4.15865850       5.08788895      -0.00001433      -0.00000171       0.00000396
I       -0.76023158       9.03421893       5.29908578       0.00000220      -0.00000760      -0.00000157
I        3.17878161       7.74440133       3.02695664      -0.00000349       0.00000556       0.00000850
I       -1.47696953       5.42763882      -1.26187337      -0.00000195      -0.00000640       0.00001215
H       -0.13435867      13.82151167       0.01601779       0.00000446      -0.00000842      -0.00000144
H        0.99445165      11.94321448      -0.73062084      -0.00000260       0.00000835      -0.00000144
H       -0.29093047      11.43621253      -1.80221428      -0.00000435      -0.00002770      -0.00001578
H       -2.34982214      12.97647529      -1.81266135       0.00001390       0.00000344       0.00002355
H       -2.22740365      14.35417838      -0.74110345      -0.00000723       0.00001638       0.00000480
H        1.98228857      14.41698921       4.26675018       0.00001751      -0.00000346       0.00000534
H        0.86056974      16.31711948       3.56612568      -0.00000922      -0.00002474       0.00000224
H        2.15611915      16.85582388       2.52261466       0.00001463      -0.00001524       0.00000879
H        4.21512939      15.31610829       2.48561656       0.00000192       0.00001164      -0.00000178
H        8.70318481      16.23486023       3.60240152       0.00001086      -0.00000692       0.00000827
C       -0.60307208      13.17203599      -0.72612549      -0.00001241       0.00000703      -0.00000662
C        2.45805719      15.08836842       3.54898885      -0.00000210       0.00000056      -0.00000215
N        0.07489167      12.12613634      -1.13657238      -0.00000950       0.00000605       0.00002334
N       -1.80481204      13.51213452      -1.13173301       0.00002994      -0.00001279      -0.00002598
N        1.78398993      16.14628260       3.16368663      -0.00001005       0.00003262      -0.00000458
N        3.66365091      14.76034349       3.14487739      -0.00000030      -0.00001155       0.00000006
Pb       1.29533164      10.36521207       3.11349352       0.00000542      -0.00000269       0.00000028
Pb      -2.62655279      10.32525291       3.03607206      -0.00000831       0.00000486       0.00000518
I        3.37795988      11.69718920       5.25400478       0.00000442      -0.00000706      -0.00000805
I       -1.36949765      16.59563314       5.15255015       0.00000089      -0.00000029      -0.00000987
I        3.20922413      11.61661679       0.86800580      -0.00000387      -0.00000060      -0.00000220
I       -1.53976715      16.51056164       1.07108661       0.00000871       0.00000675      -0.00000472
I        2.54794487      15.36520503      -1.03886391      -0.00001145      -0.00000636       0.00000850
I       -0.68944517      12.90600316       3.14031376       0.00000211      -0.00000354      -0.00000127
H        5.82854170       6.17755076       1.92524762       0.00001279       0.00001113       0.00000087
H        4.66080433       4.30148082       2.61544204       0.00001133       0.00001084      -0.00002830
H        5.93512087       3.73585786       3.67078702       0.00000274      -0.00001233       0.00000250
H        8.02554530       5.23204452       3.72680864       0.00000817      -0.00000799       0.00000569
H        7.93201239       6.64362959       2.69724920      -0.00000849       0.00000249       0.00000665
H       11.56886184       6.86274212      -2.26859672      -0.00000078      -0.00001853      -0.00000776
H        9.45816354       6.37409595      -1.53103678       0.00000989      -0.00000268       0.00000788
H        9.35468293       7.75414037      -0.46049161       0.00000246      -0.00001863      -0.00001908
H       11.44540057       9.25092932      -0.45160980      -0.00000067       0.00002072       0.00000336
H       12.72978448       8.71702033      -1.51126706       0.00000335       0.00000926       0.00000225
C        6.28349873       5.49644227       2.64732239       0.00001364      -0.00000053       0.00001023
C       11.10697597       7.52194519      -1.53076287       0.00001693       0.00000377      -0.00000753
N        5.58386899       4.45295856       3.02635750      -0.00000428       0.00001638      -0.00000729
N        7.49194186       5.79915929       3.06252242      -0.00002589      -0.00000740      -0.00000785
N        9.89465650       7.20712643      -1.13638644      -0.00001033       0.00002690       0.00002656
N       11.80285867       8.55344138      -1.11390468      -0.00002996      -0.00001670      -0.00001260
Pb       8.24856600       2.72295629      -1.19958905       0.00000112      -0.00000877      -0.00000259
Pb       4.32839635       2.84681538      -1.27460689      -0.00000337       0.00001202       0.00000661
I       10.28293593       3.98742151       1.04456993       0.00001114      -0.00000606       0.00000273
I        7.29010635       8.86744283       0.95124097       0.00000442       0.00000051      -0.00001435
I       10.07656620       4.07645436       5.12427153       0.00001462      -0.00000815      -0.00000073
I        7.08232548       8.95193026       5.33547128       0.00000755       0.00000768      -0.00000466
I       11.02145120       7.66217605       3.06341822       0.00000334       0.00000072      -0.00000652
I        6.36562748       5.34541218      -1.22543035      -0.00001060      -0.00000240      -0.00000315
H        7.70836901      13.73926330       0.05236590       0.00001139      -0.00000602       0.00000719
H        8.83705681      11.86087857      -0.69422639      -0.00001594       0.00000578       0.00001592
H        7.55163437      11.35391577      -1.76578862      -0.00000671      -0.00002716      -0.00002623
H        5.49283890      12.89431482      -1.77627038       0.00001605       0.00000852       0.00001149
H        5.61535370      14.27204033      -0.70474713       0.00000026       0.00000975       0.00000030
H        9.82488414      14.33476771       4.30315238       0.00000766      -0.00001440       0.00000864
H       11.92516909      13.82461541       3.55059020      -0.00000053      -0.00000426      -0.00000101
H       12.05780780      15.23384538       2.52210251      -0.00001241      -0.00000579       0.00001161
H        9.99878660      16.77354736       2.55894845       0.00001006       0.00000102      -0.00000182
H        4.08253162      13.90684620       3.51406116      -0.00000519       0.00000766       0.00000483
C        7.23960736      13.08979519      -0.68975286      -0.00001199      -0.00000872       0.00000403
C       10.30068479      15.00612601       3.58539335      -0.00000243       0.00001002      -0.00000737
N        7.91749838      12.04383474      -1.10016539       0.00001346       0.00002886       0.00001168
N        6.03788985      13.42996335      -1.09536688      -0.00001594      -0.00004204      -0.00000870
N       11.50630099      14.67809641       3.18135454       0.00001850       0.00003000      -0.00001351
N        9.62662906      16.06402220       3.20002014      -0.00004184       0.00002196       0.00002952
Pb       9.13795642      10.28294784       3.14993780       0.00000041      -0.00000116      -0.00000273
Pb       5.21607541      10.24302425       3.07243337      -0.00000631       0.00000121       0.00001136
I       11.22054213      11.61495945       5.29047168       0.00000683      -0.00000517      -0.00000491
I        6.47312769      16.51340330       5.18897055       0.00000457       0.00000269      -0.00001015
I       11.05182184      11.53439811       0.90447185      -0.00000335      -0.00000313       0.00000106
I        6.30288832      16.42831997       1.10749917       0.00000160       0.00000598       0.00001324
I       10.39057783      15.28300587      -1.00243765       0.00000220      -0.00000294      -0.00000423
I        7.15318700      12.82375063       3.17670621      -0.00000361       0.00000294      -0.00000203
