96
Lattice="15.749909343890534 -0.3217894600846064 -0.08390420934376348 -0.356006254383955 15.33103360598972 0.17526173497098552 -0.01573711731668718 -0.021122846436837515 8.594141657555447" Properties=species:S:1:pos:R:3:forces:R:3 energy=-457.63416170697786 stress="0.0015790534187611093 -0.0007026670753016256 -0.00016348810034520897 -0.0007026670753016256 0.002043401501696971 0.00022053292680674765 -0.00016348810034520897 0.00022053292680674765 0.00218617791044875" free_energy=-457.63416170697786 pbc="T T T"
H        0.87169673       2.04708513       4.18871145      -0.00000849      -0.00002590      -0.00004435
H        1.96018939       0.15606362       3.42450438      -0.00004204       0.00000441      -0.00001353
H        0.68978955      -0.29014524       2.31168870      -0.00002029      -0.00002023      -0.00001967
H       -1.32652791       1.31876758       2.29080483      -0.00002685      -0.00001741      -0.00003140
H       -1.17882340       2.67096136       3.39706930       0.00001399      -0.00000952       0.00000240
H        2.96186191       2.82474104      -0.09435096       0.00000566       0.00001949      -0.00000702
H        1.85637980       4.75088038      -0.74499164       0.00003688      -0.00000893      -0.00003372
H        3.09170494       5.23336721      -1.88335067       0.00000234      -0.00000660      -0.00000485
H        5.09320901       3.61506275      -2.04329286       0.00001179      -0.00001013       0.00000299
H        4.97602740       2.22272460      -0.98565387       0.00001862      -0.00002751       0.00001692
C        0.40060699       1.43274568       3.41912733       0.00001296       0.00006136       0.00006022
C        3.40723411       3.46724801      -0.85626953       0.00000966      -0.00006296       0.00003576
N        1.05555205       0.37361065       3.00289191       0.00008135      -0.00002052       0.00003020
N       -0.77910522       1.82301265       2.99344410       0.00001270       0.00003226       0.00003054
N        2.74611615       4.54697826      -1.20320490      -0.00006773       0.00004264       0.00001898
N        4.56673257       3.08672834      -1.34290623      -0.00001687       0.00004520      -0.00003950
Pb       2.38926815      -1.34574674      -1.31179213      -0.00001886       0.00000635      -0.00000757
Pb      -1.55070884      -1.31784138      -1.33810687      -0.00000188       0.00000330      -0.00000157
I        4.49801380       0.04435476       0.79179632       0.00001467      -0.00000189       0.00000090
I       -0.48476377       5.09221554       0.76896190      -0.00000155      -0.00000461      -0.00000404
I        4.26777504      -0.21844674       4.95043670      -0.00000111      -0.00000839      -0.00000683
I       -0.66600872       4.83365967       5.19100017      -0.00001147       0.00000911       0.00000829
I        3.40233474       3.67206271       3.02000869       0.00000711       0.00001714       0.00000368
I        0.42042983       1.22552629      -1.30794779      -0.00001024       0.00000314       0.00000250
H       -0.93938850       9.85735854      -2.24828621      -0.00002221       0.00002341      -0.00002630
H        1.16759275      10.21815911      -1.38456467      -0.00000393      -0.00000077      -0.00002083
H        1.16954252       8.76967739      -0.42019155      -0.00001371      -0.00000038      -0.00001894
H       -0.95059565       7.35105413      -0.59013616      -0.00002200       0.00003215      -0.00002994
H       -2.18008075       7.97850667      -1.66750161      -0.00002063       0.00000470      -0.00000791
H        4.33859532      10.37367338       2.05704557       0.00000254       0.00000867       0.00001295
H        5.63706002      12.22123135       2.62735268      -0.00000581       0.00001204       0.00000084
H        4.43867375      12.86881867       3.72788829      -0.00001238      -0.00000593       0.00000160
H        2.29671963      11.50509800       3.93420268       0.00000270      -0.00002979      -0.00000639
H       10.10994084       9.90336908       2.92152236       0.00003233       0.00003930       0.00002021
C       -0.52918800       9.13339773      -1.53996033      -0.00001862      -0.00001510       0.00000493
C        3.96083133      11.10313674       2.77793980       0.00001483       0.00000871      -0.00002070
N        0.67416000       9.38199080      -1.07410264       0.00001846      -0.00004391       0.00005447
N       -1.26711892       8.09610762      -1.22201353       0.00006323      -0.00001821       0.00003012
N        4.72923119      12.12125424       3.08680777      -0.00000461       0.00001154       0.00002390
N        2.76158514      10.88265720       3.26820821      -0.00002193       0.00001557       0.00001606
Pb       1.42606458       6.24181485       3.08219035       0.00000602      -0.00000228      -0.00000248
Pb      -2.50541565       6.37595230       3.05635358      -0.00001082       0.00000038      -0.00000946
I        3.49813413       7.47833150       5.31920966      -0.00000535      -0.00000124      -0.00000139
I        0.11103526      12.53760936       5.31826409       0.00000238       0.00000654       0.00000306
I        3.31283701       7.69870442       0.94582851      -0.00000375      -0.00000946      -0.00000398
I       -0.02449629      12.73351839       1.10958317       0.00000688       0.00001043      -0.00000351
I        3.92297571      11.34713108      -1.16614192       0.00000564       0.00001061      -0.00000445
I       -0.45746280       8.88298807       3.10914304       0.00000523       0.00000986       0.00000323
H        8.74671940       1.88614410       4.14671360       0.00000178      -0.00000767      -0.00000919
H        6.69620691       2.51008124       3.35510968      -0.00000715       0.00001904       0.00000199
H        6.54845322       1.15790445       2.24882521       0.00001660       0.00001398       0.00002341
H        8.56473117      -0.45106110       2.26966856       0.00001806       0.00000849       0.00002870
H        9.83515614      -0.00488864       3.38247237      -0.00000115      -0.00001031       0.00000617
H       10.83666100       2.66392196      -0.13633633       0.00002712       0.00000653      -0.00003016
H       12.85094651       2.06195573      -1.02738994       0.00002175      -0.00002503      -0.00000416
H       12.96818927       3.45425338      -2.08508011       0.00000516      -0.00000392      -0.00001972
H       10.96658899       5.07247489      -1.92542564      -0.00000887       0.00000221       0.00000459
H        9.73116119       4.58997511      -0.78718172       0.00002070       0.00000519      -0.00000218
C        8.27560282       1.27182499       3.37713131       0.00004229       0.00001777       0.00003710
C       11.28208927       3.30641544      -0.89823405      -0.00003106      -0.00003996       0.00005653
N        7.09589575       1.66212700       2.95146754      -0.00005820      -0.00002225      -0.00003681
N        8.93051728       0.21267813       2.96087695      -0.00000374      -0.00002048      -0.00002869
N       12.44166014       2.92593071      -1.38472461      -0.00000715       0.00000862      -0.00000538
N       10.62095516       4.38609692      -1.24529082      -0.00002060       0.00001500       0.00000291
Pb      10.26421990      -1.50659052      -1.35378606       0.00001120      -0.00000489       0.00001063
Pb       6.32426039      -1.47883391      -1.38010901       0.00000939      -0.00000083       0.00000390
I       12.37291812      -0.11646853       0.74988088       0.00000304      -0.00000681      -0.00001480
I        7.39013512       4.93134750       0.72698383       0.00001003      -0.00000329      -0.00000166
I       12.14273000      -0.37918459       4.90853200       0.00000742       0.00000110       0.00000483
I        7.20895994       4.67276208       5.14902167      -0.00000584       0.00000966       0.00000072
I       11.27730664       3.51118456       2.97801070      -0.00000662       0.00001411       0.00001095
I        8.29529528       1.06462337      -1.34991896      -0.00001042      -0.00001498      -0.00001130
H        6.93564722       9.69653410      -2.29022218      -0.00000882      -0.00003161       0.00000560
H        5.69486289       7.81771522      -1.70949461       0.00000255      -0.00000699       0.00000231
H        6.92432544       7.19017798      -0.63215016      -0.00003155       0.00001008      -0.00001004
H        9.04452443       8.60869273      -0.46215819      -0.00001174      -0.00001631      -0.00000084
H        9.04265030      10.05719657      -1.42649118      -0.00000095       0.00003166      -0.00001870
H       12.21386842      10.21298668       2.01498778      -0.00001152      -0.00002360      -0.00000612
H       13.51194798      12.06068415       2.58559046      -0.00004376      -0.00000873       0.00002068
H       12.31337032      12.70798777       3.68608048      -0.00001543       0.00000914      -0.00000046
H       10.17157319      11.34384591       3.89202859       0.00003112      -0.00002947      -0.00002881
H        2.23468038      10.06454546       2.96385818       0.00001258      -0.00001687      -0.00001705
C        7.34581131       8.97252761      -1.58191878      -0.00001336       0.00004637      -0.00003885
C       11.83589503      10.94230908       2.73591181       0.00004995       0.00000619      -0.00001907
N        6.60783367       7.93526040      -1.26400802       0.00003505      -0.00001143       0.00003481
N        8.54916955       9.22104926      -1.11604937       0.00001060      -0.00003264       0.00001199
N       12.60409198      11.96052658       3.04495416       0.00002371      -0.00000693      -0.00000801
N       10.63663493      10.72155975       3.22602390      -0.00006504       0.00001527       0.00003040
Pb       9.30100491       6.08091724       3.04020206       0.00001170      -0.00000469      -0.00002205
Pb       5.36951365       6.21507669       3.01440122       0.00000552      -0.00001420      -0.00000345
I       11.37310096       7.31742444       5.27722526      -0.00000650       0.00002456       0.00001133
I        7.98609550      12.37669078       5.27624013      -0.00001263       0.00001061      -0.00000236
I       11.18780901       7.53782427       0.90387099       0.00000368      -0.00000187       0.00000407
I        7.85051308      12.57256561       1.06756234       0.00000649       0.00000297       0.00001188
I       11.79794847      11.18630541      -1.20813516      -0.00000340      -0.00000996      -0.00000520
I        7.41746615       8.72207538       3.06718397       0.00000317       0.00001055       0.00000515
