96
Lattice="16.057721877761537 -0.03248008982164975 0.2077055326249324 -0.10506363499096669 15.654718707672338 -0.022412621656424485 -0.05937681286195412 0.027264933300372964 8.908295841810233" Properties=species:S:1:pos:R:3:forces:R:3 energy=-457.3880038020592 stress="0.0037480756751902588 -5.18578437246149e-05 8.648728247645768e-06 -5.18578437246149e-05 0.0026768078287935904 4.546481278692843e-05 8.648728247645768e-06 4.546481278692843e-05 0.003210357042990307" free_energy=-457.3880038020592 pbc="T T T"
H       -0.53142326       7.81509179       5.38755393      -0.00001220       0.00002253       0.00002052
H       -0.72620569       8.42077373       3.15508607       0.00000913      -0.00004462       0.00000845
H       -0.46290630       6.80562318       2.56292666       0.00000318       0.00000102       0.00001912
H       -0.10760307       5.02763430       4.35852918       0.00000392       0.00003557       0.00003152
H       -0.12156396       5.62340303       6.00967002       0.00000749       0.00000251       0.00002201
H        3.43657709       8.16970286       0.99149576       0.00000063       0.00000710       0.00001043
H        3.64730165       7.55124406      -1.23586579      -0.00001394       0.00000266       0.00000479
H        3.38932690       9.16289298      -1.83922688       0.00001420      -0.00001282       0.00000498
H        3.02207403      10.95181507      -0.05612039      -0.00001136      -0.00000090      -0.00001029
H        3.02487357      10.36516607       1.59853977       0.00001570       0.00000945      -0.00000160
C       -0.42910249       7.04545941       4.61453651       0.00000912      -0.00003943      -0.00002490
C        3.34100328       8.93524260       0.21351499      -0.00001288       0.00000820       0.00004200
N       -0.56102079       7.43207879       3.36578378      -0.00001760       0.00006809      -0.00004441
N       -0.19121887       5.81596059       5.00967880       0.00000930      -0.00002792      -0.00003622
N        3.47948909       8.54090408      -1.03203621      -0.00000514      -0.00001173      -0.00003248
N        3.10312297      10.16744116       0.60016386       0.00000889      -0.00001129      -0.00001841
Pb       1.93127941       4.07259688       0.16451445       0.00001265      -0.00000328       0.00000314
Pb      -2.08268827       4.07960719       0.08405505      -0.00000245      -0.00000811       0.00000974
I        3.94569951       5.59081283       2.21616526      -0.00000038      -0.00000133      -0.00000114
I       -1.00631188      10.90106403       2.18401494       0.00000452       0.00000255      -0.00000154
I        3.90488971       5.09874165       6.70615807      -0.00000512       0.00000314       0.00000363
I       -1.09909949      10.39705247       6.60276788      -0.00000303       0.00000669      -0.00000309
I        2.96783769       9.35880774       4.27781412      -0.00000005      -0.00000018      -0.00000767
I       -0.06238578       6.61973426      -0.22106150      -0.00000274       0.00000525       0.00000451
H       -0.64815511      15.62439343      -0.72201858      -0.00001183      -0.00001829       0.00000506
H       -1.00648230      13.42093377      -1.33352346       0.00000433       0.00000314       0.00003122
H       -1.01968405      12.83459603       0.32128783       0.00000826      -0.00001128       0.00002668
H       -0.70899565      14.63075194       2.10867147      -0.00000268       0.00001890       0.00000599
H       -0.47788556      16.24731152       1.50764060       0.00000801       0.00003154      -0.00000008
H        3.43105488      16.01279509       3.79047165      -0.00000532       0.00001109      -0.00000426
H        3.24350499      15.39015249       6.01895477      -0.00000092       0.00000253      -0.00002760
H        3.46619664      17.00758602       6.62139101       0.00001396       0.00000515       0.00000006
H        3.78810262      18.80398139       4.83600541       0.00000827      -0.00002991      -0.00002229
H       11.81794089      18.20136648       3.28549147      -0.00000012       0.00001331      -0.00000972
C       -0.73844820      14.85719685       0.05499701      -0.00000476      -0.00001610      -0.00004187
C        3.51249034      16.78045487       4.56805825      -0.00000529      -0.00003286       0.00003354
N       -0.94694221      13.62053808      -0.33420003      -0.00000085       0.00002870      -0.00003754
N       -0.62326530      15.25443788       1.30216243       0.00000166      -0.00003389       0.00003322
N        3.39010262      16.38313008       5.81441861       0.00000001       0.00000285       0.00000489
N        3.71941204      18.01785084       4.18022919      -0.00000055       0.00001546       0.00002772
Pb       0.96626624      11.90871209       4.59883659      -0.00000847       0.00000237      -0.00000405
Pb      -3.04770205      11.91694425       4.51968239       0.00001044      -0.00000282       0.00000249
I        2.95173044      12.91293621       6.98748723       0.00000308       0.00000303       0.00000254
I       -0.18522179      18.23476317       6.97185179      -0.00000767       0.00000730       0.00000188
I        2.97445334      13.41866794       2.56656018       0.00000030      -0.00000292       0.00000157
I       -0.22058030      18.73217831       2.48190491       0.00000192      -0.00000107      -0.00000730
I        3.83057163      17.17954061       0.50152751       0.00000185      -0.00000025      -0.00000821
I       -1.04736217      14.45805553       4.89674758      -0.00000261      -0.00000419      -0.00000572
H        7.49749350       7.79878025       5.49146617      -0.00000239       0.00000445       0.00001580
H        7.30265408       8.40440144       3.25899068       0.00000312       0.00000328      -0.00000103
H        7.56605805       6.78925751       2.66686139      -0.00000142      -0.00000493       0.00000100
H        7.92150252       5.01133077       4.46250306      -0.00000480       0.00000634      -0.00000043
H        7.90751638       5.60713885       6.11363061      -0.00000655       0.00000639      -0.00000190
H       11.46553926       8.15354823       1.09537538      -0.00000372       0.00000487      -0.00000049
H       11.05401677      10.34908421       1.70230519       0.00000085       0.00001292       0.00003096
H       11.05116758      10.93562739       0.04761258      -0.00001370       0.00001067      -0.00000840
H       11.41821194       9.14657672      -1.73540685       0.00001933      -0.00002904       0.00003650
H       11.67610123       7.53494447      -1.13196686      -0.00000549       0.00001834       0.00001518
C        7.59986416       7.02913737       4.71846490       0.00000551      -0.00000826      -0.00000602
C       11.36997702       8.91904844       0.31735426      -0.00001989      -0.00000014      -0.00000588
N        7.46790106       7.41572197       3.46970573       0.00001072      -0.00000515      -0.00000283
N        7.83784950       5.79966667       5.11363330       0.00000031       0.00000685      -0.00000662
N       11.13221137      10.15128871       0.70394094       0.00001054      -0.00003525      -0.00004096
N       11.50835790       8.52462568      -0.92818292       0.00000027      -0.00000369      -0.00003167
Pb       9.96015191       4.05626857       0.26840674      -0.00000104       0.00000007       0.00000591
Pb       5.94617177       4.06330198       0.18798290      -0.00000468       0.00000353       0.00001062
I       11.97459355       5.57459084       2.31998258       0.00000044      -0.00000228       0.00000207
I        7.02253757      10.88469223       2.28792793      -0.00000286      -0.00000601      -0.00001138
I       11.93366502       5.08245932       6.80996119       0.00000816      -0.00000819       0.00000576
I        6.92979566      10.38075777       6.70663392       0.00000248      -0.00000233       0.00001144
I       10.99679744       9.34260256       4.38164892      -0.00000040      -0.00000076      -0.00000124
I        7.96650528       6.60341086      -0.11713658       0.00000125       0.00000189      -0.00000792
H        7.38060767      15.60797771      -0.61821821      -0.00000106       0.00000936      -0.00001088
H        7.55091759      16.23107599       1.61138852       0.00000931       0.00002023       0.00001011
H        7.31981161      14.61456801       2.21255609       0.00000323       0.00002676      -0.00002550
H        7.00912566      12.81826074       0.42531823      -0.00000481      -0.00003273       0.00002285
H        7.02229050      13.40445911      -1.22953706       0.00000974       0.00000064       0.00001297
H       11.46007590      15.99649724       3.89436601       0.00000871       0.00000454      -0.00001660
H       11.27248478      15.37399385       6.12287749       0.00000868       0.00003617      -0.00000755
H       11.49535422      16.99143773       6.72523008      -0.00000726       0.00000207       0.00000836
H       11.81739563      18.78770510       4.93973721      -0.00000881      -0.00001534      -0.00000276
H        3.78870011      18.21774515       3.18172739       0.00000254       0.00000423      -0.00001562
C        7.29033216      14.84084375       0.15885928       0.00000748       0.00001542       0.00001099
C       11.54160133      16.76419051       4.67190965      -0.00001216      -0.00000594       0.00000889
N        7.40553138      15.23818684       1.40599160      -0.00001670      -0.00005287       0.00001849
N        7.08184137      13.60415249      -0.23023432      -0.00000003       0.00002586      -0.00003744
N       11.41918053      16.36694809       5.91829178      -0.00001065      -0.00004705       0.00001263
N       11.74865503      18.00154181       4.28400850       0.00000017       0.00001160      -0.00000463
Pb       8.99512491      11.89244326       4.70268157       0.00000215       0.00000586      -0.00000332
Pb       4.98115567      11.90062104       4.62356146      -0.00000807       0.00000115      -0.00001089
I       10.98059733      12.89677514       7.09129746      -0.00000585      -0.00000390       0.00000464
I        7.84361358      18.21842804       7.07580304       0.00000316       0.00000562       0.00000199
I       11.00326345      13.40243787       2.67038256      -0.00000052       0.00000104      -0.00000151
I        7.80832193      18.71588882       2.58581618      -0.00000259       0.00000536      -0.00000302
I       11.85956192      17.16328344       0.60536681       0.00000448      -0.00000394       0.00000543
I        6.98144829      14.44173560       5.00060463      -0.00000004       0.00000734       0.00000259
