96
Lattice="15.925229166539184 -0.23202390980491416 -0.26460977298222915 -0.16415110210537898 15.444132977520944 0.19956836748595558 -0.04561383402671026 -0.06680231121817777 8.772952638022796" Properties=species:S:1:pos:R:3:forces:R:3 energy=-457.55038284043593 stress="0.002627633571187912 -0.00023648247737618425 3.985909609516066e-05 -0.00023648247737618425 0.0009244129107191986 0.00014851139374679663 3.985909609516066e-05 0.00014851139374679663 0.0007927148109455914" free_energy=-457.55038284043593 pbc="T T T"
H        2.43582625       2.48528179       8.08406539      -0.00000145       0.00001457       0.00000211
H        3.01047403       0.35372379       8.75107125      -0.00000702      -0.00003316       0.00001797
H        3.04221804      -0.28519624       7.10748033       0.00000782       0.00001007       0.00001919
H        2.54066857       1.40796195       5.28965185       0.00001501       0.00000415      -0.00000700
H        2.17147682       3.01958953       5.83576507      -0.00000765       0.00000165      -0.00000970
H        6.39847323       2.79887776       3.54364261      -0.00000414       0.00000617       0.00000353
H        6.71006905       2.21882581       1.31624209      -0.00000335      -0.00002303      -0.00001358
H        6.36482981       3.81717570       0.72288371       0.00000521       0.00000024       0.00000432
H        5.83555131       5.55745989       2.50704174       0.00000497       0.00000126      -0.00001004
H        5.82015791       4.95154727       4.15503785      -0.00000723       0.00000541      -0.00001967
C        2.57952818       1.70645041       7.32766219      -0.00002080       0.00002323      -0.00005075
C        6.27404043       3.56330037       2.76917068       0.00001620      -0.00001270      -0.00001617
N        2.91178200       0.50757812       7.74612130       0.00000895      -0.00001372      -0.00000273
N        2.40096590       2.04886069       6.07340593       0.00000816      -0.00000941       0.00006046
N        6.48650642       3.19598173       1.52651872       0.00000530       0.00003506       0.00001608
N        5.93482722       4.77037007       3.15709699       0.00000548      -0.00000112       0.00002902
Pb       5.01887928      -1.20538686       2.79973213      -0.00000091      -0.00000169      -0.00000411
Pb       1.03778375      -1.14570293       2.85753759      -0.00001589       0.00001313      -0.00001534
I        7.11972587       0.27979995       4.72910116       0.00000307      -0.00000853      -0.00000467
I        1.79894955       5.40134523       4.83347882       0.00000322      -0.00000016      -0.00000304
I        6.89591073      -0.28788572       9.08686597      -0.00000248       0.00000360      -0.00002348
I        1.90684428       5.10759959       9.27584138      -0.00000240      -0.00000599      -0.00000801
I        5.81264472       3.91820941       6.76708478      -0.00000232       0.00001644       0.00000203
I        3.05769216       1.38759382       2.51984213      -0.00000418      -0.00000616       0.00000115
H        2.23097931       8.11272697       4.00143512      -0.00001331       0.00001331      -0.00002237
H        2.07775018       7.53109610       1.75539110       0.00000940      -0.00002803      -0.00000587
H        2.29121607       9.16391878       1.19505854       0.00001270       0.00002405      -0.00002721
H        2.65311393      10.90770957       2.99753322       0.00000973      -0.00001487       0.00000263
H        2.58764998      10.30615996       4.65070258       0.00001883      -0.00001246      -0.00000608
H        6.46918039      10.48225332       6.39377400      -0.00000558      -0.00002340      -0.00002578
H        6.97637196      12.65112602       5.78108086      -0.00001704      -0.00001810      -0.00002667
H        6.92292759      13.26135841       7.42809933       0.00000963      -0.00003074      -0.00000840
H        6.41968616      11.51510124       9.20984997      -0.00000300      -0.00001433      -0.00000106
H       14.86074579      12.57356057       5.69914349       0.00001186       0.00000750      -0.00000640
C        2.33235348       8.89227347       3.24053214       0.00000475      -0.00003323       0.00003099
C        6.55500604      11.25375919       7.16698736       0.00001152       0.00006405       0.00000331
N        2.21888248       8.51937400       1.98655584      -0.00000229      -0.00001086       0.00003812
N        2.55164492      10.11943128       3.64890113      -0.00000731       0.00005831      -0.00001417
N        6.85966985      12.46976732       6.77894815      -0.00000821       0.00002987       0.00003012
N        6.33660357      10.88507967       8.40842071      -0.00001009      -0.00002005       0.00001350
Pb       3.87132116       6.51422779       7.09183399      -0.00000937       0.00001524       0.00000973
Pb      -0.08034268       6.60203689       7.17842274       0.00002485      -0.00000203      -0.00000255
I        5.89286968       7.44517274       9.47999273      -0.00001222       0.00001262       0.00001615
I        2.76174654      12.58772837       9.78082550      -0.00001725      -0.00002737      -0.00000575
I        5.87974646       7.98332609       5.05517686      -0.00000168       0.00000739      -0.00000429
I        2.91114168      13.31962108       5.41645008      -0.00000130       0.00000555      -0.00000177
I        6.82686394      11.66340498       3.18925019       0.00001475      -0.00001800       0.00000527
I        1.96212080       9.16668034       7.20471590      -0.00001085      -0.00003082      -0.00001173
H       10.46212918       2.34474741       7.87641477      -0.00000971       0.00001718       0.00002415
H       11.00691244       0.17704481       8.46681455      -0.00000590      -0.00000200      -0.00003254
H       11.03288275      -0.40104132       6.80913960       0.00000062      -0.00001224       0.00001768
H       10.56355264       1.37121328       5.04083822      -0.00001142      -0.00000088      -0.00001287
H       10.20720295       2.96123011       5.65043763      -0.00001642       0.00000547       0.00000521
H       14.37676531       2.69420765       3.47244202       0.00001625      -0.00001340      -0.00002644
H       14.75635397       2.13839406       1.25004321      -0.00000570       0.00000253       0.00000379
H       14.40828033       3.73835884       0.66163222      -0.00000783      -0.00000135       0.00000793
H       13.79976395       5.45238608       2.44304136      -0.00000458      -0.00000464      -0.00001694
H       13.75172289       4.83299319       4.08551224      -0.00000780      -0.00003559      -0.00000703
C       10.60176732       1.59203128       7.09274500      -0.00000444       0.00001121      -0.00005940
C       14.26229586       3.46381819       2.70141840      -0.00002397       0.00001782       0.00003726
N       10.91761115       0.37508176       7.46962819       0.00001457      -0.00001621       0.00000958
N       10.43268095       1.98205960       5.85087074      -0.00000145       0.00000368       0.00002585
N       14.51948210       3.11176384       1.46251051       0.00001563      -0.00000068      -0.00000575
N       13.88764862       4.66043001       3.08875795      -0.00000312       0.00001392       0.00000930
Pb      12.98651612      -1.32365578       2.60305591      -0.00000149      -0.00000156      -0.00000315
Pb       9.00340436      -1.25736425       2.60181763       0.00001420       0.00000531       0.00000883
I       15.01190858       0.16220513       4.64335837      -0.00000758      -0.00001051       0.00000316
I        9.82448539       5.38263090       4.70997192      -0.00000944       0.00001601      -0.00000526
I       14.95254823      -0.37272797       9.00191029      -0.00000168      -0.00000256       0.00000834
I        9.81497292       4.84899365       9.12270306       0.00000039      -0.00000986       0.00001651
I       13.85147326       3.81999491       6.70047736       0.00001568       0.00000210       0.00001522
I       11.03096568       1.26444404       2.30774890      -0.00000477      -0.00001251      -0.00000101
H       10.31530081      10.10561161       1.88234308      -0.00000398      -0.00001256       0.00002866
H        9.88556504       7.91791652       1.27076126      -0.00000644       0.00000410      -0.00000677
H        9.86502908       7.32641377       2.92353939      -0.00000839      -0.00002868       0.00005502
H       10.24511719       9.10847843       4.71137571       0.00000904      -0.00004025       0.00006987
H       10.52205299      10.71768091       4.11368062       0.00000835       0.00000379      -0.00000282
H       14.40737142      10.38911195       6.29736713      -0.00000229      -0.00000219      -0.00001925
H       14.15805131       9.77336528       8.52473468       0.00000855       0.00000873       0.00000325
H       14.43563480      11.38163919       9.12878009      -0.00000137      -0.00000307      -0.00000414
H       14.85417301      13.16105089       7.35463082      -0.00000081      -0.00002301      -0.00001386
H        6.14437452       9.90054360       8.61901767      -0.00001297       0.00002054       0.00001296
C       10.20758281       9.34037455       2.65908936       0.00004360       0.00004620      -0.00004984
C       14.50715462      11.15082948       7.07827211       0.00000596       0.00001014       0.00000155
N        9.95725650       8.11219623       2.27007971      -0.00000689       0.00002540      -0.00001720
N       10.34423724       9.73074333       3.90514678      -0.00002782      -0.00004062      -0.00007109
N       14.34115699      10.76102643       8.32115063      -0.00000220       0.00002151       0.00002822
N       14.77393441      12.37779075       6.69712723      -0.00001007       0.00001403       0.00002690
Pb      11.84967384       6.36202558       7.09515072      -0.00001879      -0.00000554      -0.00000920
Pb       7.86320478       6.41532353       7.08352716       0.00000558       0.00001947      -0.00000329
I       13.91340210       7.32610414       9.40546095       0.00002005       0.00000854       0.00000778
I       10.77072008      12.59176079       9.50995949       0.00001024       0.00000368       0.00001010
I       13.74192645       7.88349763       4.99022436       0.00001761       0.00000202      -0.00000921
I       10.83470658      13.12349930       5.16628753      -0.00000282       0.00001045      -0.00000584
I       14.78759445      11.54498104       3.10520749      -0.00000180       0.00000937       0.00000269
I        9.88714773       8.93627521       7.44285503       0.00001552       0.00000379      -0.00000414
