320
Lattice="25.35604571816249 0.10795692295292145 -0.12246096309117349 -0.12291574141731929 25.340465261739773 -0.37807161834238046 0.11014453896428754 0.37433634685041955 25.450783792682696" Properties=species:S:1:pos:R:3:forces:R:3 energy=-982.983168635177 stress="0.005668533210334131 -4.980342733965649e-06 0.0005516495458116592 -4.980342733965649e-06 0.005713592344952202 1.7251734988936738e-06 0.0005516495458116592 1.7251734988936738e-06 0.005990390732588306" free_energy=-982.983168635177 pbc="T T T"
Cs      18.33114299      12.02315901       2.72878647       0.00001550       0.00000650      -0.00000955
Cs      11.28505283       5.66890179       3.60290654      -0.00000592      -0.00000392       0.00000268
Cs      11.49407160       5.76429256      10.15076942      -0.00002606       0.00000802      -0.00000838
Cs      18.54003364      12.11858069       9.27659457       0.00000447      -0.00000326       0.00000347
Cs      17.65155784       5.78949348       9.93490992       0.00001098       0.00000879       0.00000453
Cs      12.01974827      12.08973024       9.12194542      -0.00000692      -0.00000127       0.00000558
Cs      12.17362712      11.99804805       2.94441108      -0.00000610      -0.00001366       0.00000045
Cs      17.80550719       5.69774324       3.75750379      -0.00001402       0.00000048      -0.00001313
Pb       8.60428789       2.53166150       6.56483713      -0.00001758      -0.00000861      -0.00000765
Pb      14.91253994       8.89377500       6.43967564      -0.00001527      -0.00000469      -0.00000826
Pb       8.57351960       8.86672746       6.47028636       0.00004438      -0.00001940      -0.00000141
Pb      14.94329262       2.55864068       6.53420821       0.00000619      -0.00001101      -0.00002020
Pb       8.57676587       2.43808348       0.20213405      -0.00000453       0.00000904      -0.00000640
Pb      14.88502914       8.80012908       0.07697811       0.00002245      -0.00000888       0.00001672
Pb       8.54602121       8.77309476       0.10765858      -0.00001638       0.00001850      -0.00001044
Pb      14.91576318       2.46510346       0.17153923       0.00001205      -0.00003080      -0.00001368
I        9.15018441       5.70818567       6.94268892       0.00000381       0.00001030      -0.00000142
I       15.34114447      12.07148550       6.93285656      -0.00001884       0.00001993       0.00002038
I       20.67495158      12.07932138       5.93687790       0.00000630      -0.00000010       0.00000432
I       14.48405250       5.71602518       5.94648816       0.00001665       0.00000939      -0.00000247
I       18.08687529       8.40421728       6.97848474       0.00003736      -0.00001346      -0.00000551
I       11.71200539      14.69600572       5.82134678       0.00003479       0.00000916       0.00000699
I       11.73819303       9.38335554       5.90087655      -0.00002333      -0.00000406       0.00000445
I       18.11308704       3.09142078       7.05804017      -0.00000028       0.00000873       0.00000574
I       21.65256217      12.00488624       0.53980361      -0.00000261      -0.00000719      -0.00001586
I       15.46174265       5.64160212       0.54934079      -0.00001710       0.00000275       0.00000244
I        8.17265080       5.78259792      12.33982838      -0.00000659       0.00000572      -0.00001794
I       14.36343504      12.14591865      12.33016082       0.00000830      -0.00000130      -0.00002015
I       11.77545678       8.47076574      13.37179479       0.00000858       0.00000022      -0.00000058
I       18.14007085       2.14638995      12.34261015      -0.00001544      -0.00001286      -0.00001374
I       18.15984492       9.69104474      24.95843319       0.00001907       0.00000772      -0.00000332
I       11.68511406      15.64096864       0.53686663       0.00000722       0.00002195       0.00000930
I        9.10122539      14.76250012       9.56153865      -0.00000114      -0.00000037       0.00001185
I       14.38712214       8.44979086       9.63099568       0.00000496       0.00000563       0.00002908
I       20.72393208       3.02489792       3.31787437      -0.00000108      -0.00000564      -0.00001962
I       15.43796686       9.33783490       3.24838202       0.00001308      -0.00001972       0.00000954
I        8.02051394       8.32888961       3.29890867       0.00000981       0.00002098       0.00003079
I       15.41267857      14.69603595       3.16825572      -0.00000389      -0.00001705       0.00000050
I       21.80449811       9.45839440       9.58054434       0.00000456      -0.00000897       0.00000160
I       14.41249892       3.09142639       9.71111510       0.00000582      -0.00000588       0.00001343
Cs      18.38620711      12.21039433      15.45412493       0.00002059      -0.00000884       0.00000911
Cs      11.33998006       5.85597910      16.32815785       0.00001550       0.00001787       0.00001280
Cs      11.54904913       5.95143977      22.87605376      -0.00000187       0.00000684      -0.00001092
Cs      18.59530676      12.30573110      22.00197649      -0.00001398      -0.00000208       0.00001269
Cs      17.70678551       5.97667815      22.66040525      -0.00000114      -0.00001484      -0.00000014
Cs      12.07469362      12.27705453      21.84738741       0.00001145      -0.00001659       0.00000524
Cs      12.22852036      12.18516724      15.66986954       0.00001235       0.00000293       0.00000968
Cs      17.86046653       5.88484308      16.48271102      -0.00001791       0.00000289      -0.00000689
Pb       8.65940444       2.71878362      19.29027427      -0.00001367      -0.00003661       0.00000303
Pb      14.96767011       9.08090483      19.16512088      -0.00003926      -0.00000197      -0.00000462
Pb       8.62867175       9.05395120      19.19576154      -0.00000009       0.00001517      -0.00001796
Pb      14.99837104       2.74585687      19.25961692      -0.00001185       0.00002376       0.00000296
Pb       8.63184034       2.62518487      12.92751041      -0.00001692      -0.00001549      -0.00001584
Pb      14.94010917       8.98738343      12.80242612      -0.00001152      -0.00000914      -0.00000308
Pb       8.60111375       8.96035986      12.83298172       0.00000787      -0.00001175      -0.00000266
Pb      14.97087919       2.65219431      12.89693148      -0.00001654       0.00000719       0.00002161
I        9.20520090       5.89536215      19.66796518      -0.00000116      -0.00000459      -0.00000090
I       15.39622321      12.25862424      19.65850755      -0.00001875      -0.00001111      -0.00001545
I       20.73007776      12.26642937      18.66216286       0.00000619      -0.00001536       0.00001908
I       14.53901338       5.90320512      18.67175104       0.00002724       0.00001219      -0.00000304
I       18.14201464       8.59122974      19.70380223       0.00002233       0.00000998       0.00001184
I       11.76710047      14.88319769      18.54682762      -0.00000995      -0.00000697      -0.00000070
I       11.79330653       9.57059154      18.62642096       0.00001177      -0.00001051       0.00000029
I       18.16817636       3.27866387      19.78341954       0.00003032      -0.00000336       0.00000112
I       21.70770248      12.19202340      13.26519870      -0.00003822       0.00000601      -0.00001020
I       15.51660415       5.82879948      13.27458062       0.00002103      -0.00003487       0.00001997
I        8.11743246       5.59541119      -0.38586177       0.00001169       0.00001872       0.00000783
I       14.30845940      11.95867818      -0.39536475       0.00000088       0.00001969       0.00001023
I       11.72037401       8.28348021       0.64634569      -0.00001467       0.00000563       0.00000894
I       18.19511238       2.33358904      25.06790025       0.00001116      -0.00002263      -0.00000095
I       18.10478989       9.50397560      12.23317794      -0.00001312      -0.00000314      -0.00002538
I       11.74017681      15.82835237      13.26223767       0.00003567      -0.00000388       0.00000005
I        9.15616170      14.94981372      22.28699544      -0.00000102      -0.00002062      -0.00002228
I       14.44227921       8.63674428      22.35641217      -0.00002053      -0.00000751      -0.00002982
I       20.77905786       3.21212719      16.04327920      -0.00000071       0.00000295      -0.00000628
I       15.49306192       9.52503140      15.97381925      -0.00000100      -0.00000645      -0.00001184
I        8.07570903       8.51640179      16.02431881      -0.00000221      -0.00000359      -0.00000215
I       15.46767717      14.88310849      15.89368004      -0.00000439       0.00000554      -0.00000211
I       21.85972088       9.64559016      22.30591231      -0.00003524      -0.00001002      -0.00001293
I       14.46755038       3.27866207      22.43651277       0.00001208       0.00000570      -0.00000404
Cs      18.26958009      24.69339130       2.53967737       0.00002080      -0.00000199       0.00001122
Cs      11.22352526      18.33908328       3.41376966      -0.00000321       0.00000745      -0.00000463
Cs      11.43261398      18.43458734       9.96160555      -0.00001781      -0.00000984      -0.00001325
Cs      18.47856914      24.78885675       9.08755432      -0.00000606      -0.00001317      -0.00000073
Cs      17.59026056      18.45965108       9.74600901       0.00000967       0.00001667      -0.00002349
Cs      11.95837313      24.76005822       8.93294718      -0.00000813      -0.00000202       0.00000241
Cs      12.11207227      24.66821386       2.75548243       0.00001502      -0.00000383      -0.00001247
Cs      17.74387221      18.36793641       3.56831819       0.00000672       0.00000369      -0.00001793
Pb       8.54281794      15.20184088       6.37576670      -0.00000384       0.00000963       0.00001383
Pb      14.85112788      21.56394696       6.25068102       0.00000474      -0.00001900      -0.00001564
Pb       8.51211278      21.53697313       6.28129226       0.00002162       0.00002254      -0.00000642
Pb      14.88181543      15.22887576       6.34515765       0.00000909       0.00001820       0.00000564
Pb       8.51528455      15.10824993       0.01314490       0.00002075      -0.00000449      -0.00001195
Pb      14.82360091      21.47037893      -0.11202735       0.00000279       0.00002524       0.00000942
Pb       8.48457997      21.44342953      -0.08137914      -0.00000506      -0.00001487      -0.00001336
Pb      14.85433089      15.13522011      -0.01755747       0.00001018       0.00000783       0.00000716
I        9.08867237      18.37839460       6.75356812      -0.00000399       0.00002264      -0.00001117
I       15.27970075      24.74169539       6.74373393      -0.00001891      -0.00000243       0.00003790
I       20.61340951      24.74948699       5.74780644       0.00001436      -0.00000130      -0.00000911
I       14.42248859      18.38624247       5.75742261       0.00000181      -0.00001765      -0.00000092
I       18.02546086      21.07426631       6.78944770       0.00002073      -0.00000205       0.00000604
I       11.77348012       2.02583283       6.01041399       0.00000873      -0.00000590       0.00000513
I       11.67678139      22.05351397       5.71192473      -0.00003446       0.00001610      -0.00000842
I       18.05162143      15.76180662       6.86892149      -0.00001385      -0.00002547       0.00000171
I       21.59107194      24.67506135       0.35087362       0.00001431       0.00001385      -0.00002052
I       15.40010294      18.31179036       0.36014178       0.00000797       0.00000796       0.00000828
I        8.11116554      18.45282863      12.15056173       0.00000172       0.00000621       0.00000008
I       14.30206436      24.81611906      12.14116783       0.00000614       0.00001074      -0.00001258
I       11.71402028      21.14091603      13.18274503       0.00000684       0.00000393       0.00000717
I       18.07858432      14.81660212      12.15355840      -0.00003092      -0.00001892      -0.00000887
I       18.09840542      22.36130807      24.76944150      -0.00000657      -0.00000171      -0.00002466
I       11.74656674       2.97092948       0.72589808      -0.00000252       0.00000828       0.00001241
I        9.16267833       2.09228328       9.75061546      -0.00000264       0.00000846      -0.00001408
I       14.32572072      21.12000564       9.44198028       0.00000218      -0.00000995       0.00001585
I       20.66250891      15.69522543       3.12881233      -0.00000008       0.00000349      -0.00001231
I       15.37656871      22.00788641       3.05937694       0.00000548       0.00001324      -0.00001468
I        7.95910590      20.99933101       3.10990478      -0.00000303      -0.00000901       0.00000427
I       15.47409177       2.02577885       3.35730491       0.00000324       0.00001357       0.00002055
I       21.74300887      22.12861175       9.39150893       0.00001529       0.00000260       0.00001374
I       14.35105118      15.76168972       9.52207781       0.00000561       0.00000595       0.00000022
Cs      18.32476141      24.88057183      15.26522792       0.00003983       0.00001277      -0.00002289
Cs      11.27870360      18.52628383      16.13924819      -0.00000382       0.00000861       0.00000249
Cs      11.48762363      18.62174604      22.68706516      -0.00000210      -0.00000800      -0.00000128
Cs      18.53364555      24.97597713      21.81289468      -0.00000026      -0.00000027       0.00001407
Cs      17.64521292      18.64681298      22.47123535      -0.00000035       0.00001739       0.00001503
Cs      12.01344161      24.94706426      21.65840552      -0.00001477       0.00001069       0.00000151
Cs      12.16710903      24.85536051      15.48082181       0.00001050       0.00001288       0.00002873
Cs      17.79901503      18.55514844      16.29378161       0.00000102      -0.00000622      -0.00000845
Pb       8.59787767      15.38906845      19.10116761      -0.00001402       0.00001562      -0.00000136
Pb      14.90619809      21.75114294      18.97604453      -0.00003667      -0.00000534       0.00002057
Pb       8.56715003      21.72416280      19.00668460       0.00000591      -0.00002657      -0.00002486
Pb      14.93692440      15.41596158      19.07058312       0.00000160       0.00000811       0.00000199
Pb       8.57039771      15.29547496      12.73841412       0.00002054       0.00002922       0.00001978
Pb      14.87867839      21.65755181      12.61338315      -0.00000722      -0.00001723      -0.00001637
Pb       8.53969563      21.63052744      12.64391415      -0.00002509      -0.00000649       0.00002947
Pb      14.90937022      15.32243330      12.70788818      -0.00002182       0.00002687       0.00000013
I        9.14381039      18.56560071      19.47896194      -0.00000378      -0.00000101      -0.00000333
I       15.33471950      24.92890238      19.46914883      -0.00000538      -0.00003687       0.00003060
I       20.66865820      24.93669282      18.47324603       0.00000833      -0.00000381      -0.00000018
I       14.47770459      18.57339000      18.48288636      -0.00000144       0.00002977      -0.00001226
I       18.08054867      21.26163293      19.51488435      -0.00002657      -0.00002244       0.00000189
I       11.82857015       2.21298169      18.73580602      -0.00000233      -0.00001859      -0.00000381
I       11.73182676      22.24069704      18.43731872       0.00003633       0.00001043      -0.00000551
I       18.10672381      15.94881249      19.59432525       0.00001394      -0.00001029       0.00000784
I       21.64625925      24.86231012      13.07619908      -0.00003706      -0.00001039       0.00000925
I       15.45529121      18.49899515      13.08562546      -0.00001533      -0.00001010       0.00000207
I        8.05616517      18.26566833      -0.57463388      -0.00001207       0.00000517       0.00000950
I       14.24705746      24.62897056      -0.58420789      -0.00000426      -0.00000702      -0.00000146
I       11.65894134      20.95386564       0.45735490      -0.00003110      -0.00000511       0.00000734
I       18.13369369      15.00374945      24.87892296      -0.00003148       0.00000070      -0.00000915
I       18.04331779      22.17419483      12.04406555       0.00001256       0.00000647      -0.00000819
I       11.80164985       3.15796602      13.45126745       0.00001242       0.00000607       0.00001845
I        9.21778204       2.27932779      22.47602149      -0.00001471       0.00003525       0.00001969
I       14.38074808      21.30716490      22.16736381      -0.00000224       0.00000564      -0.00002841
I       20.71751334      15.88239095      15.85423398       0.00000711      -0.00001902       0.00001234
I       15.43166301      22.19513723      15.78476444      -0.00000828       0.00000023       0.00002565
I        8.01422092      21.18658728      15.83524957       0.00000378      -0.00002707      -0.00000704
I       15.52923815       2.21299627      16.08271717      -0.00001467      -0.00001318      -0.00002786
I       21.79816885      22.31587310      22.11688955       0.00001857      -0.00000780       0.00002483
I       14.40613967      15.94895468      22.24745698      -0.00002740      -0.00000820       0.00002721
Cs       5.65304720      11.96919606       2.78989668       0.00001719      -0.00001040       0.00001386
Cs      23.96293644       5.72282557       3.54163326       0.00001493       0.00000018      -0.00000118
Cs      24.17190755       5.81830993      10.08940074      -0.00001237      -0.00000979       0.00001217
Cs       5.86210399      12.06465386       9.33774835       0.00000739      -0.00001270      -0.00000182
Cs       4.97362294       5.73549232       9.99617282       0.00000551      -0.00001466       0.00001550
Cs      24.69761894      12.14383599       9.06088485      -0.00000460      -0.00001262      -0.00000459
Cs      24.85158592      12.05195317       2.88336883       0.00000421       0.00000144      -0.00002788
Cs       5.12722128       5.64365910       3.81857891       0.00001669       0.00000319      -0.00000373
Pb      21.28228819       2.58554244       6.50365592      -0.00001395       0.00001507      -0.00000465
Pb       2.23452544       8.83974113       6.50100095      -0.00000161      -0.00000246      -0.00000679
Pb      21.25156548       8.92075607       6.40913179      -0.00002506      -0.00000313       0.00000220
Pb       2.26523877       2.50464981       6.59550691       0.00002550       0.00001465       0.00001648
Pb      21.25476980       2.49195444       0.14097395       0.00001187       0.00000693      -0.00001810
Pb       2.20698855       8.74621122       0.13824038      -0.00000466       0.00001434      -0.00000266
Pb      21.22406986       8.82716931       0.04640241      -0.00000199      -0.00000173       0.00002056
Pb       2.23774080       2.41102005       0.23274048      -0.00000928      -0.00000236       0.00002937
I       21.82802003       5.76214098       6.88136831       0.00000791       0.00002291       0.00000566
I        2.66295122      12.01746966       6.99431647       0.00002945      -0.00000657      -0.00001699
I        7.99696642      12.02528586       5.99793978      -0.00002011      -0.00000433       0.00001369
I        1.80590532       5.66202214       6.00774932       0.00001127       0.00000592      -0.00001951
I        5.40888454       8.35015347       7.03971815      -0.00000951       0.00000389      -0.00001115
I       24.39002189      14.74997566       5.76026116      -0.00001864       0.00000936      -0.00000924
I       24.41621109       9.43730686       5.83983542       0.00000618      -0.00000590      -0.00000373
I        5.43507215       3.03746694       7.11922622      -0.00002151      -0.00000258       0.00000236
I        8.97450282      11.95085437       0.60096647      -0.00000386      -0.00001508      -0.00000778
I        2.78347496       5.58761687       0.61038871       0.00000421       0.00000192       0.00000678
I       20.85054779       5.83658403      12.27855984       0.00002680       0.00000082      -0.00001969
I        1.68557550      12.09185636      12.39128275      -0.00000601       0.00003563       0.00001111
I       24.45351937       8.52469532      13.31053132      -0.00002183      -0.00002454       0.00002783
I        5.46204621       2.09234372      12.40365323      -0.00002055       0.00001563       0.00001329
I        5.48180072       9.63708741      25.01969382      -0.00001221      -0.00000157      -0.00000358
I       24.36314485      15.69520076       0.47569707       0.00001593      -0.00001980      -0.00002756
I       21.77906906      14.81659604       9.50043409       0.00001078      -0.00000953      -0.00001647
I        1.70911612       8.39559967       9.69227706      -0.00000018       0.00000160      -0.00000949
I        8.04595159       2.97106372       3.37903012      -0.00000522      -0.00000794      -0.00001345
I        2.75995699       9.28375026       3.30967685      -0.00000072       0.00001244      -0.00002498
I       20.69865061       8.38309893       3.23773670      -0.00001779       0.00001581      -0.00000156
I        2.73455992      14.64199486       3.22952814       0.00000719       0.00000303      -0.00002550
I        9.12654701       9.40439191       9.64168504      -0.00000091      -0.00000146      -0.00002245
I        1.73437762       3.03756417       9.77238145       0.00002560       0.00000713      -0.00000816
Cs       5.70833735      12.15633823      15.51529331       0.00000009       0.00001014       0.00000212
Cs      24.01805111       5.90999467      16.26707388       0.00003235       0.00000992       0.00000134
Cs      24.22719511       6.00539193      22.81501068      -0.00002228       0.00000756       0.00000452
Cs       5.91712036      12.25172098      22.06321942      -0.00000387       0.00001386      -0.00001283
Cs       5.02846610       5.92267691      22.72143865       0.00001262      -0.00000062       0.00002769
Cs      24.75284882      12.33095932      21.78606145       0.00000948      -0.00001233       0.00001548
Cs      24.90678824      12.23905733      15.60861390       0.00000821       0.00001822       0.00000865
Cs       5.18263607       5.83093382      16.54411221      -0.00001015       0.00000013      -0.00001728
Pb      21.33739381       2.77279508      19.22909151      -0.00001290      -0.00000944      -0.00001462
Pb       2.28964170       9.02695019      19.22627869       0.00000761       0.00002701       0.00001113
Pb      21.30667590       9.10786441      19.13451066       0.00001948      -0.00000698       0.00002577
Pb       2.32037734       2.69180239      19.32078077      -0.00000143      -0.00000017       0.00003089
Pb      21.30988768       2.67919987      12.86636435       0.00000439       0.00000525       0.00001659
Pb       2.26212972       8.93330104      12.86361765       0.00000343      -0.00000585       0.00002413
Pb      21.27915155       9.01430059      12.77186888       0.00000228      -0.00000408      -0.00004624
Pb       2.29286368       2.59826215      12.95813711      -0.00000604      -0.00000423      -0.00002692
I       21.88331395       5.94932315      19.60695920      -0.00000271       0.00001715      -0.00002055
I        2.71818327      12.20469934      19.71949969      -0.00000051      -0.00004588       0.00001418
I        8.05200033      12.21250549      18.72349819       0.00001106       0.00000557      -0.00000944
I        1.86116642       5.84921306      18.73306558      -0.00000635      -0.00000870      -0.00000018
I        5.46399520       8.53734683      19.76506762      -0.00001376       0.00001202       0.00000967
I       24.44511685      14.93714257      18.48551195      -0.00000014       0.00000087      -0.00001001
I       24.47134005       9.62446359      18.56509095      -0.00001348      -0.00000271      -0.00000608
I        5.49017366       3.22459683      19.84462646       0.00000395       0.00000698       0.00001272
I        9.02966787      12.13809271      13.32615557      -0.00002708      -0.00003249       0.00001479
I        2.83881451       5.77477646      13.33597622       0.00000331      -0.00002410      -0.00000497
I       20.79563902       5.64939264      -0.44673535       0.00000639       0.00000594      -0.00002496
I        1.63032281      11.90477675      -0.33401533       0.00001843      -0.00003008       0.00001303
I       24.39839337       8.33756557       0.58521334       0.00001726      -0.00000644       0.00000833
I        5.51710361       2.27958719      25.12917015      -0.00001967      -0.00000558      -0.00000807
I        5.42676878       9.44993878      12.29422577       0.00002007       0.00000568      -0.00001691
I       24.41819904      15.88217616      13.20109617       0.00001532       0.00000186       0.00001586
I       21.83427679      15.00361687      22.22578819       0.00000702       0.00000196       0.00001173
I        1.76414935       8.58296845      22.41761473       0.00001310      -0.00000084       0.00000890
I        8.10101160       3.15798283      16.10443296       0.00000260       0.00001207       0.00000146
I        2.81515962       9.47102136      16.03501577      -0.00001178      -0.00001193       0.00000150
I       20.75378789       8.57009088      15.96314059      -0.00003331       0.00001529       0.00002863
I        2.78977356      14.82905237      15.95486603       0.00000553       0.00000138      -0.00001157
I        9.18159339       9.59161910      22.36713353       0.00000634      -0.00000204      -0.00000619
I        1.78951802       3.22452886      22.49774526       0.00001437       0.00002309      -0.00004352
Cs       5.59165573      24.63950227       2.60087675      -0.00000351      -0.00001136       0.00001786
Cs      23.90154215      18.39314663       3.35265382       0.00002406      -0.00000227       0.00001146
Cs      24.11052287      18.48854573       9.90065341      -0.00000561      -0.00000959      -0.00001470
Cs       5.80070164      24.73472788       9.14871004      -0.00000342       0.00000648      -0.00000317
Cs       4.91200420      18.40563133       9.80714350      -0.00000221       0.00002041       0.00001036
Cs      24.63626300      24.81388297       8.87183005       0.00000020       0.00001591       0.00000422
Cs      24.79024823      24.72221374       2.69429582      -0.00002268       0.00000234      -0.00001891
Cs       5.06587264      18.31403264       3.62967102       0.00002978      -0.00001381      -0.00000530
Pb      21.22080918      15.25590446       6.31458396       0.00002076      -0.00000266       0.00001276
Pb       2.17309314      21.50998942       6.31194064      -0.00003107       0.00000749       0.00000018
Pb      21.19009498      21.59094256       6.22008407       0.00000557      -0.00002289      -0.00000134
Pb       2.20377831      15.17485450       6.40645911      -0.00000785      -0.00000517      -0.00000295
Pb      21.19336168      15.16226600      -0.04810902      -0.00000766       0.00000602       0.00002976
Pb       2.14558719      21.41636297      -0.05078521      -0.00000282       0.00001519       0.00000731
Pb      21.16260329      21.49736791      -0.14260017      -0.00001728      -0.00001539       0.00001943
Pb       2.17628687      15.08129835       0.04370457      -0.00004078       0.00000342      -0.00000036
I       21.76682971      18.43240795       6.69247035      -0.00002601      -0.00000100      -0.00000911
I        2.60158281      24.68772519       6.80518385      -0.00000139      -0.00000825      -0.00000171
I        7.93555379      24.69555391       5.80892888       0.00000429      -0.00001449       0.00001294
I        1.74454005      18.33225040       5.81874986       0.00000665       0.00002173      -0.00002197
I        5.34745048      21.02046790       6.85078518       0.00000433      -0.00002492      -0.00000400
I       24.45147247       2.07976714       5.94925522       0.00002055      -0.00001343      -0.00000024
I       24.35478204      22.10755479       5.65071663      -0.00001178       0.00000470       0.00000254
I        5.37361012      15.70764372       6.93020800      -0.00000307      -0.00000575       0.00000376
I        8.91304347      24.62115492       0.41190522       0.00001727      -0.00001117       0.00001255
I        2.72228564      18.25783635       0.42141643      -0.00002276      -0.00000585       0.00000395
I       20.78917425      18.50683120      12.08972324       0.00001620       0.00001350      -0.00001571
I        1.62414382      24.76213619      12.20231556       0.00000106       0.00005497      -0.00000214
I       24.39202843      21.19508761      13.12158580      -0.00002533      -0.00002284       0.00000567
I        5.40057590      14.76273953      12.21465748      -0.00003824      -0.00002867      -0.00000497
I        5.42036829      22.30731041      24.83064356       0.00001393       0.00001125      -0.00000891
I       24.42460055       3.02473783       0.66474113      -0.00001579       0.00001703       0.00001650
I       21.84065509       2.14623489       9.68945739      -0.00000282       0.00000541       0.00000711
I        1.64755878      21.06594452       9.50320707       0.00000693       0.00000325       0.00001185
I        7.98440963      15.64122467       3.19000886      -0.00000401       0.00001114      -0.00001042
I        2.69858560      21.95398073       3.12062735      -0.00000169       0.00000698      -0.00001729
I       20.63715742      21.05321489       3.04871072      -0.00000660      -0.00000563      -0.00001384
I        2.79608373       1.97186048       3.41857779       0.00000545      -0.00002181      -0.00000849
I        9.06522528      22.07469276       9.45264941      -0.00000826      -0.00000943      -0.00000055
I        1.67291201      15.70775713       9.58332494       0.00001561      -0.00000058       0.00003307