768
Lattice="25.174050839313317 -0.19840252234774794 -0.8535370643215315 0.2112671056599495 25.514165170482674 0.30247918474390545 -0.38081850885482543 -0.29549289235098614 25.18466404711818" Properties=species:S:1:pos:R:3:forces:R:3 energy=-3658.492188543255 stress="1.1006632538740909e-09 -7.056363767913258e-08 -6.917580453958282e-08 -7.056363767913258e-08 -5.68117769255272e-08 1.2450752583119015e-08 -6.917580453958282e-08 1.2450752583119015e-08 6.178573356311373e-08" free_energy=-3658.492188543255 pbc="T T T"
H        9.73410381      11.88624436       2.32396331      -0.00001195      -0.00001524       0.00000586
H        7.62920020       5.52826647       1.95911159      -0.00001293       0.00000921      -0.00000818
H        8.39607654       5.45756211       7.37672500       0.00000443       0.00002808      -0.00003019
H        8.77661858      11.80905984       9.49866512      -0.00000991       0.00001462      -0.00000790
H        8.47029839      11.63022175       4.25812840       0.00000189      -0.00000454      -0.00000408
H        8.88889988       5.29720150       0.01912887      -0.00002041       0.00000078       0.00000778
H        2.08159244      11.60605748      10.76758293       0.00000503      -0.00001267       0.00001498
H        6.97321619      10.37058394       9.25001411       0.00000929       0.00002582      -0.00000523
H        3.18750157       3.18467638       2.78514062      -0.00002045       0.00000525      -0.00001716
H        1.54941473       9.58884279       1.86863557       0.00000425       0.00002283       0.00001004
H        1.22045319      10.21451222      10.13970577       0.00000921      -0.00001114      -0.00001372
H        7.74786878       9.46532889       7.95126902      -0.00001257       0.00004374       0.00004156
H        0.89813871       3.91700872       3.40994237      -0.00000672      -0.00000295       0.00001992
H        3.85062044      10.29783756       1.26065221       0.00000238       0.00000257       0.00001093
H        1.78776973       9.51621855       7.82487446      -0.00001009      -0.00002449      -0.00001402
H        2.75875995       3.10960187       9.42117637      -0.00000526      -0.00000753      -0.00002088
H        9.45708901      10.45370372       0.51997354      -0.00001209       0.00001266       0.00001681
H        4.48942551      11.68859060       2.11502407      -0.00001090      -0.00000917      -0.00000477
H       10.17552184       3.98411546       7.59078955      -0.00003436      -0.00001808       0.00002025
H        1.49330304       4.02476522      10.23811065      -0.00001655      -0.00000275       0.00001174
C        8.99498975      11.08114760       2.38183567       0.00001717       0.00003613      -0.00003201
C        2.62535084      11.13049912       2.67271384      -0.00003669      -0.00005379      -0.00005655
C        2.60628016      11.05686866       8.89131983      -0.00000684       0.00000921       0.00003038
C        1.96605998       4.68829336       8.39149656      -0.00001178      -0.00002696       0.00005064
N        3.18144530       3.97677051       2.13716683       0.00004555      -0.00001605      -0.00001739
N        1.56845985      10.36523171       2.53510016       0.00004127       0.00000292      -0.00000753
N        1.93443350      10.93115102      10.01234805      -0.00000736       0.00001888       0.00002860
N        7.76685487      10.24164142       8.61782919      -0.00002074      -0.00007245      -0.00004700
N        1.02666774       4.64531373       2.70808014       0.00002878       0.00000720      -0.00002000
N        3.73404155      11.01141246       1.97952660       0.00002549       0.00002573       0.00001298
N        9.37975208       3.85327761       8.21990040      -0.00001855       0.00001179       0.00001874
N        2.10787042       3.89927140       9.43020981      -0.00000447       0.00001072      -0.00003380
Pb       5.37444944       1.20955619      11.65150990       0.00000745       0.00000872       0.00000412
Pb      24.25893607       1.06081889      11.00734367      -0.00000258       0.00000651      -0.00000131
Pb       5.43091905       7.66378921       5.34110115       0.00000061       0.00000458       0.00000068
Pb       5.47361911       1.28343824       5.35134403      -0.00001063       0.00000015       0.00001128
I        8.48967268       1.48593406      10.88336921       0.00002557       0.00000896       0.00000184
I        2.32824599      13.74530802      12.38765051       0.00000809      -0.00000747       0.00000397
I        2.29138230       1.60942368       4.80059127       0.00001051       0.00000110      -0.00000594
I        8.61134890       1.01246770       5.72684467       0.00000129      -0.00000351       0.00001040
I        5.61704443      10.78837157      11.45390661      -0.00001615       0.00001222      -0.00001125
I        4.95969780       4.25925535      24.49904043      -0.00000155      -0.00000996       0.00000763
I        5.71260003       4.48263740       5.13437053       0.00000385       0.00000508       0.00000165
I        5.24490906      10.86046197       5.63394057      -0.00000551      -0.00000149      -0.00000481
I        6.10574356      13.83308918       2.33952736       0.00000398       0.00000363      -0.00001414
I       23.73869737       1.47035564       1.54510061      -0.00000304       0.00000990      -0.00000763
I       24.78550418       0.85342452       7.84428744      -0.00000027       0.00000614       0.00001134
I        4.76292801       1.54531931       8.48143131       0.00000412      -0.00000005       0.00000492
H        2.19781407       5.58100846       1.29385106       0.00000126       0.00002292       0.00000517
H        2.57831993      11.93270312       3.41573112       0.00000754       0.00000484       0.00002994
H        3.34537375      11.86197899       8.83338972       0.00001014       0.00000592      -0.00001744
H        1.24038749       5.50394240       8.46854477       0.00002355      -0.00001674      -0.00000441
H        3.97725185       4.10758179       1.50809775      -0.00002833      -0.00000619       0.00000651
H        0.77484187      10.49428744       3.16728811      -0.00001679      -0.00000401      -0.00000093
H        6.48095628       5.21439803       8.67168789      -0.00001782       0.00003423       0.00000511
H        2.50009741       5.27276332       6.52858243      -0.00000817       0.00003782      -0.00003536
H        7.60912982      10.23873975       3.63014687      -0.00002110      -0.00004557      -0.00000493
H        9.72662430       3.87702563       0.61370489      -0.00001147      -0.00000145       0.00000946
H        7.09653917       3.79350254       9.49285639       0.00001728       0.00000318      -0.00002939
H        3.33794987       3.85272854       7.12331859      -0.00000905       0.00000806      -0.00000146
H        8.17645497       9.54058985       1.31527104       0.00002138       0.00001271      -0.00000015
H        9.14732255       3.13365725       2.91146144       0.00001249      -0.00002699       0.00001324
H        9.38584467       3.06115647       8.86784075      -0.00000957       0.00004095      -0.00004897
H       10.04904067      10.17454113       7.34339494      -0.00000162      -0.00001870      -0.00001915
H        0.28261046       5.33789140       2.58871617       0.00001992      -0.00000167      -0.00000205
H        7.88194834       4.04884653       3.72850010      -0.00002369      -0.00000519       0.00002192
H        3.06837902      10.42930862       7.02950014      -0.00003318      -0.00000224       0.00002204
H       10.68773778      11.56523463       8.19792287       0.00006042       0.00002389       0.00001402
C        2.13735958       4.76239987       2.01775905      -0.00004316      -0.00001000       0.00003122
C        8.35479167       4.71255512       1.88197268       0.00001504      -0.00002264      -0.00001385
C        8.33566537       4.63892529       8.10060359       0.00004423      -0.00007090       0.00003349
C        8.82369876      11.00695135       8.75554775       0.00002620       0.00000928       0.00000654
N        8.32312767      10.95537008       3.50284717       0.00004119       0.00004266       0.00001026
N        9.02466630       4.60225064       0.75814526      -0.00001406      -0.00000631       0.00001002
N        7.22502528       4.52182628       8.79100361       0.00000782      -0.00001852      -0.00000742
N        2.63592350       4.57790581       7.26767193      -0.00000537      -0.00002725       0.00002842
N        8.84035614      10.31934773       1.32479405      -0.00001763      -0.00004251      -0.00000229
N        8.49649771       3.92337902       2.92058161       0.00003971       0.00003094      -0.00004815
N        2.45165527      10.29498977       7.83433479       0.00004070       0.00002267      -0.00001896
N        9.93240645      10.88801342       8.06235995      -0.00007558       0.00000171       0.00001826
Pb      24.21622931       7.44117459      10.99711635       0.00000177      -0.00001179       0.00000251
Pb       5.33962060       7.58994285      11.63325142       0.00001385      -0.00000731       0.00000140
Pb      24.35022391       1.13466803       4.71519526      -0.00001489      -0.00000025       0.00000036
Pb      24.31541465       7.51503272       4.69693117      -0.00000989      -0.00000578      -0.00000461
I        2.22926655       7.89959532      12.40833293      -0.00000348       0.00000629       0.00000462
I        8.48749139       7.33032880      11.04270075       0.00001655      -0.00001176       0.00000393
I        8.61800559       7.92382852       5.89873331       0.00000729      -0.00000485       0.00001010
I        2.28920522       7.45373650       4.95986335       0.00000237      -0.00000015       0.00000372
I       24.49788490       4.26001629      10.79032392       0.00000491       0.00001638       0.00001439
I       23.83983753      10.49009867      23.88227666      -0.00000351      -0.00001669      -0.00000456
I       24.59271542      10.71347194       4.51763912       0.00000913       0.00000392      -0.00000433
I       24.12583781       4.33209683       4.97032768      -0.00000263       0.00000053      -0.00000379
I       11.28914946       7.41448621       1.98889798      -0.00000785      -0.00000138       0.00000667
I        6.14638443       7.98799104       2.21795855      -0.00000364       0.00000061       0.00001177
I        4.90041835       7.39013123       8.49845390       0.00000328       0.00000385      -0.00000828
I       24.93170886       7.76531554       7.87397948       0.00000464      -0.00000145      -0.00001821
H        9.54369456      11.73849791      14.91629533      -0.00001195      -0.00001524       0.00000586
H        7.43879095       5.38052002      14.55144361      -0.00001293       0.00000921      -0.00000818
H        8.20566729       5.30981566      19.96905702       0.00000443       0.00002808      -0.00003019
H        8.58620933      11.66131339      22.09099714      -0.00000991       0.00001462      -0.00000790
H        8.27988914      11.48247530      16.85046042       0.00000189      -0.00000455      -0.00000408
H        8.69849063       5.14945505      12.61146089      -0.00002041       0.00000078       0.00000778
H        1.89118319      11.45831103      23.35991495       0.00000503      -0.00001267       0.00001498
H        6.78280694      10.22283749      21.84234613       0.00000929       0.00002582      -0.00000523
H        2.99709232       3.03692993      15.37747264      -0.00002045       0.00000525      -0.00001716
H        1.35900548       9.44109634      14.46096759       0.00000425       0.00002283       0.00001004
H        1.03004394      10.06676577      22.73203779       0.00000921      -0.00001114      -0.00001372
H        7.55745953       9.31758244      20.54360104      -0.00001257       0.00004374       0.00004156
H        0.70772946       3.76926227      16.00227439      -0.00000672      -0.00000295       0.00001992
H        3.66021119      10.15009111      13.85298423       0.00000238       0.00000257       0.00001093
H        1.59736048       9.36847210      20.41720648      -0.00001009      -0.00002449      -0.00001402
H        2.56835070       2.96185542      22.01350839      -0.00000526      -0.00000753      -0.00002088
H        9.26667976      10.30595727      13.11230556      -0.00001209       0.00001266       0.00001681
H        4.29901626      11.54084415      14.70735609      -0.00001090      -0.00000917      -0.00000477
H        9.98511259       3.83636901      20.18312157      -0.00003436      -0.00001808       0.00002025
H        1.30289379       3.87701877      22.83044267      -0.00001655      -0.00000275       0.00001174
C        8.80458050      10.93340115      14.97416769       0.00001717       0.00003613      -0.00003201
C        2.43494159      10.98275267      15.26504586      -0.00003669      -0.00005379      -0.00005655
C        2.41587091      10.90912221      21.48365185      -0.00000685       0.00000921       0.00003039
C        1.77565073       4.54054691      20.98382858      -0.00001178      -0.00002695       0.00005064
N        2.99103605       3.82902406      14.72949885       0.00004555      -0.00001605      -0.00001739
N        1.37805060      10.21748526      15.12743218       0.00004126       0.00000292      -0.00000752
N        1.74402425      10.78340457      22.60468007      -0.00000736       0.00001888       0.00002859
N        7.57644562      10.09389497      21.21016121      -0.00002074      -0.00007245      -0.00004701
N        0.83625849       4.49756728      15.30041216       0.00002878       0.00000720      -0.00001999
N        3.54363230      10.86366601      14.57185862       0.00002549       0.00002573       0.00001298
N        9.18934283       3.70553116      20.81223242      -0.00001855       0.00001179       0.00001874
N        1.91746117       3.75152495      22.02254183      -0.00000448       0.00001072      -0.00003379
Pb       5.18404019       1.06180974      24.24384192       0.00000744       0.00000874       0.00000413
Pb      24.06852681       0.91307244      23.59967569      -0.00000256       0.00000652      -0.00000130
Pb       5.24050980       7.51604276      17.93343317       0.00000060       0.00000458       0.00000069
Pb       5.28320986       1.13569179      17.94367605      -0.00001063       0.00000015       0.00001128
I        8.29926343       1.33818761      23.47570123       0.00002555       0.00000896       0.00000184
I        2.13783674      13.59756157      24.97998253       0.00000809      -0.00000747       0.00000397
I        2.10097305       1.46167723      17.39292329       0.00001050       0.00000111      -0.00000594
I        8.42093965       0.86472125      18.31917669       0.00000129      -0.00000351       0.00001040
I        5.42663518      10.64062512      24.04623863      -0.00001615       0.00001223      -0.00001124
I        5.15010706       4.40700179      11.90670840      -0.00000156      -0.00000992       0.00000764
I        5.52219078       4.33489095      17.72670255       0.00000385       0.00000508       0.00000165
I        5.05449981      10.71271552      18.22627259      -0.00000551      -0.00000149      -0.00000481
I        5.91533431      13.68534273      14.93185938       0.00000398       0.00000363      -0.00001413
I       23.54828811       1.32260919      14.13743263      -0.00000303       0.00000990      -0.00000762
I       24.59509492       0.70567807      20.43661946      -0.00000026       0.00000615       0.00001135
I        4.57251876       1.39757286      21.07376333       0.00000412      -0.00000005       0.00000493
H        2.00740482       5.43326201      13.88618308       0.00000125       0.00002292       0.00000517
H        2.38791068      11.78495667      16.00806314       0.00000754       0.00000484       0.00002994
H        3.15496450      11.71423254      21.42572174       0.00001014       0.00000592      -0.00001744
H        1.04997824       5.35619595      21.06087679       0.00002355      -0.00001674      -0.00000441
H        3.78684260       3.95983534      14.10042977      -0.00002834      -0.00000619       0.00000651
H        0.58443262      10.34654099      15.75962013      -0.00001679      -0.00000401      -0.00000093
H        6.29054703       5.06665158      21.26401991      -0.00001782       0.00003423       0.00000511
H        2.30968816       5.12501687      19.12091445      -0.00000817       0.00003782      -0.00003536
H        7.41872057      10.09099330      16.22247889      -0.00002110      -0.00004557      -0.00000493
H        9.53621505       3.72927918      13.20603691      -0.00001147      -0.00000145       0.00000946
H        6.90612992       3.64575609      22.08518841       0.00001728       0.00000318      -0.00002939
H        3.14754062       3.70498209      19.71565061      -0.00000905       0.00000806      -0.00000147
H        7.98604572       9.39284340      13.90760306       0.00002138       0.00001271      -0.00000015
H        8.95691330       2.98591080      15.50379346       0.00001249      -0.00002699       0.00001324
H        9.19543542       2.91341002      21.46017277      -0.00000957       0.00004095      -0.00004897
H        9.85863142      10.02679468      19.93572696      -0.00000162      -0.00001870      -0.00001915
H        0.09220121       5.19014495      15.18104819       0.00001992      -0.00000167      -0.00000205
H        7.69153909       3.90110008      16.32083212      -0.00002370      -0.00000519       0.00002193
H        2.87796977      10.28156217      19.62183216      -0.00003318      -0.00000224       0.00002204
H       10.49732853      11.41748818      20.79025489       0.00006041       0.00002389       0.00001402
C        1.94695033       4.61465342      14.61009107      -0.00004316      -0.00001000       0.00003122
C        8.16438242       4.56480867      14.47430470       0.00001505      -0.00002264      -0.00001386
C        8.14525612       4.49117884      20.69293561       0.00004423      -0.00007090       0.00003349
C        8.63328951      10.85920490      21.34787977       0.00002620       0.00000928       0.00000654
N        8.13271842      10.80762363      16.09517919       0.00004119       0.00004266       0.00001026
N        8.83425705       4.45450419      13.35047728      -0.00001406      -0.00000630       0.00001002
N        7.03461603       4.37407983      21.38333563       0.00000782      -0.00001852      -0.00000742
N        2.44551425       4.43015936      19.86000395      -0.00000537      -0.00002725       0.00002842
N        8.64994689      10.17160128      13.91712607      -0.00001763      -0.00004251      -0.00000229
N        8.30608846       3.77563257      15.51291363       0.00003971       0.00003094      -0.00004815
N        2.26124602      10.14724332      20.42666681       0.00004070       0.00002266      -0.00001896
N        9.74199720      10.74026697      20.65469197      -0.00007558       0.00000171       0.00001826
Pb      24.02582005       7.29342814      23.58944837       0.00000180      -0.00001177       0.00000252
Pb       5.14921135       7.44219640      24.22558344       0.00001384      -0.00000730       0.00000141
Pb      24.15981465       0.98692158      17.30752728      -0.00001487      -0.00000023       0.00000035
Pb      24.12500539       7.36728627      17.28926319      -0.00000987      -0.00000578      -0.00000461
I        2.03885730       7.75184887      25.00066495      -0.00000349       0.00000630       0.00000462
I        8.29708214       7.18258235      23.63503277       0.00001655      -0.00001176       0.00000393
I        8.42759634       7.77608207      18.49106533       0.00000730      -0.00000485       0.00001010
I        2.09879597       7.30599005      17.55219537       0.00000236      -0.00000015       0.00000372
I       24.30747564       4.11226984      23.38265594       0.00000492       0.00001639       0.00001439
I       24.03024678      10.63784511      11.28994464      -0.00000350      -0.00001668      -0.00000456
I       24.40230616      10.56572549      17.10997114       0.00000914       0.00000394      -0.00000433
I       23.93542855       4.18435038      17.56265970      -0.00000262       0.00000054      -0.00000380
I       11.09874021       7.26673976      14.58123000      -0.00000785      -0.00000138       0.00000669
I        5.95597518       7.84024459      14.81029057      -0.00000364       0.00000061       0.00001178
I        4.71000910       7.24238478      21.09078592       0.00000328       0.00000385      -0.00000828
I       24.74129960       7.61756909      20.46631150       0.00000465      -0.00000145      -0.00001821
H        9.83973736      24.64332695       2.47520290      -0.00001195      -0.00001524       0.00000586
H        7.73483375      18.28534906       2.11035118      -0.00001293       0.00000921      -0.00000818
H        8.50171009      18.21464470       7.52796459       0.00000443       0.00002808      -0.00003019
H        8.88225213      24.56614243       9.64990471      -0.00000991       0.00001462      -0.00000790
H        8.57593194      24.38730434       4.40936799       0.00000189      -0.00000454      -0.00000408
H        8.99453343      18.05428409       0.17036846      -0.00002041       0.00000078       0.00000778
H        2.18722599      24.36314007      10.91882252       0.00000503      -0.00001267       0.00001499
H        7.07884974      23.12766653       9.40125370       0.00000929       0.00002582      -0.00000523
H        3.29313512      15.94175897       2.93638021      -0.00002045       0.00000525      -0.00001716
H        1.65504828      22.34592538       2.01987516       0.00000425       0.00002283       0.00001004
H        1.32608674      22.97159481      10.29094536       0.00000921      -0.00001113      -0.00001372
H        7.85350233      22.22241148       8.10250861      -0.00001257       0.00004374       0.00004156
H        1.00377226      16.67409131       3.56118196      -0.00000672      -0.00000295       0.00001992
H        3.95625399      23.05492015       1.41189180       0.00000238       0.00000257       0.00001094
H        1.89340328      22.27330114       7.97611405      -0.00001009      -0.00002449      -0.00001402
H        2.86439350      15.86668446       9.57241596      -0.00000526      -0.00000753      -0.00002088
H        9.56272256      23.21078631       0.67121313      -0.00001209       0.00001266       0.00001681
H        4.59505906      24.44567319       2.26626366      -0.00001089      -0.00000917      -0.00000477
H       10.28115539      16.74119805       7.74202914      -0.00003436      -0.00001808       0.00002025
H        1.59893659      16.78184781      10.38935024      -0.00001655      -0.00000275       0.00001174
C        9.10062330      23.83823019       2.53307526       0.00001717       0.00003613      -0.00003201
C        2.73098439      23.88758171       2.82395343      -0.00003669      -0.00005379      -0.00005655
C        2.71191371      23.81395125       9.04255942      -0.00000685       0.00000921       0.00003039
C        2.07169353      17.44537595       8.54273615      -0.00001178      -0.00002696       0.00005064
N        3.28707885      16.73385310       2.28840642       0.00004555      -0.00001606      -0.00001739
N        1.67409340      23.12231430       2.68633975       0.00004127       0.00000292      -0.00000753
N        2.04006705      23.68823361      10.16358764      -0.00000735       0.00001888       0.00002859
N        7.87248842      22.99872401       8.76906878      -0.00002075      -0.00007246      -0.00004701
N        1.13230129      17.40239632       2.85931973       0.00002879       0.00000720      -0.00002000
N        3.83967510      23.76849505       2.13076619       0.00002549       0.00002573       0.00001298
N        9.48538563      16.61036020       8.37113999      -0.00001855       0.00001179       0.00001874
N        2.21350397      16.65635399       9.58144940      -0.00000447       0.00001072      -0.00003380
Pb       5.48008299      13.96663878      11.80274949       0.00000745       0.00000871       0.00000413
Pb      24.36456962      13.81790147      11.15858326      -0.00000258       0.00000652      -0.00000131
Pb       5.53655260      20.42087180       5.49234074       0.00000061       0.00000458       0.00000069
Pb       5.57925266      14.04052083       5.50258362      -0.00001063       0.00000014       0.00001128
I        8.59530623      14.24301665      11.03460880       0.00002557       0.00000896       0.00000184
I        2.22261244       0.98822543      12.23641092       0.00000809      -0.00000747       0.00000396
I        2.39701585      14.36650627       4.95183086       0.00001051       0.00000110      -0.00000594
I        8.71698245      13.76955029       5.87808426       0.00000128      -0.00000351       0.00001040
I        5.72267798      23.54545416      11.60514620      -0.00001615       0.00001220      -0.00001125
I        5.06533135      17.01633793      24.65028002      -0.00000155      -0.00000992       0.00000764
I        5.81823358      17.23971999       5.28561012       0.00000385       0.00000507       0.00000165
I        5.35054261      23.61754456       5.78518016      -0.00000551      -0.00000151      -0.00000481
I        6.00011001       1.07600659       2.18828777       0.00000398       0.00000364      -0.00001416
I       23.84433092      14.22743822       1.69634020      -0.00000303       0.00000991      -0.00000763
I       24.89113773      13.61050710       7.99552703      -0.00000026       0.00000615       0.00001134
I        4.86856156      14.30240190       8.63267090       0.00000412      -0.00000005       0.00000492
H        2.30344762      18.33809105       1.44509065       0.00000126       0.00002292       0.00000517
H        2.68395348      24.68978571       3.56697071       0.00000754       0.00000484       0.00002994
H        3.45100730      24.61906158       8.98462931       0.00001014       0.00000592      -0.00001744
H        1.34602104      18.26102499       8.61978436       0.00002355      -0.00001674      -0.00000441
H        4.08288540      16.86466438       1.65933734      -0.00002833      -0.00000619       0.00000651
H        0.88047542      23.25137003       3.31852770      -0.00001680      -0.00000401      -0.00000093
H        6.58658983      17.97148062       8.82292748      -0.00001782       0.00003423       0.00000511
H        2.60573096      18.02984591       6.67982202      -0.00000817       0.00003782      -0.00003536
H        7.71476337      22.99582234       3.78138646      -0.00002110      -0.00004557      -0.00000493
H        9.83225785      16.63410822       0.76494448      -0.00001147      -0.00000145       0.00000946
H        7.20217272      16.55058513       9.64409598       0.00001728       0.00000318      -0.00002939
H        3.44358342      16.60981113       7.27455818      -0.00000905       0.00000806      -0.00000146
H        8.28208852      22.29767244       1.46651063       0.00002138       0.00001271      -0.00000015
H        9.25295610      15.89073984       3.06270103       0.00001249      -0.00002699       0.00001324
H        9.49147822      15.81823906       9.01908034      -0.00000957       0.00004095      -0.00004897
H       10.15467422      22.93162372       7.49463453      -0.00000162      -0.00001870      -0.00001915
H        0.38824401      18.09497399       2.73995576       0.00001991      -0.00000166      -0.00000205
H        7.98758189      16.80592912       3.87973969      -0.00002369      -0.00000519       0.00002192
H        3.17401257      23.18639121       7.18073973      -0.00003319      -0.00000224       0.00002204
H       10.79337133      24.32231722       8.34916246       0.00006042       0.00002389       0.00001402
C        2.24299313      17.51948246       2.16899864      -0.00004317      -0.00001000       0.00003122
C        8.46042522      17.46963771       2.03321227       0.00001505      -0.00002264      -0.00001386
C        8.44129892      17.39600788       8.25184318       0.00004423      -0.00007090       0.00003349
C        8.92933231      23.76403394       8.90678734       0.00002620       0.00000928       0.00000654
N        8.42876122      23.71245267       3.65408676       0.00004119       0.00004265       0.00001025
N        9.13029985      17.35933323       0.90938485      -0.00001406      -0.00000631       0.00001002
N        7.33065883      17.27890887       8.94224320       0.00000782      -0.00001852      -0.00000742
N        2.74155705      17.33498840       7.41891152      -0.00000536      -0.00002725       0.00002842
N        8.94598969      23.07643032       1.47603364      -0.00001764      -0.00004251      -0.00000229
N        8.60213126      16.68046161       3.07182120       0.00003971       0.00003094      -0.00004815
N        2.55728882      23.05207236       7.98557438       0.00004070       0.00002266      -0.00001896
N       10.03804000      23.64509601       8.21359954      -0.00007558       0.00000171       0.00001826
Pb      24.32186286      20.19825717      11.14835594       0.00000177      -0.00001177       0.00000251
Pb       5.44525415      20.34702544      11.78449101       0.00001385      -0.00000731       0.00000141
Pb      24.45585746      13.89175061       4.86643485      -0.00001489      -0.00000023       0.00000035
Pb      24.42104820      20.27211530       4.84817076      -0.00000990      -0.00000578      -0.00000461
I        2.33490010      20.65667791      12.55957252      -0.00000348       0.00000629       0.00000462
I        8.59312494      20.08741139      11.19394034       0.00001655      -0.00001177       0.00000394
I        8.72363914      20.68091111       6.04997290       0.00000729      -0.00000485       0.00001010
I        2.39483877      20.21081909       5.11110294       0.00000237      -0.00000015       0.00000372