96
Lattice="12.66975602432583 0.0070921666606906745 0.0011899944433019052 -0.019130799327599028 12.68979504197794 0.042607705760654736 -0.048343289341817815 -0.14592017574359897 12.669270624479012" Properties=species:S:1:pos:R:3:forces:R:3 energy=-418.7258557721489 stress="0.003799824915363775 -3.268630053428698e-05 -0.00011522687424301569 -3.268630053428698e-05 0.005699470493192934 0.0015097836151238293 -0.00011522687424301569 0.0015097836151238293 0.0056016977047733596" free_energy=-418.7258557721489 pbc="T T T"
I        4.83913025      -1.28900642       4.28113846      -0.00000327      -0.00000298       0.00000746
I        4.07808314      12.70385379      10.69761527      -0.00000104      -0.00000138      -0.00000305
I        4.80330673       8.89123512       8.18244359      -0.00000266      -0.00000721      -0.00000042
I        4.11398381       2.52358427       6.79631176      -0.00000327       0.00001136      -0.00000433
I       -1.54165881      12.70149646      10.69948548      -0.00000195       0.00000108      -0.00001097
I       10.45898080      -1.28673248       4.27929713       0.00000494       0.00000948       0.00000004
I       11.15318800       2.52843968       6.79274523      -0.00000834       0.00000681      -0.00000032
I       -2.23592139       8.88636769       8.18601666      -0.00000001      -0.00000281      -0.00000257
I        7.59339548      11.42475496      13.40972231       0.00000057       0.00001059       0.00000187
I        1.29012759       6.26197198       7.92500695       0.00000815       0.00000229       0.00000205
I        1.30193714      -1.06069559       6.90330382      -0.00000476      -0.00000965       0.00000803
I        7.61532730      12.47549769       8.07542350       0.00001474       0.00000492      -0.00001025
H        2.21226051       3.47887439       3.40846069       0.00001000       0.00001391      -0.00000071
H        6.73878290       1.66402906       5.21439241      -0.00002678      -0.00000786       0.00002049
H        7.62833317       9.40443252       5.87908281      -0.00000645       0.00000193       0.00000039
H        0.38517415       3.41729141       9.75206932      -0.00000492       0.00000012      -0.00000192
H        1.27187240      10.38776917      11.17662257       0.00001060      -0.00001953      -0.00000239
H        7.64533110       1.02715908       3.80204200       0.00000361      -0.00001524      -0.00001326
H        7.61377282       2.98664297      12.19239202      -0.00001014       0.00002231      -0.00001125
H        2.18235192       3.42310579       9.75394623      -0.00000250      -0.00000514       0.00000043
H        1.30572686       4.11576391       4.82081136      -0.00000726       0.00000453       0.00000217
H        8.53594395       1.65999419       5.22638465       0.00000366      -0.00000380       0.00000559
H        8.53210448       7.99741470       5.22653208      -0.00000339       0.00000581       0.00001184
H        1.28896258       2.01018534       9.09973401       0.00000106      -0.00000023       0.00000433
H        1.30470690       1.27493658       3.89181814      -0.00000828      -0.00001076       0.00000566
H        7.61257297      10.13966758      11.08710143      -0.00000270       0.00000436      -0.00000438
H        7.63385776       8.51279971       3.02649857      -0.00000653      -0.00001277      -0.00000006
H        2.14048874       7.99114112       5.00970477      -0.00000560       0.00000661      -0.00000902
H        0.46012119       1.88923244       5.22617200       0.00001710       0.00002192      -0.00000760
H        6.78031222       9.52947231       9.74361048       0.00001660      -0.00001138       0.00001341
H        8.46790543       9.84596717       3.65702446       0.00000690      -0.00000826      -0.00000452
H        0.46391580       7.98679970       5.00843737      -0.00000066       0.00000332      -0.00001707
H        2.13697015       1.88537255       5.23519615      -0.00000593      -0.00000302      -0.00000820
H        8.49086691       3.25369272       3.39665430       0.00002724       0.00001048      -0.00001040
H        6.79132944       9.84157326       3.65579279       0.00000883      -0.00000504      -0.00000527
H        1.29799325       9.32004419       5.63876845      -0.00000595      -0.00000684       0.00000421
C        1.27554679       9.64499697      10.37294032       0.00000145       0.00001661       0.00001885
C        7.64172623       1.76987611       4.60577422       0.00001181       0.00002802      -0.00002330
C        7.61704106       2.19267505      11.43924971      -0.00001220       0.00000100      -0.00000002
C        1.28564829       2.80420808       9.85281897       0.00000871      -0.00000680      -0.00000376
Pb       4.45861702       5.70741030       7.48939660      -0.00000137       0.00000122      -0.00000330
Pb       4.44906621      12.05230571       7.51069091      -0.00000189      -0.00000350      -0.00000076
Pb      -1.90998429      11.97579134      13.84474160      -0.00000092      -0.00000080      -0.00000872
Pb      -1.88580208      12.04875696       7.51010722      -0.00000533      -0.00000417      -0.00000473
N        1.30208104       2.01136554       4.62555384       0.00000965      -0.00000672      -0.00000203
N        7.61519549       9.40336519      10.35323569      -0.00002739      -0.00000452      -0.00003301
N        7.63105201       9.23694871       3.77235387       0.00000737      -0.00000778       0.00003875
N        1.30078980       8.59577296       4.89302806       0.00000311      -0.00000032       0.00000868
I        4.80538075       4.98286019      10.63708761       0.00000207       0.00000879       0.00000387
I        4.11182817       6.43186597       4.34167878      -0.00000490       0.00000921       0.00000248
I        4.78872612       2.47337412      14.49575342      -0.00001021       0.00000231       0.00001333
I        4.12863362       8.94144610       0.48292196       0.00000449      -0.00000691      -0.00000163
I       -1.50793131       6.42953110       4.34353538      -0.00000438       0.00000780      -0.00000520
I       10.42522569       4.98518194      10.63523304       0.00000716       0.00000507      -0.00000343
I       11.16770717       8.94628949       0.47933966       0.00000513       0.00000669       0.00000390
I       -2.25054049       2.46850394      14.49936752       0.00000444       0.00000080      -0.00000250
I        7.62712328       5.15290051       7.05380946       0.00000652      -0.00001429       0.00000076
I        1.30474516      12.67982394       1.61165377      -0.00000293      -0.00001557       0.00000215
I        1.26819256       5.21127395      13.25931515      -0.00000246      -0.00000345      -0.00000539
I        7.64905967       6.20363592       1.71946119       0.00000758      -0.00000961       0.00000220
H        0.38136952       9.75482285       9.75226184      -0.00001567      -0.00000134       0.00000587
H        8.50213625       7.93154389      11.58208759      -0.00000420       0.00000950      -0.00000320
H        8.51751591       1.57957816      11.53991043       0.00000954      -0.00000861       0.00000621
H        2.19700192       9.84084120       3.44047854       0.00000103       0.00000598      -0.00000090
H        0.41510050       3.48296559       3.39646041       0.00001039      -0.00002803       0.00002411
H        6.70497340       7.93559539      11.56999197       0.00000393       0.00001141       0.00000188
H        6.73492853       7.99159247       5.22471379      -0.00000174       0.00000627      -0.00000219
H        1.30355108       8.42793092       2.78632813       0.00000311       0.00000724       0.00002246
H        2.17852705       9.75082327       9.76437177       0.00001100       0.00000012       0.00000221
H        7.61160109       7.29900817      10.15756516      -0.00000266       0.00001344       0.00001927
H        6.72033881       1.57377554      11.53812627       0.00000692       0.00000630      -0.00001239
H        0.39982417       9.83509914       3.43861576      -0.00000386      -0.00000433       0.00000365
H        2.10323400       8.15740288      11.59115300       0.00000771       0.00000479       0.00000302
H        7.64629966       3.86799025       4.73102001      -0.00000046       0.00001935       0.00000066
H        6.77672493       3.42364377       9.96908377       0.00001154       0.00000379       0.00000360
H        1.28336899       2.90218679      11.95220670      -0.00000187      -0.00000962      -0.00000578
H        1.27096305       7.54687980      10.24782029       0.00000808      -0.00000259      -0.00000175
H        6.81402077       3.25753492       3.38765871      -0.00003094       0.00000458      -0.00001371
H        7.61924359       2.09483081       9.33986209       0.00000800      -0.00000462      -0.00001025
H        2.12588246       1.57331908      11.32309207       0.00000579       0.00000496      -0.00000700
H        0.42638147       8.16125080      11.58213905       0.00000039       0.00000226      -0.00000827
H        8.45715975       9.52559323       9.75264547      -0.00000595      -0.00000420      -0.00000242
H        8.45330129       3.42804009       9.97029226      -0.00000513      -0.00001334       0.00000483
H        0.44931051       1.56895478      11.32182284       0.00000055      -0.00000097      -0.00000089
C        1.30931149       3.37304962       4.01707592      -0.00000896       0.00000407      -0.00001246
C        7.60795461       8.04156283      10.96144948       0.00001082       0.00000739       0.00001023
C        7.63162483       8.61050918       5.12589318       0.00000689       0.00001819      -0.00002354
C        1.30027445       9.22198334       3.53938315      -0.00000414      -0.00001018      -0.00000686
Pb       4.42489987      11.97934335      13.84530481      -0.00000041       0.00000144      -0.00000256
Pb       4.43446818       5.63444885      13.82401570      -0.00000117       0.00000232      -0.00000172
Pb      -1.87623876       5.70385689       7.48879781       0.00000056       0.00000158       0.00000370
Pb      -1.90043092       5.63089772      13.82341708      -0.00000037       0.00000090      -0.00000145
N        1.26833846       8.28335356      10.98150941      -0.00001008      -0.00002019      -0.00001059
N        7.64892031       3.13155839       3.99728825      -0.00000484      -0.00004365       0.00003559
N        7.61645003       2.81902930      10.08567112      -0.00000465      -0.00000822       0.00002581
N        1.28617616       2.17794438      11.20643893      -0.00001627       0.00001304      -0.00000234
