40
Lattice="15.846733177794306 -0.011923764624060721 -0.10736316010884399 0.02040344971101764 14.335343288861951 -0.13755826274869856 0.0555714850283218 0.08461960950834511 8.48786390472391" Properties=species:S:1:pos:R:3:forces:R:3 energy=-123.4311955377544 stress="0.0006929599742860358 3.00290183172782e-05 1.9208078983881655e-06 3.00290183172782e-05 0.0024514824864169324 1.2505203628988137e-06 1.9208078983881655e-06 1.2505203628988137e-06 0.001505905377847842" free_energy=-123.4311955377544 pbc="T T T"
Cs       3.06257002       4.96908587       3.90840869       0.00001812       0.00000098       0.00000352
Cs       6.91688112       7.59275620       8.10154474       0.00000847      -0.00000567      -0.00000968
Cs       2.90650857      12.09289756      -0.40462372      -0.00000204       0.00001305       0.00000013
Cs       7.03794406      14.71964583       3.78918104      -0.00002062      -0.00000707      -0.00000595
Cs      10.98594576       4.96310552       3.85470459       0.00002577       0.00000651       0.00000901
Cs      14.84027494       7.58674911       8.04783713       0.00003281       0.00000173      -0.00000315
Cs      10.82986190      12.08693258      -0.45830165       0.00000513       0.00000784      -0.00000474
Cs      14.96124057      14.71364071       3.73542769      -0.00002842      -0.00000086       0.00001187
Pb       5.69075208      17.04882536       8.01949002       0.00000831      -0.00004734      -0.00000952
Pb       9.65254025      17.05336860       7.99264315       0.00000803      -0.00000254      -0.00000107
Pb       4.30921798       9.84836506       3.85289830      -0.00002382      -0.00000651       0.00000718
Pb       0.34742345       9.84377928       3.87973683      -0.00003510      -0.00004261       0.00001654
Pb      13.61410864      17.04282618       7.96574934       0.00000007      -0.00001681       0.00000569
Pb      17.57592389      17.04734252       7.93898208      -0.00006157       0.00001001      -0.00003165
Pb      12.23258008       9.84233323       3.79921612      -0.00001120      -0.00001670       0.00001822
Pb       8.27077799       9.83782809       3.82605642       0.00000814      -0.00000721       0.00000188
I        7.68005184       3.97090520       1.83668776      -0.00003303       0.00001116      -0.00000480
I        2.24395349       8.50624700       1.68542639      -0.00000731       0.00000433      -0.00000619
I        7.70622946       4.01226357       5.93581270      -0.00001099      -0.00000296       0.00000999
I        2.27332789       8.54960837       6.07416059       0.00000970      -0.00000174      -0.00000594
I        6.19821995       7.29080970       3.86450955       0.00002345      -0.00002725       0.00001620
I        3.78127347       5.27098289       8.14536244      -0.00001525       0.00004827      -0.00000312
I        6.23764943      11.18268344       6.02153665       0.00000598       0.00000623       0.00000064
I        3.76231966      15.71442139       5.85089002       0.00002481      -0.00000131      -0.00001069
I        6.20768047      11.13959681       1.63286141       0.00000004      -0.00000958       0.00002073
I        3.73672845      15.67298386       1.75168878       0.00001341      -0.00000198       0.00001094
I        7.75891060      14.49900253       8.03025895      -0.00000678       0.00000881      -0.00001752
I        2.24102393      12.39815614       3.84210830       0.00000608       0.00000752       0.00001185
I       15.60338129       3.96494833       1.78294431      -0.00001040      -0.00001712      -0.00001168
I       10.16727090       8.50032040       1.63170590       0.00001596      -0.00000469       0.00000201
I       15.62963789       4.00617734       5.88207686      -0.00000455       0.00000433       0.00001763
I       10.19666250       8.54356314       6.02044045      -0.00000495       0.00001498      -0.00001081
I       14.12162131       7.28478764       3.81090498       0.00001393       0.00002459      -0.00000333
I       11.70469038       5.26504075       8.09174615      -0.00002352       0.00001504      -0.00002606
I       14.16099158      11.17666542       5.96785460       0.00001181       0.00001875      -0.00001371
I       11.68560157      15.70849994       5.79714045       0.00005520       0.00002353       0.00000824
I       14.13104634      11.13355006       1.57917283      -0.00001288       0.00000017       0.00000209
I       11.66008345      15.66697732       1.69793658      -0.00000225      -0.00000141       0.00001029
I       15.68224217      14.49299333       7.97657975       0.00002717       0.00000985      -0.00000991
I       10.16444697      12.39217202       3.78847256      -0.00000774      -0.00001633       0.00000488
