96
Lattice="19.21466116164426 0.19746967647211247 -0.06773298957097384 -0.1330868923851897 10.94472390407819 -0.04758082894859005 0.010732935675742343 -0.0021614818601383852 9.516536374215098" Properties=species:S:1:pos:R:3:forces:R:3 energy=-419.3541996389349 stress="0.002521043702228435 -3.249002777814647e-05 -6.463143360264408e-05 -3.249002777814647e-05 0.0008986455433081323 -0.0002300978554511514 -6.463143360264408e-05 -0.0002300978554511514 0.0009378177589456445" free_energy=-419.3541996389349 pbc="T T T"
I       16.89750814       4.34018097       2.77131705       0.00000966       0.00001245      -0.00000037
I       17.47877011       8.07970410       0.36478155       0.00000016      -0.00000868       0.00000083
I        7.85223301       9.72222849       2.77850896       0.00000933       0.00000732      -0.00002112
I        7.30937645       2.50013148       0.42532222       0.00001145       0.00000082       0.00000673
I       15.22350595       0.89803695       0.41270439       0.00000556       0.00001364       0.00000681
I       -0.06187821      11.32439403       2.79111109      -0.00000655      -0.00000913      -0.00000931
I        9.60617396       6.31917320       0.41898748       0.00000108       0.00001796      -0.00000403
I        5.55546989       5.90312593       2.78487114      -0.00001444       0.00001583      -0.00000453
I        1.65051491       3.99982606       0.43704275      -0.00000830      -0.00000056       0.00000680
I       13.51111909       8.22260630       2.76675176       0.00000297      -0.00001751      -0.00000876
I        3.88942766       9.48773238       0.40080526       0.00001666      -0.00000255       0.00000117
I       11.27223174       2.73462225       2.80308333      -0.00001107       0.00000911      -0.00000266
H        3.07921806       1.62986224       2.81262396       0.00001358       0.00000288       0.00001026
H       12.08235355      10.59233413       0.39131146      -0.00002376      -0.00000996      -0.00001363
H        1.30417102       8.08358274       3.69623837      -0.00001848       0.00001549       0.00003104
H       13.85763494       4.13874643      -0.49246824      -0.00000676       0.00001888       0.00001028
H        4.26681097       2.63198354       3.71055143       0.00002398       0.00002278       0.00002016
H       10.88601770       9.59236592       1.28037315       0.00002253       0.00000936       0.00000268
H        2.51714586       7.10888355       2.80202763      -0.00002650      -0.00000716      -0.00000890
H       13.86489600       4.14701742       1.29456164       0.00002002      -0.00002723       0.00002439
H        4.27537860       2.63002261       1.92355210       0.00001300      -0.00001291      -0.00001034
H       10.89467145       9.59031402      -0.50662302       0.00001457       0.00000745      -0.00000971
H        1.29646607       8.07542121       1.90921158       0.00000633      -0.00001889       0.00000944
H       12.64446909       5.11353871       0.40139440       0.00001952      -0.00000981       0.00001320
H        4.90306371       0.26219324       3.65045591      -0.00000444       0.00000064       0.00002981
H       10.25872020      11.96021024      -0.44665513      -0.00001164       0.00000428       0.00001543
H        0.72810479       5.69819815       3.64366536       0.00001264       0.00002014       0.00000561
H       14.43368338       6.52416273      -0.43984964      -0.00000145      -0.00000787       0.00001356
H        6.03774790       1.19366372       2.82918662       0.00000281      -0.00000582       0.00001359
H       10.24997952      11.96078064       1.21026293       0.00000460      -0.00002487      -0.00004192
H        0.72103529       5.69214277       1.98683149      -0.00000545       0.00000220      -0.00000829
H       15.59099323       5.62459418       0.38622974       0.00001647      -0.00000564      -0.00000352
H        4.91169373       0.26165843       1.99354629      -0.00000733       0.00001628      -0.00001456
H        9.12387595      11.02889516       0.37455846      -0.00001991      -0.00002269      -0.00000977
H       -0.42936187       6.59773517       2.81778201       0.00000170       0.00001174       0.00000466
H       14.44049434       6.53022460       1.21698523      -0.00000482       0.00002080       0.00000196
C        4.10101558       2.02362221       2.81690239      -0.00002833      -0.00000842      -0.00003105
C       11.06050754      10.19870079       0.38700262      -0.00001785      -0.00000376       0.00002343
C        1.48573914       7.47667690       2.80471586       0.00001721      -0.00001242      -0.00003063
C       13.67586442       4.74571131       0.39897475      -0.00001781       0.00002871      -0.00002004
Pb      -1.00747752       2.32341290       0.45931001       0.00000773      -0.00000515       0.00000323
Pb      16.16911794       9.89902607       2.74450137      -0.00000588       0.00000501      -0.00000822
Pb       6.58441437       7.87086115       0.40338792       0.00000406       0.00000321      -0.00000703
Pb       8.57721886       4.35145928       2.80046750       0.00000962      -0.00001013       0.00000286
N        5.05446262       0.88338987       2.82255261       0.00000259      -0.00002320      -0.00002251
N       10.10719849      11.33904915       0.38125605       0.00001851      -0.00000657       0.00004635
N        0.56154467       6.31269834       2.81381767      -0.00000258       0.00000876       0.00001052
N       14.60009555       5.90966231       0.39002391      -0.00001196       0.00001177      -0.00002809
I       16.90290940       4.33912966       7.52960445      -0.00001338       0.00000139       0.00000088
I       17.48416178       8.07864062       5.12301019       0.00001048      -0.00001941      -0.00000128
I        7.85759229       9.72113596       7.53681215       0.00002168       0.00000945      -0.00000716
I        7.31477767       2.49901403       5.18358225      -0.00000366       0.00000813       0.00000459
I       15.22886899       0.89696590       5.17100190       0.00001184      -0.00001430       0.00000680
I       -0.05647348      11.32331979       7.54936065      -0.00000767       0.00000087       0.00000219
I        9.61156142       6.31810508       5.17725979       0.00000894       0.00000226      -0.00000156
I        5.56079874       5.90207843       7.54309446       0.00000367       0.00000762       0.00001963
I        1.65586009       3.99877732       5.19535632      -0.00001501      -0.00001538       0.00000837
I       13.51656186       8.22150030       7.52505704      -0.00001262      -0.00001062      -0.00000116
I        3.89482058       9.48663394       5.15904581      -0.00000324       0.00001040       0.00001020
I       11.27756293       2.73357380       7.56125417       0.00000630       0.00000971      -0.00000159
H        4.27234397       2.63104304       8.46862631      -0.00001054      -0.00000572       0.00001325
H       10.90005780       9.58912309       4.25172158      -0.00000289       0.00001404      -0.00001726
H        1.30948724       8.08257472       8.45451847       0.00000251      -0.00000053      -0.00000210
H       13.87070298       4.14593578       6.05295015      -0.00001008      -0.00000340      -0.00001234
H        4.28086373       2.62885955       6.68162781       0.00000480       0.00000235       0.00000268
H       12.08774172      10.59127359       5.14950244      -0.00001380      -0.00000062       0.00000149
H        2.52246574       7.10790534       7.56027587       0.00001024      -0.00001071      -0.00000029
H       12.64994108       5.11239057       5.16015626      -0.00002528       0.00000705       0.00000250
H        3.08465039       1.62889506       7.57085096       0.00000254       0.00001078       0.00001217
H       10.89154744       9.59128123       6.03871981      -0.00000574      -0.00001057       0.00001119
H        1.30173802       8.07441149       6.66749205       0.00000566      -0.00001657      -0.00001174
H       13.86291901       4.13770972       4.26592285      -0.00001755      -0.00000920      -0.00000482
H        4.91705447       0.26050896       6.75184618       0.00001272      -0.00000567      -0.00001948
H        9.12923639      11.02764025       5.13288413      -0.00001074      -0.00000373       0.00000693
H       -0.42402675       6.59668461       7.57608797      -0.00001191       0.00000564       0.00000435
H       15.59642525       5.62366054       5.14418318      -0.00000987      -0.00002091       0.00000011
H        4.90837818       0.26115049       8.40875872       0.00000143      -0.00000860       0.00000408
H       10.26400606      11.95902144       4.31164174       0.00000741       0.00000049      -0.00000893
H        0.73346467       5.69718880       8.40197412       0.00001615      -0.00000210      -0.00001476
H       14.44607174       6.52919861       5.97525353      -0.00000919       0.00000904      -0.00000164
H        6.04314898       1.19248600       7.58746358      -0.00000570      -0.00000307      -0.00001330
H       10.25529725      11.95961073       5.96855247       0.00001581       0.00000686      -0.00000595
H        0.72638248       5.69110428       6.74514198      -0.00000743       0.00001280      -0.00001261
H       14.43884628       6.52315173       4.31842012      -0.00000329       0.00001257      -0.00002699
C        4.10647560       2.02258264       7.57505728      -0.00000691       0.00000287      -0.00001749
C       11.06592122      10.19757325       5.14529846       0.00001054       0.00001388       0.00001117
C        1.49105109       7.47567275       7.56299096      -0.00000158       0.00000861       0.00001428
C       13.68136081       4.74463850       5.15743303       0.00002308      -0.00000297       0.00000555
Pb      -1.00212395       2.32233628       5.21760334       0.00001622       0.00000699      -0.00000006
Pb      16.17451763       9.89793965       7.50277057      -0.00000718       0.00000903       0.00000358
Pb       6.58981604       7.86979699       5.16163975      -0.00000861      -0.00000357       0.00000129
Pb       8.58254959       4.35039638       7.55871406      -0.00000451      -0.00001076       0.00000525
N        5.05984125       0.88228258       7.58081864      -0.00001936      -0.00000071       0.00001673
N       10.11253852      11.33785964       5.13955919      -0.00000489       0.00000074      -0.00001066
N        0.56688615       6.31167151       7.57211867       0.00001661      -0.00000943       0.00001866
N       14.60550660       5.90865434       5.14824936       0.00001095      -0.00001158       0.00000946
