96
Lattice="19.490378213903423 0.031232164439188814 0.17170622726321463 -0.018518510904606638 11.551157979331766 -0.07451720482640646 0.04786686799529844 -0.12317153475046723 9.20547095852402" Properties=species:S:1:pos:R:3:forces:R:3 energy=-458.0015383241407 stress="0.0019271677255171648 4.91442879228284e-05 -0.0003505974320777693 4.91442879228284e-05 0.0003843493002037244 -0.0005214805619735897 -0.0003505974320777693 -0.0005214805619735897 0.0016039005303750936" free_energy=-458.0015383241407 pbc="T T T"
H        4.47888582       0.74054028       2.06388405      -0.00000112       0.00000046       0.00000001
H        8.73580250      12.20697204       0.31464714       0.00000228      -0.00000612       0.00001216
H       -0.95872474       6.53191265       2.56014176       0.00000917       0.00000201      -0.00001562
H       14.17341110       6.41569890      -0.18143945       0.00000850      -0.00000141      -0.00000110
H        4.34046227       2.77847757       5.68628729       0.00000073       0.00000099      -0.00000921
H       10.38562135      12.96451901      -1.16175777       0.00001099       0.00000763       0.00000479
H       -0.83237602       8.56620039       8.15045460       0.00000399       0.00000844      -0.00000189
H       12.47638621       7.14456222       1.25462734       0.00000795       0.00000046       0.00001131
H        2.76796582       3.18857586       1.84440371      -0.00000527      -0.00000268       0.00001203
H       11.29599612      11.45952394      -1.03556935      -0.00000354       0.00000009      -0.00000863
H        0.73304185       8.94168317       7.43775129      -0.00001193      -0.00000103       0.00000734
H       11.58959984       5.62878475       1.10213450      -0.00000612       0.00000158       0.00000126
H        1.91881749       1.48807328       3.41429365       0.00000772      -0.00001529      -0.00000755
H       10.44680683       9.75900869       0.53430629      -0.00000274       0.00001685      -0.00001493
H        1.62503955       7.31874662       1.27642417       0.00000477       0.00000701      -0.00001185
H       12.50568415       3.94428936      -0.45644699       0.00000115       0.00000827      -0.00000102
H        2.82913104      -0.01696755       3.54039094       0.00000530       0.00000602       0.00000306
H        8.89816816      10.10750365       1.29507567       0.00000046       0.00000478       0.00001155
H        0.73820336       5.80299700       1.12396857       0.00000160      -0.00001656       0.00001716
H       14.09505955       4.25824634       3.43365370      -0.00001028      -0.00000159       0.00000222
C        3.61718207       1.37726768       2.28745108      -0.00000475      -0.00000678       0.00001467
C        9.59754841      11.57027472       0.09115467       0.00000094       0.00000983      -0.00000405
C       -0.10066096       7.18181233       2.35970890      -0.00000654      -0.00001109      -0.00000141
C       13.31535246       5.76577462       0.01893466       0.00000959       0.00000058       0.00000157
N        3.54970099       2.54963909       1.69613713      -0.00000121       0.00000840      -0.00000956
N       10.49203907      12.03024288      -0.75092875      -0.00000716      -0.00000749       0.00000776
N       -0.04642833       8.29390391       7.55368515       0.00000101      -0.00001394       0.00000731
N       12.38960152       6.21223204       0.83381895       0.00000325      -0.00000118      -0.00000340
N        2.72273338       0.91732391       3.12959262      -0.00000558       0.00001128      -0.00000507
N        9.66503244      10.39791620       0.68249401      -0.00000261      -0.00000484       0.00001590
N        0.82502798       6.73532691       1.54476884      -0.00000297       0.00000896       0.00000052
N       13.28513358       4.59210197      -0.57233039      -0.00000563      -0.00000940       0.00000025
Pb      -2.06019598       2.49394016      -0.16590527       0.00000752      -0.00000201      -0.00002075
Pb      15.27494841      10.45359905       2.54452764       0.00000114      -0.00000331       0.00000001
Pb       5.53542213       8.27537067       0.17061566       0.00000001       0.00000130       0.00000397
Pb       7.67928594       4.67219449       2.20799821      -0.00001047       0.00000338       0.00000266
I       -3.03937712       4.51288653       2.16352475      -0.00000374       0.00000733       0.00000386
I       -3.23621937       8.40344289       0.04337605      -0.00001311       0.00000057       0.00000317
I        6.55641217      10.28586288       2.48200535       0.00000341      -0.00000273       0.00000010
I        6.65830972       2.66171007      -0.10340597      -0.00000367       0.00000422       0.00000809
I       14.37304678       1.09146979       0.32094549      -0.00000058      -0.00000276       0.00000118
I       -1.15828271      11.85607903       2.05767892      -0.00001464      -0.00000049      -0.00000313
I        8.58900412       6.84789410      -0.04388874       0.00000559      -0.00001149       0.00001387
I        4.62569262       6.09968260       2.42248609      -0.00000464       0.00000932       0.00000761
I        0.76921238       3.81216801      -0.46372844       0.00001096       0.00000021      -0.00000282
I       12.44553501       9.13537309       2.84235406      -0.00000040       0.00000798      -0.00000154
I        2.70550426       9.59045080       0.46123537       0.00000367      -0.00001449      -0.00001595
I       10.50920075       3.35711410       1.91747714       0.00001180      -0.00000602      -0.00000203
H        4.50280784       0.67896419       6.66662834      -0.00000782       0.00000520       0.00001514
H        8.75978667      12.14543683       4.91743517      -0.00000989       0.00001090      -0.00000109
H       -0.93480694       6.47034483       7.16285332      -0.00001082      -0.00002186      -0.00000267
H       14.19740194       6.35409006       4.42129688       0.00001173       0.00001360      -0.00001263
H        4.31653753       2.84004002       1.08351614       0.00001775       0.00000257      -0.00000721
H        8.92206720      10.04595515       5.89785250       0.00000342      -0.00000053      -0.00000706
H       -0.85631299       8.62777017       3.54774876       0.00000109       0.00000179      -0.00000477
H       12.50041720       7.08296719       5.85741104       0.00000426      -0.00000805      -0.00001713
H        2.79189084       3.12700369       6.44718549       0.00001202       0.00000335      -0.00000312
H       10.47068942       9.69740564       5.13707060      -0.00000244      -0.00000879       0.00000826
H        0.70907658       9.00328746       2.83500380       0.00000391      -0.00000676       0.00002074
H       11.61361280       5.56719989       5.70492744      -0.00002189      -0.00000053      -0.00000156
H        1.94273407       1.42647964       8.01703920       0.00000390       0.00000761      -0.00000124
H       11.31994698      11.39788485       3.56720977      -0.00000612       0.00001400      -0.00001140
H        1.64899795       7.25711852       5.87918191      -0.00001046       0.00000133       0.00000246
H       12.52964400       3.88269851       4.14632355      -0.00000396       0.00001321      -0.00001542
H        2.85305586      -0.07855383       8.14313504       0.00000316      -0.00001238      -0.00000580
H       10.40963520      12.90291955       3.44102514      -0.00001050       0.00000182       0.00000078
H        0.76214479       5.74137799       5.72673695      -0.00000410       0.00002272       0.00000010
H       14.07111727       4.31984464      -1.16907144       0.00000206       0.00000268      -0.00001118
C        3.64110477       1.31569018       6.89020381       0.00001761      -0.00000317      -0.00000707
C        9.62150516      11.50870579       4.69393586       0.00000881       0.00002683      -0.00000543
C       -0.07672614       7.12022547       6.96243623      -0.00000444       0.00003290       0.00001220
C       13.33934008       5.70417600       4.62168728       0.00000150      -0.00000273       0.00001096
N        3.57362555       2.48806922       6.29890478      -0.00001506       0.00000393       0.00000017
N        9.68894114      10.33634177       5.28526921       0.00002312      -0.00001670      -0.00001289
N       -0.07037148       8.35548697       2.95096501      -0.00000769       0.00000792       0.00000127
N       12.41361602       6.15063945       5.43659928       0.00000610      -0.00000289       0.00001110
N        2.74665427       0.85573749       7.73233813      -0.00000872      -0.00000392      -0.00000479
N       10.51601624      11.96863986       3.85185515      -0.00001341      -0.00001897       0.00000586
N        0.84897104       6.67371649       6.14751921       0.00003517      -0.00001774      -0.00001886
N       13.30909246       4.53050771       4.03041508      -0.00001656      -0.00000004       0.00000446
Pb      -2.03624286       2.43235636       4.43681480      -0.00000956      -0.00000048       0.00001797
Pb      15.29888297      10.39203016       7.14726010       0.00000859      -0.00000055       0.00000610
Pb       5.55935474       8.21378264       4.77334120       0.00000507       0.00000479       0.00000235
Pb       7.70319804       4.61063469       6.81072909       0.00000930      -0.00001444       0.00000288
I       -3.01545047       4.45129144       6.76626246      -0.00000033      -0.00000143       0.00000445
I       -3.21228932       8.34185204       4.64613004      -0.00000900       0.00000620      -0.00001000
I        6.58032341      10.22428496       7.08474311      -0.00000524      -0.00001277       0.00000276
I        6.68222580       2.60012987       4.49934204       0.00000223      -0.00000304      -0.00000014
I       14.39698404       1.02988503       4.92366915       0.00001031      -0.00000310      -0.00000547
I       -1.13435716      11.79450046       6.66041300      -0.00000075       0.00000424       0.00000061
I        8.61294627       6.78630574       4.55884501       0.00000383      -0.00000316       0.00000325
I        4.64961255       6.03811135       7.02522474      -0.00000719      -0.00000431       0.00000582
I        0.79316622       3.75057740       4.13899738      -0.00000620       0.00000496       0.00000229
I       12.46946862       9.07381840       7.44508762      -0.00000772      -0.00001122      -0.00000428
I        2.72943775       9.52885261       5.06395690       0.00000442      -0.00000692      -0.00000699
I       10.53312369       3.29555799       6.52020029       0.00000567      -0.00000129       0.00000234
