40
Lattice="18.350140593173727 0.10102903773968264 0.48013774549292526 -0.05695950928626976 10.723750209214506 0.2135374257703139 -0.26364299085045256 -0.18999327703011418 9.800884195924978" Properties=species:S:1:pos:R:3:forces:R:3 energy=-124.00143662243947 stress="0.0053196476100275895 1.9322504048740767e-05 -2.995377035070241e-05 1.9322504048740767e-05 0.005026077524901103 2.4611285181839453e-05 -2.995377035070241e-05 2.4611285181839453e-05 0.0054564781152993" free_energy=-124.00143662243947 pbc="T T T"
Cs       1.66971091       3.64741722       3.50729540      -0.00001956       0.00001013       0.00002900
Cs       8.04728583      12.79329834       1.40304176       0.00000752       0.00000566       0.00001765
Cs      -1.17363945       8.99392831       3.53955825       0.00000889       0.00000117      -0.00000557
Cs      10.89059188       7.44686184       1.37085550      -0.00000150      -0.00001601      -0.00001893
Cs       1.53785544       3.55247006       8.40777679      -0.00000238      -0.00001083      -0.00001093
Cs       7.91549433      12.69830880       6.30352497      -0.00001826       0.00000899      -0.00001620
Cs      -1.30545920       8.89891306       8.43999357       0.00000656      -0.00000046       0.00000333
Cs      10.75872878       7.35180994       6.27126026       0.00002350       0.00001497       0.00000967
Pb      -3.16618431       4.56854704       0.94657399      -0.00001619       0.00001924      -0.00001925
Pb      12.88317263      11.87221456       3.96380492       0.00001696      -0.00001264      -0.00001750
Pb       3.78325475       9.96912052       1.23563857      -0.00000517       0.00000280      -0.00000276
Pb       5.93366272       6.47161495       3.67478336       0.00000932       0.00000770       0.00001140
Pb      -3.29800886       4.47358167       5.84699399       0.00001149       0.00000043       0.00002401
Pb      12.75136527      11.77721378       8.86422917      -0.00000565      -0.00002014       0.00001165
Pb       3.65145192       9.87420077       6.13608878       0.00000625      -0.00004557      -0.00000992
Pb       5.80185735       6.37662082       8.57521066      -0.00001510       0.00002434      -0.00001343
I       -4.34789535       6.38021585       3.40351922       0.00000774      -0.00001463       0.00001558
I       -4.28528126       9.95953938       1.02669194       0.00000458      -0.00000209       0.00000004
I        4.81306891      11.79182980       3.75148667       0.00001642       0.00001033       0.00000898
I        4.90388829       4.64894730       1.15888175      -0.00001419      -0.00000436       0.00000272
I       12.10497670       3.23301032       1.31541434      -0.00000540      -0.00000051       0.00000753
I       -2.38799491      13.20775205       3.59493606       0.00001171      -0.00000765       0.00001566
I        6.87878051       8.56485319       1.28828696       0.00000526       0.00000242       0.00000169
I        2.83815282       7.87591376       3.62216964       0.00000950      -0.00000355      -0.00001168
I       -0.38262667       5.99186194       1.04762802       0.00000039       0.00001783      -0.00000137
I       10.09963052      10.44888331       3.86277353      -0.00004166       0.00000251      -0.00000325
I        0.98379947      11.36283425       1.19056083       0.00000668      -0.00000709      -0.00000327
I        8.73311959       5.07789750       3.71983395       0.00000501       0.00001223      -0.00001296
I       -4.47970514       6.28520221       8.30398111      -0.00000114       0.00000293      -0.00000972
I       -4.41710901       9.86450931       5.92712050      -0.00000449       0.00002664       0.00001692
I        4.68125313      11.69683434       8.65201082       0.00000023       0.00001027      -0.00001654
I        4.77206116       4.55391609       6.05933128       0.00001227       0.00001010      -0.00000037
I       11.97316578       3.13802116       6.21586431      -0.00002623       0.00000973       0.00000886
I       -2.51981163      13.11276923       8.49538259      -0.00000003      -0.00001310      -0.00002872
I        6.74696071       8.46988471       6.18872993       0.00000093      -0.00002895      -0.00000974
I        2.70632591       7.78091986       8.52252332       0.00002390      -0.00001190       0.00001912
I       -0.51444958       5.89688691       5.94803031      -0.00000221      -0.00000849       0.00000714
I        9.96780967      10.35387901       8.76319830      -0.00000421       0.00000642       0.00000523
I        0.85198043      11.26785572       6.09101268      -0.00000725       0.00001808       0.00000313
I        8.60132641       4.98294707       8.62028852      -0.00000449      -0.00001697      -0.00000721
