768
Lattice="31.499382453530327 -0.22572629977263156 0.31614791972064205 0.14246004703112958 29.784771078059237 0.6444902123790458 0.29946191669146544 -0.22987099178593717 17.071157384917306" Properties=species:S:1:pos:R:3:forces:R:3 energy=-3353.2279738586963 stress="0.0012156273984105237 -7.247390632874461e-05 -3.06777704211199e-05 -7.247390632874461e-05 0.002141055689994282 0.00018349775652530957 -3.06777704211199e-05 0.00018349775652530957 0.0014327657074882367" free_energy=-3353.2279738586963 pbc="T T T"
I        4.32277476      29.23313257       4.43275713      -0.00000079      -0.00000308      -0.00000244
I        1.93612900       4.32792875       3.00043358       0.00000114      -0.00000110       0.00000301
I        4.39569621      -0.40073586       7.97570362      -0.00000084       0.00000249      -0.00000257
I        1.87042211       4.06204875       7.34855671       0.00000372       0.00000743      -0.00000103
I        5.87505396       2.99518819       5.14690110      -0.00000984       0.00000067       0.00000059
I        0.39108772       0.66611384      10.17737479      -0.00000068      -0.00000081       0.00000216
H        1.29923057       0.08694677       6.90533445       0.00000017      -0.00001012      -0.00000806
H        6.56077514       2.98249495       8.99500041      -0.00000434       0.00000172       0.00000286
H       -0.29472421       0.67884411       6.32912899      -0.00000786       0.00000011       0.00000624
H        4.96677536       3.57451842       8.41904110       0.00000524      -0.00000316       0.00000415
H        0.52363414      -0.67648854       5.47743359      -0.00000080       0.00000875       0.00000926
H        6.41115594       3.09747962       0.45958482      -0.00000119      -0.00001014      -0.00000798
H        0.80721301       1.43966089       4.28468783       0.00000508       0.00000332       0.00001076
H        3.99368799       2.80362435      10.51540195      -0.00000003      -0.00000002      -0.00000561
H        2.27250201       0.85765092       4.80895759       0.00001470      -0.00000361      -0.00000385
H        5.45901356       2.22156030      11.03951757      -0.00000598       0.00000167      -0.00000073
H        1.53924712       2.13759233       5.63468486       0.00000106      -0.00000635      -0.00001179
H        4.72687268       1.52373017       9.68953420      -0.00000275       0.00000452      -0.00000211
C        0.67003861       0.25908605       6.02733505       0.00001273      -0.00001643      -0.00000978
C        5.44638585       3.51721692       0.76138507      -0.00000483       0.00000824       0.00000144
Pb       2.50199693      13.01706203      10.36634703      -0.00000171       0.00000360      -0.00000292
Pb      30.06466872      12.74546589      10.64338612      -0.00000160       0.00000344      -0.00000107
N        1.36044537       1.23808939       5.13752356      -0.00001717       0.00002352       0.00000748
N        4.90571749       2.42319951      10.18674193       0.00000083      -0.00000703       0.00000580
I        5.82978798       7.00967131       7.44464780      -0.00000788      -0.00000037      -0.00000149
I        0.50757689      11.54406237       8.20186304      -0.00000216      -0.00000185      -0.00000887
I        5.88669400       6.90772067       3.09333309      -0.00000788      -0.00000058       0.00000589
I        0.30093522      11.76091716       4.01760640      -0.00000308       0.00000652       0.00000593
I        4.21552374      10.51542511       1.89449015      -0.00000498      -0.00000607       0.00000377
I        1.97212767       8.15323432       5.21645871       0.00000073       0.00000140       0.00000229
H        1.67183313       6.83116934       1.29913961      -0.00000201      -0.00000270       0.00000511
H        4.51581056      11.83750681       5.81174870      -0.00000059      -0.00000296       0.00000114
H        2.65307644       8.10039101       9.04517207      -0.00001097      -0.00000221       0.00001434
H        3.68423178      10.45330844       6.60125287      -0.00000074      -0.00000009      -0.00000131
H        1.82162122       6.71623580       9.83488335      -0.00000042      -0.00001080       0.00000431
H        5.29054306      10.99284385       7.19393061       0.00000336      -0.00000369       0.00000191
H        0.69395405       9.66277055       1.28958969      -0.00001144       0.00000736      -0.00000708
H        5.49367749       9.00590065       5.82138147       0.00000163       0.00000406      -0.00000965
H        0.10062394       8.23952431      10.59505471      -0.00001130      -0.00000777       0.00000070
H        6.23677838      10.31423506       5.05151961      -0.00000147       0.00000677       0.00000398
H       -0.04914210       8.35441414       2.05941670      -0.00000492      -0.00000343       0.00000881
H        4.75879616       9.77741319       4.51366265      -0.00000374      -0.00000600      -0.00000039
C        1.68449133       7.67999687       9.33336313       0.00000429       0.00002574      -0.00001431
C        4.65285860      10.87368950       6.31318424       0.00000669       0.00001076      -0.00000761
Pb       3.83536248       5.53666474       5.28016646      -0.00000399      -0.00000230       0.00000326
Pb       7.77206202       5.58252629       5.31927360       0.00000066      -0.00000119      -0.00000116
N        0.86554249       8.73801668       1.74089526       0.00002647      -0.00001851      -0.00000499
N        5.32209211       9.93064364       5.37005088      -0.00000008       0.00000073       0.00000768
I       12.19760638      29.17671481       4.51180353       0.00000080       0.00000676      -0.00000693
I        9.81097923       4.27147311       3.07948207       0.00000341      -0.00000269      -0.00000347
I       12.41297262      29.32759662       8.69925545       0.00000699      -0.00000423      -0.00000874
I        9.74527199       4.00564576       7.42761429      -0.00000403       0.00000806      -0.00000378
I       13.74988689       2.93878876       5.22594490      -0.00000381       0.00000135       0.00000553
I        8.26593565       0.60969818      10.25643573       0.00000494       0.00000199      -0.00000278
H        8.39847247      -0.73289130       5.55636645      -0.00000634       0.00000400       0.00000689
H       12.84159213       3.51811464       8.49811791       0.00000423      -0.00000364       0.00000472
H        9.17421289       0.03036935       6.98427691       0.00000443       0.00000080       0.00001118
H       13.61747168       4.28128664       9.92600129      -0.00001010      -0.00000312      -0.00000836
H        7.58021640       0.62236630       6.40828053       0.00001049       0.00000372      -0.00000455
H       12.69194245       3.63298615      -0.03751460       0.00000687       0.00000325       0.00001231
H        9.41412658       2.08116651       5.71381061       0.00000091       0.00000144      -0.00000415
H       11.86850237       2.74720095      10.59445545       0.00001566       0.00000237      -0.00000736
H        8.68201188       1.38334972       4.36380585       0.00000142      -0.00000220      -0.00001118
H       13.33381220       2.16508074      11.11855769      -0.00001071       0.00000300      -0.00001374
H       10.14733356       0.80128918       4.88793583      -0.00000632       0.00000193       0.00000688
H       12.60164259       1.46729123       9.76856907       0.00001113       0.00001333       0.00000866
C        8.54494428       0.20262138       6.10635509      -0.00001291      -0.00000297      -0.00001641
C       13.32117663       3.46078612       0.84044295       0.00000089       0.00000358       0.00000246
Pb      10.37684608      12.96062036      10.44539645      -0.00000449      -0.00000302      -0.00000059
Pb       6.44014021      12.91477422      10.40626546       0.00000956       0.00000141       0.00000360
N        9.23529619       1.18170285       5.21658669       0.00001105      -0.00000311       0.00000790
N       12.78051884       2.36674964      10.26578765      -0.00001146      -0.00003245       0.00002647
I       13.70460243       6.95325920       7.52369581       0.00000176      -0.00000768      -0.00000907
I        8.38243457      11.48762089       8.28091003      -0.00000900      -0.00000452      -0.00000605
I       13.76153750       6.85132310       3.17238703      -0.00000435      -0.00000829      -0.00000529
I        8.17577476      11.70450712       4.09663444       0.00000234       0.00000053       0.00000305
I       12.09035339      10.45899413       1.97354164       0.00000349      -0.00000549       0.00000020
I        9.84694519       8.09681546       5.29546018       0.00000772       0.00000275       0.00001313
H       10.37830060       8.15886719       0.58878767      -0.00000109       0.00000960      -0.00000308
H       13.16530136      10.93633312       7.27304791       0.00000248      -0.00000067      -0.00000738
H       10.52797934       8.04398931       9.12426369      -0.00000759       0.00000144      -0.00000035
H       12.39072649      11.78112978       5.89085735      -0.00000677      -0.00000334       0.00000303
H        9.69644290       6.65978274       9.91379695      -0.00000066      -0.00000604       0.00000198
H       11.55899901      10.39694035       6.68021745       0.00000045      -0.00000699       0.00000957
H        7.82569042       8.29797168       2.13841131      -0.00002010      -0.00000328       0.00000126
H       12.63364072       9.72104972       4.59269396       0.00000359      -0.00000357      -0.00000224
H        8.71851709       9.49136843       9.90415343       0.00000637       0.00000063       0.00000416
H       13.36846945       8.94948131       5.90041177       0.00000061       0.00000522      -0.00000371
H        9.30366150       8.83477008       2.67631862      -0.00000785      -0.00000013      -0.00001152
H       14.11161862      10.25782218       5.13061100      -0.00000140      -0.00000087      -0.00000181
C        9.55936591       7.62359150       9.41235358      -0.00000727      -0.00000052      -0.00000915
C       12.52767541      10.81727413       6.39224617       0.00000271       0.00000692      -0.00001071
Pb      11.71020009       5.48025345       5.35920830       0.00000287      -0.00000512      -0.00000180
Pb      15.64689963       5.52612290       5.39832218       0.00000064      -0.00000643       0.00000944
N        8.74038825       8.68155832       1.81991038       0.00003613       0.00001559       0.00000316
N       13.19691517       9.87424095       5.44910456       0.00000111       0.00000787       0.00000431
I        4.47243650      29.11820643      12.96831275      -0.00000196       0.00000004       0.00000020
I        2.08588068       4.21295373      11.53602974       0.00001003      -0.00000686       0.00000132
I        4.54547713      -0.51567078      16.51129934      -0.00000002       0.00000251      -0.00000603
I        2.02018412       3.94714556      15.88417270       0.00000323       0.00000224      -0.00000342
I        6.02479629       2.88026152      13.68249257      -0.00001664       0.00000022      -0.00000233
I        0.24138186       0.78108234       1.64177625       0.00000629       0.00000176       0.00000066
H        1.44913522      -0.02823218      15.44075575      -0.00000118       0.00000640       0.00000402
H        4.81719911       3.68938277      -0.11661275      -0.00000067      -0.00000294       0.00000692
H       -0.14486861       0.56386250      14.86487790       0.00001061      -0.00000173      -0.00000395
H        5.59277772       4.45277479       1.31131788      -0.00000156      -0.00000665       0.00000192
H        0.67329685      -0.79136717      14.01283273      -0.00000067      -0.00000436       0.00000104
H        5.74256892       4.33777591       9.84692505       0.00000042       0.00000022       0.00000078
H        0.95686905       1.32491681      12.82038592       0.00000403      -0.00000168      -0.00000449
H        4.57719030       1.63868737       1.15397239      -0.00000196      -0.00000206       0.00000506
H        2.42219681       0.74280871      13.34444994      -0.00000530       0.00000159       0.00000352
H        3.84391834       2.91860026       1.97972989       0.00000115       0.00000029      -0.00000639
H        1.68902610       2.02265861      14.17040367       0.00000146      -0.00000281      -0.00000720
H        5.30920705       2.33658780       2.50399410       0.00000321      -0.00000487      -0.00000790
C        0.81982932       0.14410324      14.56287666      -0.00001347       0.00000317       0.00000089
C        5.59606391       3.40226158       9.29694840       0.00000118       0.00000266       0.00000009
Pb       2.35226889      13.13198852       1.83077804       0.00000855      -0.00000435       0.00000285
Pb      29.91495346      12.86040854       2.10782467       0.00000277       0.00000384      -0.00000336
N        1.51017281       1.12321994      13.67314116       0.00000963      -0.00000207      -0.00000448
N        4.75598055       2.53817835       1.65115941      -0.00000108       0.00000065       0.00000302
I        5.97952173       6.89474533      15.98023436      -0.00000204       0.00000456      -0.00001073
I        0.65730600      11.42911436      16.73745938       0.00000578       0.00000311      -0.00000857
I        6.03644069       6.79279183      11.62891736      -0.00000625      -0.00000459      -0.00000438
I        0.45066074      11.64600286      12.55317589       0.00000642      -0.00000582       0.00000592
I        4.36523628      10.40048958      10.43006841      -0.00000250      -0.00000356      -0.00000423
I        2.12187115       8.03830218      13.75201628      -0.00000230      -0.00000291       0.00000052
H        1.04673817       7.56072448       8.45268225       0.00000566       0.00000469      -0.00000544
H        5.44024875      10.87787200      15.72952946       0.00000339       0.00000144      -0.00000076
H        0.89709422       7.67587163      -0.08301579      -0.00000308      -0.00000359      -0.00000735
H        4.66560082      11.72260042      14.34733897      -0.00000767      -0.00000009       0.00000436
H        2.50340288       8.21539750       0.50967711       0.00000000      -0.00001197      -0.00000381
H        3.83393615      10.33841750      15.13678002       0.00001954       0.00000854       0.00000187
H        1.57862462       8.77641183      11.13280352      -0.00000451      -0.00000701      -0.00000864
H        5.64339337       8.89096895      14.35694991      -0.00000392       0.00000970      -0.00000342
H        1.42883956       8.89122821       2.59728637      -0.00000346      -0.00000293       0.00000308
H        6.38651145      10.19930069      13.58710035      -0.00001184      -0.00000773       0.00000371
H        0.84367255       9.54781592       9.82506541      -0.00000150      -0.00000220       0.00000806
H        4.90852661       9.66249568      13.04923152      -0.00000096      -0.00000117      -0.00000131
C        1.53477907       7.79500076       0.79773350      -0.00000062       0.00001517       0.00001587
C        4.80259157      10.75876588      14.84875682      -0.00002636      -0.00000448       0.00000105
Pb       3.98511022       5.42173166      13.81575327      -0.00000128       0.00000246      -0.00000111
Pb       7.92180267       5.46759923      13.85486521       0.00000086      -0.00000231      -0.00000263
N        1.01529004       8.62310684      10.27645550       0.00001887      -0.00000290       0.00000434
N        5.47181914       9.81571601      13.90562409       0.00002340      -0.00000642       0.00000001
I       12.34732673      29.06175465      13.04738722      -0.00000115      -0.00000352      -0.00000349
I        9.96071854       4.15654813      11.61506614       0.00000150      -0.00000226       0.00000338
I       12.56278300      29.21266260      17.23482005      -0.00000188       0.00000664       0.00000338
I        9.89500297       3.89071455      15.96319608       0.00001131      -0.00000016       0.00000285
I       13.89962893       2.82383963      13.76154582      -0.00000262      -0.00000573      -0.00000413
I        8.11626076       0.72463721       1.72081583      -0.00000474       0.00000043       0.00000895
H        8.54818328      -0.84781761      14.09197888      -0.00000182      -0.00000350      -0.00000190
H       13.46759319       4.39632150       1.39040805      -0.00000031      -0.00000927      -0.00000901
H        9.32390148      -0.08453800      15.51989288       0.00000126       0.00000160      -0.00000052
H       14.28593222       3.04106441       0.53857409      -0.00000359      -0.00000275       0.00000058
H        7.72993039       0.50747213      14.94384398       0.00000431      -0.00000449      -0.00000099
H       14.43557356       2.92598058       9.07401555      -0.00000840       0.00001138       0.00000353
H        9.56386775       1.96623184      14.24938429      -0.00000146       0.00000000       0.00000452
H       11.71876060       2.86210553       2.05881882       0.00000222       0.00000192      -0.00000038
H        8.83178570       1.26838456      12.89937554       0.00000392       0.00000293      -0.00000425
H       13.18407642       2.28010292       2.58302208       0.00000293       0.00000110      -0.00000748
H       10.29708872       0.68632850      13.42356251      -0.00000657       0.00000141      -0.00000205
H       12.45203104       1.58222689       1.23300463      -0.00000294       0.00002100       0.00001177
C        8.69465820       0.08770419      14.64195065       0.00000083       0.00000074       0.00000116
C       13.47089563       3.34579611       9.37600241       0.00002304       0.00002645      -0.00000731
Pb      10.22711534      13.07556569       1.90981509       0.00000148      -0.00000848      -0.00000804
Pb       6.29041540      13.02970692       1.87069118       0.00000570       0.00000151      -0.00000069
N        9.38504517       1.06675710      13.75217842      -0.00000406      -0.00000182      -0.00000504
N       12.63081981       2.48170838       1.73021154      -0.00001364      -0.00001360      -0.00001177
I       13.85437733       6.83830625      16.05927616       0.00000126      -0.00000284      -0.00000330
I        8.53216742      11.37268824      16.81648459       0.00000033      -0.00000321       0.00000606
I       13.91128095       6.73634309      11.70795614       0.00000750       0.00000272       0.00000210
I        8.32549145      11.58957634      12.63221411       0.00000979      -0.00000696       0.00000137
I       12.24009051      10.34405021      10.50912396       0.00000001      -0.00000116       0.00000516
I        9.99669656       7.98187792      13.83105834       0.00001435       0.00000538      -0.00000041
H        8.92166716       7.50441406       8.53162011       0.00001122       0.00000336       0.00000587
H       12.54038442      11.66613584      14.42637024      -0.00000180       0.00000324       0.00000161
H        9.54662205       6.77467838       1.37819964       0.00000033      -0.00000549       0.00000468
H       11.70880686      10.28194841      15.21589466       0.00000219       0.00000045      -0.00000482
H        8.77200353       7.61941471      -0.00400296       0.00000231       0.00000089       0.00001507
H       13.31512336      10.82148461      15.80855579       0.00000868       0.00000092       0.00000255
H        7.97545458       8.18302452      10.67403770       0.00000198       0.00000554       0.00000088
H       12.78335160       9.60602245      13.12830769      -0.00000522      -0.00000503      -0.00000738
H        8.56882468       9.60630988       1.36858974      -0.00000132      -0.00001203      -0.00000153
H       13.51825271       8.83452971      14.43602621      -0.00000590       0.00000147      -0.00000342
H        9.45343642       8.71988422      11.21186510      -0.00001319      -0.00000140      -0.00000568
H       14.26133917      10.14285740      13.66613976      -0.00000173       0.00000508       0.00000170
C        9.40963980       7.73851597       0.87678596      -0.00001196       0.00001078      -0.00001302
C       12.67743308      10.70232348      14.92781470      -0.00000461      -0.00000339      -0.00000722
Pb      11.85994851       5.36530818      13.89479508      -0.00000415       0.00000412       0.00000114
Pb      15.79665958       5.41116323      13.93390156      -0.00000999      -0.00000480       0.00000302
N        8.89012825       8.56663254      10.35548867       0.00001157       0.00000569       0.00000971
N       13.34665772       9.75926654      13.98468609       0.00000565       0.00000954       0.00000984
I        4.25150627      14.34074344       4.11050312      -0.00000203       0.00000206      -0.00000050
I        2.00731631      19.22032608       3.32268861      -0.00000069       0.00000138      -0.00000060
I        4.46692291      14.49167285       8.29794456      -0.00000012      -0.00001193      -0.00000154
I        1.94161989      18.95448066       7.67081884       0.00000513       0.00000045      -0.00000582
I        5.94624050      17.88759780       5.46913313      -0.00000212       0.00000778       0.00000712
I        0.46229859      15.55852175      10.49961161       0.00000357      -0.00000226      -0.00000761
H        1.37049959      14.97926382       7.22751005      -0.00000487      -0.00000090      -0.00000676
H        6.63201224      17.87489713       9.31724368       0.00000410      -0.00000489      -0.00000200
H       -0.22346479      15.57122690       6.65139223       0.00000581      -0.00000274       0.00000347
H        5.03800888      18.46690236       8.74127694       0.00000605       0.00000056       0.00000575
H        0.59484903      14.21594015       5.79958157      -0.00000184      -0.00000581       0.00000500
H        4.88837125      18.58177545       0.20564080      -0.00000592       0.00000356       0.00000260
H        0.87844167      16.33213333       4.60695298       0.00000020       0.00000656       0.00000814
H        4.06492559      17.69601423      10.83764330      -0.00000102       0.00000040       0.00000152
H        2.34373519      15.75010286       5.13118614       0.00000085       0.00000327       0.00000080
H        5.53025334      17.11395706      11.36175972      -0.00000091       0.00000280       0.00000148
H        1.61048154      17.03000799       5.95697508      -0.00000214      -0.00000589      -0.00000348
H        4.79811442      16.41612210      10.01177767      -0.00000148      -0.00000144      -0.00000739
C        0.74128351      15.15147502       6.34954195      -0.00000164      -0.00000557       0.00000639
C        5.51755512      18.40959969       1.08363839      -0.00000234       0.00000128       0.00000584
Pb       2.57322532      27.90942047      10.68858383       0.00000046       0.00000358       0.00000340
Pb      30.13590651      27.63783278      10.96562886      -0.00000104       0.00000462      -0.00000064
N        1.43168010      16.13052583       5.45977548       0.00000905       0.00000516      -0.00000360
N        4.97695656      17.31559273      10.50898405      -0.00000103       0.00000950      -0.00000075
I        5.90097988      21.90208870       7.76689020      -0.00000031       0.00000135      -0.00000697
I        0.57879520      26.43640941       8.52410978       0.00000186       0.00000212       0.00000100
I        5.95789840      21.80012760       3.41558844      -0.00000074       0.00000240      -0.00000909
I        0.37217397      26.65333670       4.33985496       0.00000733       0.00000035       0.00000280
I        4.28677372      25.40781878       2.21673011      -0.00000015      -0.00000332       0.00000229
I        2.04332552      23.04564715       5.53868044      -0.00000323      -0.00000405       0.00000649
H        2.57474225      23.10770948       0.83209466      -0.00000519      -0.00000219      -0.00001086
H        3.75541991      25.34571630       6.92345415       0.00000196       0.00000367       0.00000175
H        2.72435827      22.99277886       9.36749693       0.00000113       0.00000113      -0.00000370
H        5.36171660      25.88515591       7.51625306       0.00000874       0.00000030      -0.00000334
H        1.89279442      21.60858641      10.15702515      -0.00000702      -0.00000145      -0.00000362
H        4.58707947      26.72994902       6.13409547      -0.00000086      -0.00000672      -0.00000316
H        0.02202938      23.24674362       2.38155591       0.00000689       0.00000202       0.00000454
H        4.83004696      24.66991457       4.83588089       0.00000359      -0.00000054       0.00000074
H        0.17183147      23.13186377      10.91726029       0.00000203      -0.00000041       0.00000144
H        5.56489419      23.89832561       6.14357456      -0.00000524       0.00000053       0.00000979
H        1.49997646      23.78346429       2.91960006       0.00000557       0.00001248      -0.00000157
H        6.30801956      25.20669669       5.37380316      -0.00000394      -0.00000747       0.00000001
C        1.75573620      22.57239892       9.65558337       0.00000315      -0.00000088       0.00000419
C        4.72407392      25.76608967       6.63546462      -0.00001141      -0.00000079       0.00000324
Pb       3.90656132      20.42907227       5.60241206      -0.00000188       0.00000349       0.00000578
Pb       7.84326143      20.47493628       5.64152867       0.00000237      -0.00000971      -0.00000590
N        0.93675537      23.63033555       2.06314064      -0.00000486       0.00001031      -0.00000439
N        5.39332324      24.82309364       5.69229304       0.00000233      -0.00000445      -0.00000882
I       12.12634289      14.28431404       4.18954621       0.00000572       0.00000745       0.00000601
I        9.88216620      19.16389070       3.40171485       0.00001056      -0.00000686       0.00000587
I       12.34178018      14.43521287       8.37698914       0.00000412      -0.00000369       0.00000114
I        9.81646797      18.89803101       7.74984887       0.00000233       0.00000218      -0.00000021
I       13.82108008      17.83115559       5.54819058       0.00000457      -0.00000119       0.00000008
I        8.33717554      15.50209277      10.57865502      -0.00000959      -0.00000467      -0.00000600
H        8.46960584      14.15952104       5.87859764       0.00000725      -0.00001112       0.00000039
H       14.50684471      17.81844929       9.39629156       0.00000247       0.00000155       0.00000436
H        9.24536566      14.92275414       7.30651445      -0.00001040       0.00000390      -0.00001438
H       12.91285041      18.41046902       8.82031606       0.00000275       0.00000351      -0.00000136
H        7.65140007      15.51481449       6.73050092      -0.00000981       0.00000370      -0.00000078
H       13.53886328      19.28869575       1.71262687       0.00000046       0.00000209      -0.00000228
H        9.48533356      16.97355272       6.03603052       0.00001023       0.00001139       0.00001024
H       11.93974032      17.63957134      10.91666162      -0.00000262       0.00000169      -0.00000042
H        8.75325821      16.27571414       4.68601311       0.00001690      -0.00000328       0.00002173
H       13.40506026      17.05751463      11.44079925       0.00000146      -0.00000356       0.00000257
H       10.21855401      15.69364966       5.21020894       0.00001031      -0.00000842      -0.00000653
H       12.67294155      16.35967969      10.09080502      -0.00000331      -0.00000311       0.00000067
C        8.61611239      15.09502853       6.42858492       0.00002905       0.00000508       0.00001494
C       13.39243548      18.35315245       1.16267907       0.00000645       0.00000461      -0.00001367
Pb      10.44807065      27.85298820      10.76767587      -0.00001056      -0.00000627       0.00000408
Pb       6.51136517      27.80714198      10.72852525       0.00000470       0.00000259       0.00000783
N        9.30651065      16.07408091       5.53882034      -0.00005211       0.00000572      -0.00002674
N       12.85177573      17.25914983      10.58801545       0.00000250       0.00000804      -0.00000067
I       13.77582225      21.84564477       7.84592509      -0.00000799      -0.00000300       0.00000091
I        8.45367493      26.37999935       8.60317548      -0.00000779       0.00000074       0.00000138
I       13.83274324      21.74367739       3.49461754      -0.00000066       0.00000184      -0.00000586
I        8.24705074      26.59689613       4.41890534      -0.00000287       0.00000142      -0.00001339
I       12.16164576      25.35137293       2.29580212      -0.00001112       0.00000066      -0.00000049
I        9.91817697      22.98920715       5.61771985      -0.00000302      -0.00000725       0.00000466
H       10.44957340      23.05127065       0.91104650       0.00000216       0.00000465       0.00000095
H       13.23651592      25.82875535       7.59530435       0.00001026       0.00000247       0.00000051
H       10.59926814      22.93633148       9.44664904      -0.00000731      -0.00000751      -0.00000635
H       12.46195403      26.67353929       6.21309888      -0.00000547      -0.00000915      -0.00000071
H        9.76756168      21.55212098      10.23599723       0.00000759       0.00000170      -0.00000240
H       11.63022900      25.28934304       7.00245258       0.00000618       0.00000541       0.00000238
H        9.37488930      23.72705062       2.99859919       0.00001252       0.00000782       0.00000314
H       12.70491616      24.61346169       4.91494341      -0.00001728      -0.00000114      -0.00001878
H        8.04662509      23.07539618      10.99622111       0.00000379       0.00000851       0.00000313
H       13.43971397      23.84189605       6.22268072       0.00000671       0.00000079      -0.00001207