768
Lattice="25.7250621107 0.252924595474 0.12156476037 0.218234781336 25.5133878254 -0.266429805448 0.0967603667803 -0.272133505463 25.6784039582" Properties=species:S:1:pos:R:3:Z:I:1:forces:R:3 energy=-99802.5610666 stress="-4299.015107 -1541.626512 -287.535098 -1541.626512 -5041.352897 -80.616185 -287.535098 -80.616185 -590.584599" pbc="T T T"
I      -1.68761414      -0.28020903       3.03211274       53       0.40356300       0.52377900       0.23157600 
I      -0.78750276       0.13981859       9.56128359       53       0.18660500      -0.01043500       0.02209300 
I      -0.12343025       0.03140559      16.17741081       53      -0.01133200       0.22090600      -0.96999200 
I      -0.13305853       0.68416204      22.27312627       53      -0.13214700      -0.14216900       0.18460200 
I       1.24664615       6.41942154       3.29977065       53      -0.29283400      -0.06858700      -0.08233300 
I       0.61297451       5.36641328       9.87688932       53      -0.14176000      -0.02880000       0.01536100 
I       0.77754487       7.83534695      15.90965163       53      -0.00350200      -0.15736500       0.34437000 
I      -0.14059397       6.18966221      22.50728376       53       0.14926000      -0.00140700       0.05677000 
I      -0.80747812      12.74824509       3.50012491       53       0.53164000       0.52251100      -0.19765000 
I      -0.09316242      12.89166361       9.82614972       53       0.04747800      -0.39875100      -0.02621600 
I       0.07752167      13.75226805      16.13389093       53       0.31103000      -0.36170600       0.13993300 
I       0.31268786      12.51456117      22.79884856       53      -0.04976400      -0.07359700      -0.41952400 
I       0.83842206      18.40788514       3.43370783       53      -0.09846900       0.04527200      -0.45553800 
I      -0.39561737      19.81016039       9.68966996       53       0.31529800      -0.25895800      -0.06351900 
I       1.00111799      18.39639534      16.10066353       53      -0.05463700       0.26177100      -0.16912800 
I       0.46932168      19.78364538      22.50185507       53       0.06743700      -0.28944300       0.14565200 
I       6.61710017       0.29425334       3.50267345       53      -0.21974600      -0.22840800       0.16485800 
I       6.59251320      -1.10267960       9.65226382       53      -0.06807900       0.22971500       0.39742200 
I       5.95682019       0.25530039      16.17475603       53       0.01655100       0.01542800      -0.05397100 
I       6.60831677      -0.04388325      22.69823112       53      -0.48591400      -0.50906600      -0.29633600 
I       6.52894251       5.82456186       3.46284981       53      -0.02939600      -0.01813400      -0.39483800 
I       7.20382872       7.23180514       9.74938060       53      -0.48914900      -0.13562500      -0.49778900 
I       6.92731493       5.95239126      15.64344620       53      -0.04168800      -0.06992500       0.40828100 
I       6.87628741       6.49237429      22.53645851       53      -0.06184000       0.02036100      -0.17745400 
I       6.17056251      13.21872936       3.08108911       53       0.18422500       0.06202200       0.31394100 
I       6.27919491      12.80474299       9.65886105       53       0.00586000      -0.05458800       0.05986700 
I       7.21369031      12.87406504      16.16025106       53      -0.09758700       0.52039100      -0.26369700 
I       6.81989673      11.54756312      22.43718136       53       0.24865800       0.15358100      -0.15049900 
I       5.76746827      18.67675230       2.80183317       53       0.30519200       0.34018400       0.46119900 
I       6.56367700      19.90543849       9.91322720       53       0.28887700      -0.41386300      -0.07247900 
I       5.98357546      18.33126692      16.03387216       53       0.15269700       0.03593600      -0.00863300 
I       7.52416320      19.06542396      22.29781649       53      -0.07317100      -0.19168400      -0.03210200 
I      11.79040969      -0.98297735       2.69797222       53      -0.26672300       0.30994900       1.04314700 
I      13.85705132       0.17107824       9.32439489       53      -0.13942600       0.00256700       0.53159700 
I      12.70707123      -0.71560338      15.78163161       53      -0.05043700       0.06078400      -0.70783800 
I      13.93471695       0.36955409      22.97886607       53      -0.20736500      -0.36220300      -0.28509300 
I      13.02436076       6.78087330       3.15320592       53       0.01206200       0.34872500       0.00319500 
I      13.42052219       5.99725044       9.77962163       53      -0.02646000       0.03963200      -0.22447900 
I      13.69711441       6.41414574      16.12261259       53      -0.11062100       0.16073800      -0.34923800 
I      13.02120660       5.93337893      22.24318408       53      -0.02412900      -0.11366700       0.56264300 
I      12.70931299      11.93610671       2.89235273       53       0.01129600       0.09061100       0.19791600 
I      13.49120637      12.83913794       9.41514874       53      -0.01536700       0.32490600       0.26205200 
I      13.33918217      11.16022183      16.11070085       53       0.09418500       0.03528400       0.13615300 
I      13.12879854      13.48788443      22.34626369       53       0.07301300      -0.20236700      -0.28079200 
I      12.65423779      19.00795608       3.14824186       53      -0.04832300       0.39283700      -0.18206000 
I      12.88537415      18.82333391       9.45236923       53       0.01334100       0.06673800       0.27003300 
I      13.18553968      19.88714892      15.82982465       53      -0.16515600      -0.05674500       0.05237500 
I      12.76592706      19.12926370      22.04150740       53       0.16561700      -0.22308100       0.04398100 
I      19.51712920       0.33016729       3.30783526       53      -0.10705500       0.13620000      -0.15083600 
I      18.10679233       0.35785183       9.72315351       53       0.49618400      -0.58193800       0.21861200 
I      19.32707338       0.66154680      16.04231899       53       0.15814300      -0.24074600      -0.02013100 
I      18.87676999      -0.01432229      22.53571886       53       0.02478700      -0.34151100       0.04113300 
I      19.09750169       6.90853988       3.04381103       53      -0.19656800      -0.28411300      -0.42846500 
I      19.24009518       6.42422972       9.18579646       53       0.04503400       0.10206800       0.71753100 
I      19.54233072       5.92605993      15.86564626       53       0.38168500       0.30144300       0.34223900 
I      19.78808027       6.73341891      22.56080918       53      -0.28448000       0.16626300      -0.73705400 
I      18.99403290      13.38925559       2.93501184       53       0.45928700      -0.31022400       0.40005400 
I      18.96027335      11.93757309       9.86688774       53       0.18775800       0.11722900      -0.09659400 
I      20.09036743      12.88087870      16.17212905       53       0.03670900      -0.00626700       0.02417200 
I      19.27775449      13.00479345      22.44769821       53       0.13639500      -0.14297400      -0.41894800 
I      18.06432781      18.96751690       3.23880113       53       0.00076100      -0.24704200       0.15226400 
I      19.62385739      19.13895552       9.56822434       53      -0.05369900       0.12147600      -0.03220600 
I      18.97883891      18.84157483      15.67164997       53       0.36835500      -0.02073100       1.63510400 
I      19.51837419      19.37070445      22.20913761       53       0.07252400      -0.05572900       0.04989900 
I       3.55647091      -0.25491121       0.28437685       53      -0.04323200      -0.11749600      -0.22667800 
I       2.81172753      -0.24966222       6.42694208       53      -0.04887900       0.04421200      -0.00497200 
I       3.44395860      -0.63584391      12.54745201       53      -0.08633800      -0.12698900       0.16689200 
I       3.08522913      -0.03307749      19.69369073       53       0.00346600       0.17259500      -0.01202900 
I       3.05453637       6.40849764      -0.50623242       53       0.38748100       0.20228800       0.00448700 
I       3.64893340       6.74315343       6.79670069       53      -0.28436600      -0.03760400       0.16634300 
I       3.88456521       7.33292991      12.10563319       53       0.56144900      -0.22426700       0.13477100 
I       3.44473002       6.88021001      19.59744067       53      -0.01982500       0.01872800       0.01789800 
I       3.31547593      12.53360031       0.11720930       53      -0.30683900      -0.16700200       0.25703400 
I       3.24083242      13.33163879       6.31821239       53      -0.11086300       0.02748000      -0.10187100 
I       3.34599991      13.29363696      12.94967654       53       0.52087600       0.21141000      -0.37591400 
I       3.77815869      13.00323275      19.66069069       53      -0.02587300       0.01803400      -0.06496100 
I       2.95803314      18.88955441      -0.49191509       53       0.54692600      -0.07840500      -0.00646500 
I       3.13486969      19.07591003       6.91440342       53       0.03690200      -0.15570800      -0.02491400 
I       3.25383924      19.81687477      12.64574627       53       0.55369800       0.09997400      -0.08683000 
I       3.46149264      18.67853638      19.70116760       53       0.01778100      -0.00224900       0.10384400 
I       9.90269050       0.17886088      -0.83751960       53      -0.33583400      -0.22831300       0.12581400 
I       9.86097654      -0.12598078       6.70677881       53      -0.49825000      -0.15848400       0.08098000 
I      10.16086210      -0.40118803      11.95412822       53      -0.20657000       0.35861100       0.32156500 
I       9.72921859      -0.66754238      19.29330092       53      -0.27412300       0.44617700      -0.03430200 
I       9.76298410       6.92458073      -0.47567468       53       0.03508000      -0.19757700       0.32072300 
I       9.94317932       6.21755226       6.71713482       53       0.18420700      -0.33663700      -0.16936400 
I      10.29218322       6.47191246      12.92152935       53      -0.24874100      -0.29775500      -0.04748700 
I      10.17072469       5.96712359      18.70858281       53      -0.08344900       0.08632200       0.03370300 
I       9.76335740      12.08467097       0.37658419       53       0.14698700       0.19143700       0.02190500 
I       9.54544131      13.22607715       6.26337744       53       0.36393800       0.16742900      -0.05885300 
I      10.02900586      12.37059363      12.78450156       53      -0.05728300       0.03277200       0.29922000 
I      10.35170721      12.39799025      18.86321613       53      -0.41716100       0.05042400       0.07330300 
I       9.62678828      17.56423791       0.19624501       53      -0.44538800       0.40164500      -0.37133800 
I       9.57186100      19.27303665       6.57138022       53       0.11254100      -0.12105400      -0.00953200 
I       9.90327030      18.94644746      13.23695935       53      -0.95950500       0.02418200       0.06346700 
I       9.72550846      18.87890254      18.50390685       53       0.06197400      -0.12260300      -0.08284900 
I      15.74796439      -0.11220851       0.98999454       53       0.21830200       0.40512900      -0.05501600 
I      16.07187498       0.58341554       6.11288613       53       0.02751900       0.06078700      -0.38277700 
I      16.14144324       0.38306228      13.54939702       53      -0.72878800       0.14417400       0.06735700 
I      16.01780946       0.28988298      19.25225811       53       0.67112400      -0.23728300      -0.28934500 
I      16.22467854       6.63012883      -0.36292509       53      -0.42969700       0.20999700       0.03268700 
I      16.41486542       7.34878014       6.48936806       53      -0.24592700      -0.16253700      -0.37611000 
I      16.55412406       6.59056629      12.90100497       53       0.26174900       0.29012400      -0.20332800 
I      16.70430064       6.04442486      18.92141670       53       0.17530200       0.04279000       0.07386300 
I      16.36394314      12.41987082      -0.74452496       53      -0.66804600      -0.05657700       0.02424200 
I      16.13521732      12.56390687       6.15009570       53      -0.33953500      -0.06586600       0.06375700 
I      16.87701007      12.14514707      13.27345807       53      -0.68657500       0.10836200       0.19386600 
I      16.63889127      12.98046759      18.71203383       53      -0.07851400      -0.16169900      -0.02086800 
I      15.77137488      19.63065914      -0.57693645       53       0.35610000      -0.00530500       0.06024000 
I      16.11901564      18.86001729       6.83785867       53      -0.49554900       0.00352200       0.15994400 
I      16.12747340      18.95098659      12.82815050       53      -1.36351900      -0.10282500      -0.27089300 
I      16.07128426      19.23901599      18.70001188       53       0.33374900      -0.12077000       0.43192200 
I      22.14354059       0.21283190      -0.57026774       53       0.23711000       0.11851200      -0.12794600 
I      22.03193174       0.41097417       6.83831139       53       0.44732100      -0.12297700      -0.06679000 
I      22.08688483       0.01895376      12.56542289       53       0.28998800       0.41774700      -0.14395000 
I      22.56457194      -0.90021065      19.51427884       53       0.00802800       0.04567200       0.00749500 
I      22.49523897       6.65307368      -0.05338147       53       0.03174000      -0.34464800       0.22730900 
I      22.83158949       5.94154977       5.63065791       53      -0.24220900      -0.08202900      -0.08209300 
I      23.23471053       5.46908484      13.26145300       53      -0.42885600      -0.03877500      -0.04138800 
I      22.84770877       6.35821870      18.26731400       53       0.13069600       0.20158800       0.26022400 
I      22.45209239      13.28624548       0.35108185       53       0.03486000      -0.10986300      -0.05857500 
I      22.25867094      13.24481646       6.97367722       53       0.46190000       0.01570300      -0.07921200 
I      22.91083270      13.04092581      12.87319434       53       0.29402500       0.00880100      -0.05878400 
I      22.90859788      13.09436884      19.75410528       53      -0.19417300      -0.04760500       0.03269100 
I      22.43621238      19.71603196      -0.61870104       53       0.00942600      -0.19325800       0.08111500 
I      22.26913021      18.78715786       6.38641255       53       0.61462600       0.07335400      -0.32311800 
I      22.77390021      19.62354763      12.97132975       53       0.12762800      -0.30438100       0.15233400 
I      22.74106795      20.33302338      18.93042448       53       0.07001000      -0.00041900      -0.00397600 
I       0.77732943       3.07038561      -0.27696055       53      -0.30171500      -0.04704800       0.31207700 
I       0.53571096       3.36317654       6.15936260       53       0.25683500      -1.08964200      -0.02944900 
I       2.22532462       3.26020514      13.32994505       53      -0.22071900       0.00051600       0.03448900 
I       0.03443168       3.33547611      19.04908328       53       0.11169300      -0.21772700       0.09808100 
I      -0.52449915       9.37459936       0.20406637       53       0.19979800       0.32301200      -0.03553600 
I      -0.01432527       9.87668083       6.07664356       53       0.13073100      -0.59391000       0.13410900 
I       0.78068711       9.51412407      12.27949824       53      -0.13396900       0.50350000       0.13418100 
I      -0.10553086       9.54649667      20.06095739       53      -0.08652900       0.29879400      -0.04998300 
I      -0.43616378      15.97016843      -0.08713407       53       0.34823500      -0.12443100       0.22617100 
I      -0.28358161      15.99313711       7.04572950       53       0.09812300       0.11407300      -0.06231400 
I       0.46078649      15.85154537      12.17218727       53       0.13490500      -0.32486100      -0.18588300 
I      -0.36970798      16.40052525      19.27352810       53       0.02086000      -0.49506800       0.30670100 
I      -0.51426029      22.24296169       0.52425095       53       0.03967300       0.29719400       0.06491200 
I      -0.11274363      21.95243834       5.05213693       53      -0.07207500       0.66358100       0.11687300 
I      -0.52140952      22.85818293      12.86601632       53       0.36913200      -0.24508200      -0.19504500 
I       0.86964994      22.27116348      18.03637223       53      -0.25698100       0.28229400       0.48658900 
I       6.33258730       2.92913142      -0.23981353       53       0.07313600       0.55083700      -0.05467100 
I       6.12379812       3.07002721       6.65414989       53       0.17943300       0.30860000       0.12115900 
I       6.88508968       2.86468209      12.09549857       53       0.14910600       1.01384900      -0.37627500 
I       6.77199062       3.23433546      19.45661637       53      -0.05685300       0.02736500      -0.03778300 
I       6.23207510       9.36084595       0.04528509       53       0.03059600      -0.03898200       0.19703000 
I       7.55281573       9.54135788       6.44553744       53      -0.06460200       0.63027000      -0.15999000 
I       6.97216021       9.64240024      13.05717218       53       0.03729600      -0.13192900       0.15150000 
I       6.57944880       9.50291921      17.95821814       53      -0.03042500      -0.02161900       0.62783600 
I       6.27591764      15.59485504      -1.19985992       53       0.29793100       0.31784300       0.54257300 
I       6.51201806      16.32969215       7.07932126       53       0.14677200      -0.18350200      -0.36743900 
I       7.32879286      15.91845588      12.42663881       53      -0.02074700       0.23143300       0.14063600 
I       6.99396035      15.69593513      19.40880854       53       0.05863200      -0.01885800      -0.02204000 
I       7.02216711      22.25123677      -0.56015596       53       0.18499000      -0.28520200       0.65148600 
I       6.81655394      22.38836186       6.03283081       53      -0.06082600      -0.25619400      -0.28745500 
I       7.38799518      22.55293619      12.87261156       53      -0.11259900      -0.87727300       0.22452600 
I       6.59980937      22.35391032      18.54297199       53       0.07832500      -0.37806300       0.17958300 
I      12.26663935       3.50907013       0.04083333       53       0.12670700       0.53815100       0.06349300 
I      12.41886709       2.85604166       5.57517466       53      -0.11875200       0.70346500      -0.11366700 
I      13.12722692       3.11226437      12.96015467       53      -0.17785700       0.26172800       0.09712900 
I      13.37308369       3.06208174      19.19647106       53      -0.21164300       0.52752500      -0.15956800 
I      13.24692718       9.79022684      -1.34185773       53      -0.23301900      -0.06232800       0.12064200 
I      12.88802198       9.45636331       6.98951355       53      -0.12177300      -0.22062800      -0.17767600 
I      12.86897986       9.50256874      12.32778163       53       0.35722400       0.15605400      -0.04728400 
I      13.21159303       9.24607201      19.72915296       53       0.12114400       0.93260800       0.00534500 
I      13.79115150      15.94680957      -0.16320922       53      -0.25652000      -0.06087500      -0.12764000 
I      13.26314971      15.59226777       5.42462577       53       0.10188000      -0.05151500       0.34562700 
I      12.80116192      15.93514205      12.81738744       53       0.19408700      -0.15944700       0.03173600 
I      13.14527424      15.89395131      18.72257748       53       0.20339800      -0.29027500       0.01711300 
I      12.47733870      22.41042808      -0.46406475       53       0.01425400      -0.64371000      -0.31372900 
I      13.34974369      22.15273799       6.32599007       53      -0.00788100      -0.15581600      -0.19935400 
I      13.55726207      22.32481798      12.32531549       53       0.06573200      -0.17092500      -0.35136900 
I      13.40576207      22.73202840      19.32719252       53       0.17453800      -0.95114500       0.01236700 
I      18.44217485       3.39946676      -0.17445479       53       0.11759800       0.04865400      -0.13023900 
I      18.55827915       3.64132946       5.80119705       53       0.33980200      -0.29965000       0.08815600 
I      18.78942842       3.35770218      12.45046231       53       0.36233900       0.00589300       0.05590800 
I      19.99606825       2.73696091      19.68748070       53       0.04559000       0.73022100       0.06697000 
I      19.83042069       9.79116207      -0.13096370       53      -0.06840000       0.27605600       0.06287600 
I      19.68967382       9.68248300       5.37411948       53      -0.12630900       0.65209300       0.44390600 
I      20.51732189       9.41947442      12.91005544       53      -0.08104500      -0.11629800       0.00775500 
I      20.04172962       9.24525195      18.94125803       53      -0.04165600       0.20438900       0.08376300 
I      18.65661908      16.38328608      -0.71354925       53      -0.27841000      -0.90446300       0.07638800 
I      18.73002058      15.80000258       7.14277778       53       0.46917900      -0.54937300      -0.37737100 
I      19.80582081      15.94956561      12.45266039       53      -0.19267400       0.20346900       0.08053100 
I      20.03514629      15.99510586      19.14186148       53       0.07128400       0.03670900       0.08413500 
I      19.09721774      22.59334361      -0.04253004       53       0.24310000      -0.29163400       0.03962000 
I      18.89898811      22.10214434       5.84727441       53       0.15717800       0.34820500       0.26437400 
I      18.72476464      22.50141724      12.67580462       53       0.14386200      -0.02643100      -0.12191900 
I      18.98790626      22.42082480      17.97187028       53       0.07917300      -0.39134400       0.17153900 
H       2.46936356       2.82430049       2.42186449        1       2.88894500       0.71315300      -0.83598200 
H       4.60342898       2.44511514       9.11975169        1      -1.25969200      -0.33428300       0.66057200 
H       4.36233373       3.95005004      16.57114878        1      -0.97524500       0.89877800      -0.29670600 
H       4.58128631       3.39648634      21.66960333        1      -0.78903900       0.85658700       0.16234000 
H       3.10416005       8.45746723       4.73103698        1      -0.34940200      -0.00004900      -0.85552600 
H       3.08032762      10.70637608       8.52503498        1      -0.84526500       0.90327300      -0.99816400 
H       2.79036621      11.09532970      14.92739407        1       2.15364700      -1.10468600       0.67910400 
H       4.25939113       9.25629102      22.84446029        1      -0.88755400       1.95650700      -1.48965200 
H       3.71347804      14.96711445       2.61457212        1       0.51011500      -0.81800300       0.16672300 
H       4.65372579      15.38847343      10.52356679        1       0.48082900      -0.00940200       0.23240800 
H       3.51832810      14.48893690      16.18749777        1      -1.85801100      -3.25050800      -0.15165800 
H       1.73979927      14.95553530      21.96495571        1       0.88765100       0.62313100       0.61367400 
H       2.64123009      22.81844566       2.99660485        1      -0.40341100       0.25294400       1.66765800 
H       2.48823590      21.38337091       8.35602576        1       0.75631900       2.04488100       1.25968900 
H       3.78385047      21.39262788      16.85609551        1       1.01497300       0.60123300      -1.17667700 
H       3.80931906      20.94628878      22.16045908        1      -1.14275300       0.98978500      -0.19145000 
H       9.61864524       1.36520765       2.64992513        1      -0.77077100       0.80006200      -0.39436400 
H       9.47714186       2.41112128       8.40097131        1      -0.05894000      -0.74388700      -0.40843100 
H       9.81397786       1.66462361      14.92626325        1      -2.64303300       0.78014600       0.07753200 
H      10.65418996       3.35386893      22.93113767        1       1.41044100       0.73168800       1.77783500 
H       8.47494369       8.57795181       2.55724422        1      -0.43760700       0.31505400      -0.42099600 
H       9.26973765       9.56461547      10.19147543        1      -0.82674300       0.11010100      -0.12353100 
H      10.84419812       9.18733334      15.13622097        1      -0.64033400       0.52396200      -1.07612800 
H      10.69857457       7.75547231      22.38298976        1      -0.82542600       1.17312300      -0.82932400 
H      11.04433992      16.81676430       2.69676794        1      -0.22225200      -2.52321800      -0.75940100 
H       9.96603185      15.39902304       8.41489946        1      -0.13002200       1.09036900      -0.24748500 
H      10.96889719      16.03909335      15.14667130        1       0.85547300      -0.64238100       1.07245100 
H      11.02893149      15.95814052      23.10288208        1      -1.19372200      -0.55687400      -0.30766200 
H      10.18383277      21.43433091       1.32680870        1      -0.26894500       0.17634300       0.54884200 
H       9.65005481      22.38286864       8.31782735        1       0.85215400      -0.34981700       1.33437900 
H       9.07217816      23.73101086      16.05350897        1       1.32466500      -1.34809800      -0.41830700 
H      11.07722579      21.21524529      21.83556660        1      -0.42656300       1.45292100      -0.68670400 
H      15.06921714       4.90272183       2.48256100        1      -0.77924700      -1.79155000       1.06240000 
H      15.52928781       3.30922122       8.46575423        1      -3.47698400       0.25248700      -1.34352300 
H      16.43680654       3.85969926      14.46865575        1      -0.27702800      -0.31542700       0.73262000 
H      16.79761993       2.28539962      22.34071288        1      -0.95832600      -0.08194700       0.03022000 
H      16.86028716       9.29010319       2.91795435        1      -0.84267500       1.15858800       0.37622700 
H      16.48497774      10.46904359       8.79484233        1      -0.89575900       0.31548800      -0.00219100 
H      16.67112189       9.53126595      14.84267848        1      -0.14967100      -0.42354000      -0.36497500 
H      16.04039890       8.78750645      21.38252702        1      -0.69135200      -0.15372900      -0.29657900 
H      15.58286089      16.18861766       2.14935174        1       0.97372500       1.32930200      -0.62372700 
H      15.95599406      15.89499078      10.58881235        1      -1.00071800       0.27850700       1.08772500 
H      17.58490923      16.85957432      16.49253502        1      -1.34991900      -2.17921300      -0.29099400 
H      17.23538908      16.04451311      22.50864589        1      -1.04158900      -0.37534200      -1.22907300 
H      16.69978732      22.90788504       3.93569399        1      -0.07458100       0.74325800       1.13166600 
H      16.08922237      22.87339478       9.81993274        1       0.67585400       0.28784500      -0.03964700 
H      16.26917038      21.58447176      15.91341041        1       0.92842500      -2.22947900       0.82034000 
H      15.63253024      21.13727686      22.24269264        1      -0.49842800       0.39715200      -0.74939500 
H      21.27350444       2.51419692       1.37411714        1       0.80903600       1.20267700       0.66165700 
H      21.67644082       3.65483268       7.99613668        1      -0.11795300      -0.48493700      -0.14371800 
H      21.85322573       3.10688333      16.01074164        1      -2.82276200       1.29039200      -0.92605200 
H      22.59732180       3.55525273      21.50938744        1      -0.53673700       0.36064300       0.81738800 
H      22.02040620       8.98016145       3.02595533        1       0.60888700       0.53246500       0.63557100 
H      23.08206879       9.51193095       8.94547163        1      -0.21100300      -0.65775000      -0.69154500 
H      23.03783012      10.62928132      16.80845944        1      -0.61783700       0.53828200       0.68173200 
H      23.10687318      10.55774332      22.95604730        1      -0.44281400       0.11387200       1.05130400 
H      21.54504028      17.19413380       3.06183751        1       1.38119600      -0.32848000       0.04303000 
H      22.98313218      15.26452096       9.32212730        1      -0.45663200       0.12437500      -1.13944900 
H      21.70557089      17.23757227      15.91920247        1       0.07335600      -0.54153800       0.52158200 
H      23.23103315      16.05347521      22.44143655        1       1.12557100       0.57598400      -0.91936100 
H      22.80237006      23.02335990       2.54610885        1      -0.98244600      -0.37763200       0.12229500 
H      21.36131660      22.14698564       8.76349729        1       1.11247600      -0.56115200       0.52671600 
H      21.23955328      22.66804867      15.67553782        1       1.16325800      -0.21277300      -0.77318800 
H      24.61154300      22.96806131      23.52330087        1      -0.68473700       0.48297500      -0.03641800 
H       4.29953346       2.29408970       1.80680012        1      -1.23648500       1.16157200       0.64377000 
H       4.93252304       1.20798012      10.27421135        1      -1.44984200       0.74218800       0.40041000 
H       3.21331765       4.45428591      17.93673867        1       0.64184700      -0.25499800      -0.24491300 
H       4.05945783       3.82160113      23.29180511        1       0.61272800       0.97601600       0.26796300 