768
Lattice="26.3277570501 0.394746342642 -0.0740146193255 0.381417200154 26.5555594662 -0.318678093529 -0.1135966443 -0.360229801311 26.0418878935" Properties=species:S:1:pos:R:3:Z:I:1:forces:R:3 energy=-99801.1658906 stress="557.973196 -1053.238234 2025.0269 -1053.238234 -1240.505623 2091.794016 2025.0269 2091.794016 456.695042" pbc="T T T"
I      -0.67804386      -0.10134858       3.23221468       53       0.07986900      -0.26433700      -0.36197100 
I      -0.21284245      -0.00159499      10.29712600       53       0.27631100      -0.03732300      -0.88834100 
I      -1.29693785      -0.66441680      16.66046374       53       0.07647200      -0.03266200      -0.53441800 
I       0.96993877      -0.49219445      22.55464024       53      -0.10446800      -0.31243600       0.39690100 
I       0.79205512       6.30409472       3.53821473       53       0.10017600      -0.20757600       0.16444200 
I      -0.77880378       5.46584829      10.01174005       53       0.35275900       0.55112600      -0.18053000 
I       0.35773494       5.87063654      15.97411630       53      -0.21100900       0.42488700       0.71064500 
I      -0.67408197       5.40008709      23.01779313       53       0.70852300       0.50613800      -0.80842900 
I       1.11247050      12.42952979       2.82045474       53      -0.31657800       0.36804000      -0.21246700 
I      -0.24873286      13.34812270       8.92206730       53       0.09018100       0.02489700       0.80829500 
I      -0.32126509      11.47253422      15.86605607       53       0.21500100       0.30858900      -0.19478200 
I      -0.16086698      13.31036703      22.48172512       53      -0.31904100       0.13809800      -0.05999400 
I       0.61392577      20.54551976       3.02837913       53      -0.26992900      -0.01791300       0.34119900 
I       0.08712161      19.39309868       9.68179464       53      -0.41505900      -0.16194500      -0.22878800 
I       0.65252807      19.50098898      16.19852296       53       0.37153500      -0.07566900      -0.97449900 
I      -0.23280136      18.99902699      22.64313469       53       0.30286500       0.38903900      -0.30946700 
I       6.90816695       0.96439008       2.77345160       53      -0.01785600      -0.04549600       0.18143800 
I       6.63282291      -0.90929117       9.01820809       53      -0.19191200      -0.02683300       0.54535500 
I       6.93411886       0.24980471      15.99329000       53      -0.01976400       0.25327100       0.11943100 
I       6.19996566      -0.94432061      22.30003314       53      -0.09793400      -0.02988300       0.06312500 
I       6.45495563       6.10974825       2.73273219       53      -0.13748500      -0.07645700       0.70774000 
I       7.15779558       7.12588447       9.90066079       53      -0.11079700      -0.20984700       0.31182100 
I       7.08288621       5.56745792      16.83547887       53      -0.17952000       0.54586900      -0.46847900 
I       6.45586677       7.86278744      22.75097585       53      -0.04764700      -0.06661900      -0.17105400 
I       6.68509321      14.67646388       2.88658960       53       0.19801100      -0.46015800       0.47918600 
I       6.41021189      13.06541179       9.61967489       53       0.08269400      -0.19211800       0.20483400 
I       6.70122434      14.16850787      16.41455437       53      -0.23709800      -0.19270500      -0.47375600 
I       6.69341420      12.56473050      22.68151177       53       0.10795400       0.13698600      -0.21913800 
I       6.42787557      19.37394649       2.94169261       53       0.19723500      -0.01371200       0.25754500 
I       7.46201330      20.19111199       9.40633798       53      -0.01417500      -0.08419100      -0.10287500 
I       6.13596428      18.99783637      15.98309351       53       0.05286800       0.26095800      -0.00986600 
I       5.81095945      19.96261752      22.44659945       53       0.36635000       0.62389000       0.04003000 
I      12.44701738      -0.33231026       2.88861150       53       0.20290500       0.00102200       0.42318500 
I      13.13087098       0.50169787       9.92804696       53       0.17278500       0.10398500       0.03931400 
I      12.41425144      -0.12252778      16.28545108       53       0.07820400       0.18560800       0.27038400 
I      14.00642980       0.36078774      22.87633633       53      -0.09993900       0.02691600      -0.57162600 
I      14.50325157       6.56665323       3.27905914       53       0.17695800       0.17188400       0.55563400 
I      11.95308052       6.50097905       9.56378566       53      -0.01536900      -0.06142000       0.56321600 
I      13.42730415       7.06856302      16.00637242       53      -0.09915100      -0.08447500      -0.19435300 
I      13.71377936       6.24437566      22.85565364       53      -0.59243800       0.27131600       0.07072300 
I      13.65432340      13.59505990       3.67051108       53       0.06353400      -0.10378900      -0.19616900 
I      12.77341143      15.11965377       9.97679661       53       0.45749600      -0.26480400       0.07909100 
I      13.55191116      13.13912031      16.35818295       53      -0.07764500       0.05292200      -0.22762100 
I      12.45789159      12.69135531      22.85888560       53      -0.00685900      -0.09088700       0.05652600 
I      13.68764933      20.40641449       3.10217671       53      -0.18537300       0.18007300      -0.19386000 
I      13.92292405      19.52006747       9.61208895       53      -0.49274800       0.23861000      -0.26389500 
I      13.17575907      20.51342949      15.97857471       53      -0.20927000       0.00845900       0.01793600 
I      13.94229840      19.42517974      22.51195627       53      -0.07915100       0.15390700       0.22615800 
I      19.34795261       0.00296988       3.25185930       53       0.54174200      -0.35274800       0.26806900 
I      19.82190805       0.25239888       9.54534906       53      -0.08570500       0.22042900       0.15848800 
I      20.65995894      -0.03018713      16.13272696       53      -0.46268800       0.16070700       0.46900200 
I      20.53128358      -0.43853493      22.92134829       53      -0.13599300       0.08190700      -0.05242100 
I      19.68162343       7.09426103       3.35198962       53      -0.07021000       0.07990700      -0.04571800 
I      20.56746882       7.12624073       9.73534871       53       0.13114100       0.08880400       0.10811900 
I      19.10160303       6.60072342      15.91232723       53       0.14056100      -0.22200800       0.47177200 
I      19.47766503       7.50174684      22.71334405       53      -0.31080100      -0.04141200      -0.49075900 
I      19.43857030      12.72689150       3.14176590       53       0.06367300       0.26929100      -0.04306500 
I      20.93529992      13.67461810       9.27531107       53      -0.38554800       0.33656200       0.40337400 
I      18.95465384      13.00114218      15.80188269       53       0.07026100       0.07259600       0.07961400 
I      19.61484565      12.81419533      22.53518911       53       0.35009600      -0.31743900       0.36176300 
I      19.87308397      20.86190262       2.77289878       53      -0.04767600      -0.25847200       0.63263300 
I      20.86934114      19.57444054       9.67991811       53      -0.17614700       0.14683000      -0.18851700 
I      19.54568972      20.55369128      16.20241524       53      -0.01850400       0.18488000      -0.91107200 
I      19.84217920      18.98287129      22.26130185       53      -0.30729400       0.14651300       0.95470300 
I       2.95695970      -0.13941853       0.55003700       53       0.21948700      -0.23638700      -0.14110900 
I       3.45032429      -0.44562947       5.70174442       53      -0.29990900       0.50559700       0.17262300 
I       2.95717673       0.40307040      13.63586735       53       1.62439300       0.42021200      -0.10611600 
I       3.44731858       0.06972923      18.68701449       53       0.04488200      -0.24156200      -0.13264500 
I       3.12273860       7.23941662      -0.81265693       53       0.07784800      -0.14560100       0.11064800 
I       3.79384250       5.88681168       7.25957516       53      -0.19681700       0.03084400      -0.03127600 
I       3.56394039       6.99133179      13.03475783       53      -0.32917900       0.08340400       0.15925800 
I       3.34911699       6.00194497      19.55643084       53       0.20904900       0.49676900      -0.38784400 
I       3.15488211      12.66784196      -1.14388817       53       0.22045000       0.36146700       0.33084000 
I       3.52571073      11.79644262       6.59548186       53       0.22110400       0.52148600      -0.10395300 
I       3.42250713      12.84658249      12.72886937       53      -0.81965100      -0.40522300      -0.12351000 
I       2.92514379      12.87906382      19.52971727       53       0.40555300       0.08992800      -0.21043900 
I       3.76762954      19.94824416      -0.24177652       53      -0.44290500       0.03970700       0.00901100 
I       3.49047449      19.48614674       5.90155769       53       0.36355900       0.17043300       0.22159200 
I       3.50962669      20.08724500      11.71366066       53      -0.58463700       0.02326700       0.01861600 
I       3.17943148      19.56202150      19.33127173       53      -0.15548500      -0.17470400       0.15975300 
I       9.98983398       0.28000311      -0.75160905       53      -0.53709100      -0.00361300       0.06616600 
I      10.09020488      -0.00553129       6.16414794       53      -0.10584100       0.04854200      -0.07200700 
I       9.76197424      -0.16361266      12.49305821       53      -0.38758300       0.13247200       0.07333700 
I      10.27323797      -0.34496783      20.68384698       53      -0.08234200      -0.12156200      -0.47858300 
I       9.82436527       6.55473788      -0.25549468       53      -0.13656600       0.08986600       0.29905900 
I      10.47765808       6.80240707       5.05246162       53      -0.68229600       0.09508400      -0.12266300 
I       9.91522048       6.28165016      13.22588361       53       0.32613400      -0.12705300       0.10677500 
I      10.24605450       6.40343676      20.10367302       53      -0.39836300      -0.14331000      -0.16501300 
I      10.04271342      14.42911308       0.20556773       53       0.01716600      -0.13919700      -0.02130900 
I       9.90192819      13.53601754       6.14782230       53       0.39307100       0.14431300       0.29330000 
I       9.73327563      13.43371893      13.05430519       53       0.02430800      -0.13425400      -0.05920700 
I       9.67580778      14.31576930      19.27506718       53      -0.48746500       0.00253200       0.01066800 
I      10.38356784      20.57209614       0.13074742       53      -0.14784300      -0.46083800      -0.00645000 
I       9.78133937      19.62998273       5.78238062       53       0.50855600      -0.19182200       0.05368100 
I       9.45705219      19.45771636      13.28523310       53       0.94717000       0.11429200       0.11150900 
I       9.88815576      20.03270710      19.57993497       53      -0.03013000       0.17780400      -0.03931800 
I      16.30249846      -0.78053595       0.11554483       53       1.05761300      -0.11459900       0.08730800 
I      16.46309313       0.17759393       6.72935579       53       0.07833000       0.02396400      -0.12166800 
I      16.65261061      -0.45536528      13.89822521       53       0.73557500      -0.09012200      -0.07591800 
I      16.92612420      -0.28296991      19.34062363       53      -0.79933500      -0.16634300      -0.16238500 
I      16.30986020       7.62307889      -0.41329248       53       0.24477600       0.03084500       0.05753100 
I      16.39449821       6.80761792       6.98235561       53       0.43310100       0.01168000      -0.00579200 
I      16.35804270       7.07233653      11.46765608       53      -0.09603500      -0.16864800       0.41552100 
I      16.32618073       5.74306886      18.87549593       53       0.22850300       0.23495900       0.01042000 
I      16.37278870      12.61876471      -0.50144807       53       0.01477600       0.06039100      -0.05937200 
I      16.79381147      13.65907255       6.98179972       53      -0.87943100      -0.02401700       0.21415500 
I      16.40857469      14.29076129      11.90015706       53       0.26720500      -0.23569300       0.14031300 
I      15.87906478      13.39340902      19.96993012       53       0.07507400      -0.22075200      -0.18018000 
I      17.03523992      20.16862853      -0.02301478       53      -0.31863000       0.37270700      -0.31915500 
I      16.87278408      20.86111229       6.28603281       53      -0.28713100      -0.05860400       0.32075500 
I      16.71332987      20.89932454      12.58828275       53       0.27974000       0.13107900      -0.08470300 
I      16.49961928      19.73350369      19.09765855       53      -0.45921700      -0.20739700      -0.05281700 
I      22.57488784       1.17262158       0.51508127       53       0.28490800      -0.03940200      -0.19177200 
I      23.28968717       0.27746832       6.55275182       53      -0.11123300      -0.07545500       0.07854000 
I      22.98965964       1.34424504      13.17900229       53      -0.50298400      -0.44209000      -0.03053100 
I      23.07332918       0.50170503      20.32420480       53       0.80553600       0.19818400      -0.04207100 
I      22.85109184       6.32027294       0.51160975       53       0.12067600       0.28430200       0.38922900 
I      23.53708813       7.54055287       6.06548567       53      -0.55045700      -0.10685100      -0.13069300 
I      23.07380420       6.43440705      13.82454740       53      -0.41864600       0.05725400      -0.20988700 
I      22.91516283       7.16945295      19.57867065       53      -0.00294500       0.16585300      -0.38260300 
I      23.12385707      13.43722115      -0.18531398       53      -0.14953200       0.37464400       0.03997900 
I      23.38381528      13.66128076       5.50672945       53       0.17577000      -0.00492900      -0.40580200 
I      22.88037398      14.32785869      12.92080697       53       0.21214900      -0.35689100      -0.23901100 
I      22.46074554      13.13247826      19.24501928       53       0.29068000      -0.04470400      -0.10332300 
I      23.54109506      19.42902697      -0.13809278       53      -0.24451100       0.05990500       0.10704600 
I      23.38997310      19.87687592       6.33419790       53      -0.05142600       0.20983600      -0.16608900 
I      23.52572253      19.07292899      13.50697290       53       0.09568000       0.24388500      -0.14756200 
I      22.55422562      19.38227464      19.63641798       53       1.98468200      -0.25485800      -0.06456000 
I       0.84991301       3.07636609      -0.23527165       53      -0.65884600      -0.00970500       0.58568900 
I      -0.55892821       3.19804621       6.85899245       53       0.64897300      -0.26217500      -0.03789900 
I      -0.06717908       3.26948407      13.04355281       53       0.07028400      -0.31227700       0.17261100 
I       0.62053403       2.91343728      18.73653809       53      -0.17847600       0.24466600       0.11300600 
I      -0.11908391       9.87672055      -0.05379466       53       0.06661400      -0.05381500      -0.29464600 
I       0.33530164       9.76498507       6.47887131       53      -0.04294100      -0.09958600       0.08279900 
I      -0.86765142       9.67939191      11.42363408       53       0.59431900       0.20861700       0.38151000 
I      -0.14738940       9.51675487      19.78881144       53      -0.05542000      -0.05104500      -0.10098800 
I       0.58995890      16.89719013      -0.04044504       53       0.12247900      -0.55079800       0.15722400 
I       0.31953394      16.57080530       4.92602416       53      -0.26588800       0.18647200       0.04694400 
I       0.84078224      16.02572322      13.11079332       53       0.07226900       0.01027400      -0.04638700 
I      -0.13268844      16.03022769      18.65915638       53      -0.05450500      -0.01517900       0.08188700 
I      -0.79123919      23.27468523       0.25407168       53       0.18336300       0.02464700      -0.17465500 
I       0.33483789      23.10668480       6.42700641       53      -0.12086900      -0.22220100      -0.09590100 
I      -0.21605086      22.83826126      12.35792404       53       0.08149900      -0.18317400       0.20890500 
I       0.07724146      22.78925567      19.00345058       53       0.01012400      -0.28202400       0.05990400 
I       6.69192875       3.95716647      -1.59062329       53      -0.09181700      -0.06142200       0.17413600 
I       7.19126791       3.27662877       6.60507536       53      -0.04603000      -0.15049500      -0.00437200 
I       6.52271723       3.09951293      12.11502550       53      -0.18875300       0.12652800       0.17649300 
I       6.66116013       3.07197218      20.10864943       53      -0.02592200       0.20817300       0.19931000 
I       7.06971780      10.31520327      -0.12755437       53      -0.29054300       0.35739900       0.17622800 
I       7.00905177       9.62207455       6.37037700       53       0.07245400       0.31603000      -0.29738800 
I       7.36340631       9.81464073      13.33402882       53      -0.47023100      -0.22308200       0.45388200 
I       6.76953875      10.08651326      18.87426539       53       0.16675800      -0.43703300      -0.26823500 
I       6.73850089      16.89697003      -0.73872524       53       0.03294200      -0.15604200      -0.16968500 
I       6.16393909      16.56818247       6.78646943       53       0.06646300      -0.59596600       0.07739600 
I       5.85715281      16.16719026      12.43897076       53       0.13569600       0.22257700       0.16882500 
I       6.92985803      16.95388301      19.44801946       53      -0.36689700      -0.12694100       0.32470200 
I       7.24290349      23.42325705      -0.13173329       53      -0.23570600       0.41957300       0.06146200 
I       6.77560239      23.10701956       5.19892453       53      -0.03521800       1.60770900      -0.43260400 
I       6.99808031      22.95485952      12.47083171       53      -0.05790200       0.35920400       0.13138500 
I       6.98075857      23.43046932      18.20568093       53      -0.00882000      -0.48515200      -0.23457300 
I      13.57614829       3.54350953       0.56133708       53       0.02081600      -0.06122200      -0.30853900 
I      13.16202760       3.65858753       6.25325254       53       0.11783400      -0.10459400       0.13232600 
I      13.41979499       3.47144207      13.19397557       53       0.10251600       0.33536800       0.23079500 
I      13.22562562       3.22171312      19.13093431       53      -0.06483400      -0.24900600       0.01145600 
I      12.37138320      10.10757679       0.60130301       53       0.11214600       0.22451900       0.22924700 
I      13.61541500      10.36482412       6.70120591       53      -0.00074300       0.24924900       0.07620800 
I      13.46507517      10.39723687      12.16405054       53      -0.21178700      -0.26852700      -0.07944400 
I      13.29748014       9.93357415      18.99978149       53      -0.07582600       0.03993000       0.11873600 
I      14.31899921      16.75263139      -0.23664961       53      -0.48600400      -0.26710400       0.00751300 
I      14.32169371      17.24143008       5.46635402       53       0.22019100      -0.54557300       0.59410500 
I      13.27446332      16.97676163      13.99725296       53       0.05197700      -0.33169200      -0.26307700 
I      13.07831812      16.38097456      20.22319611       53      -0.09252200      -0.18467000      -0.33019700 
I      13.46788023      23.36413995      -0.77443239       53      -0.09438600      -0.00612200      -0.13308400 
I      13.28969560      23.82423390       6.51478117       53       0.07266300      -1.02018100       0.05541400 
I      12.89316794      23.30761394      13.07036364       53       0.28352500      -0.08260900      -0.75195500 
I      13.61913733      23.07426898      19.28433820       53      -0.05295400       0.04194100       0.15629400 
I      19.33627477       3.87162961      -0.49156792       53      -0.33551200      -0.47922900      -0.28560800 
I      20.14738277       3.57284184       6.41847965       53      -0.06355200       0.02551100      -0.31412500 
I      19.12032423       3.55867937      12.90539758       53      -0.07414800       0.02389000       0.02451400 
I      19.10177911       2.99905706      19.88051737       53       0.31456400       0.77351700       0.35814800 
I      19.96981546      10.18726807      -0.02859418       53       0.10832500       0.12831900      -0.07548800 
I      19.76002889      10.60089736       6.84240780       53      -0.06841100      -0.38386100      -0.45692400 
I      19.74855681      10.22654502      12.52492223       53       0.32365000      -0.49108500       0.19915700 
I      18.60727816       9.50659626      18.98839746       53       0.07693800       0.50888600       0.11008000 
I      19.56968525      16.89422230       0.02313046       53       0.32460100      -0.47281400      -0.10486500 
I      19.57741759      17.09468564       5.55070231       53      -0.30950400      -0.18320200      -0.20048400 
I      19.63906641      17.24135944      12.94011887       53      -0.16922700      -0.48696500       0.16705300 
I      19.37427818      16.13998837      19.39294410       53      -0.22274800      -0.05694600      -0.11299300 
I      20.91573720      23.42699781      -0.47884791       53      -0.01456300       0.04292900      -0.00346800 
I      20.29124640      23.14640196       7.20802454       53      -0.04867700       0.50447400       0.01752300 
I      21.65386355      23.42410880      12.83176994       53      -0.33886300       0.43728900      -0.16054400 
I      20.49017720      23.15489289      19.55914990       53      -0.24424600      -0.09916200      -0.00887600 
H       3.50843198       1.91700915       3.14218461        1      -0.41424200       1.01899000      -0.44465300 
H       4.83304776       2.31948476       9.69550359        1      -1.65955800       0.02024700       0.57415400 
H       4.15542262       4.12865070      15.08238439        1       0.94465100       1.67956200      -0.31939600 
H       3.07715232       2.87600307      23.94438352        1      -0.91513500      -0.22955100       0.91197900 
H       4.35619308       9.38581601       3.47963612        1       1.42855200       1.18871300       3.03593100 
H       3.00559571       9.23100856      10.96220312        1       0.14468500       1.17270700       0.01021800 
H       2.68076697      10.01954098      16.04220549        1      -2.47998000      -0.28006800       0.51335200 
H       1.89044095       9.31771658      21.71250051        1      -1.54393900       0.22584100       0.03772200 
H       4.34909035      16.42137558       1.81078448        1      -0.56485600       0.69438700       1.58137800 
H       3.20613788      17.01293357       8.14665723        1      -0.99070700      -0.05119400       1.30533800 
H       1.77902283      16.32921817      16.18843806        1       1.99515500      -0.53502900      -0.01780100 
H       2.34454907      16.76986304      22.50759308        1       0.36620400      -0.25400300       0.40910200 
H       2.68080996      22.60170071       3.95761999        1       0.31244900      -0.04935500       1.36644000 
H       2.02789287      23.56721486       8.53484035        1       1.75122800      -0.27171100       1.82924000 
H       3.60512047      23.20053547      13.73020021        1      -0.91198900       0.43531000      -1.06905100 
H       1.25574036      22.85462170      23.18319837        1       0.67494200       0.28833100      -0.70794500 
H      11.00024236       2.70908883       3.33371784        1       1.38772100      -0.92529300       0.98169800 
H       8.64825989       2.92457357      10.15846914        1       1.45158300       0.04128900      -0.25440100 
H       9.35047228       3.87349078      15.36269154        1       0.95746900      -2.15756100       0.95797200 
H       9.55890445       3.41848279      21.53232880        1       2.51899700      -0.65971600       1.47382000 
H       9.73153936      11.37669031       4.06826313        1       0.47222100       0.57929300       0.24152800 
H       8.84313973      11.44276682       9.13671870        1       1.17314800      -1.56220800      -0.29680000 
H       9.73789579       9.19410875      15.56783442        1      -1.09020300      -1.56936600      -0.68607900 
H      10.62101700       7.68572995      23.36415223        1      -0.96937800       2.11756400      -0.89734600 
H      11.80143439      16.23962320       3.99980846        1      -0.96403400       0.45744700      -1.07807100 
H       8.03430136      15.90209184       9.75091883        1      -0.01162600       0.84365000      -0.06900300 
H       9.73771356      15.36778876      16.34436037        1       0.82849000       1.16388500      -1.24608400 
H      10.83486886      18.05348608      23.11083608        1       0.30848300       0.92068800      -0.12301000 
H      10.42712097      22.29231002       2.57666247        1      -0.08869500      -0.10224900      -0.06006900 
H      10.12166657      24.04215616       9.72662335        1       0.29142600       1.18585000       0.62913100 
H      10.03177676      24.55876281      15.39043295        1       0.20386700       0.33836300       1.00723800 
H       8.97251329      23.63498567      23.21787257        1       0.87516200      -0.48394000       0.10881400 
H      17.03352720       3.42038900       2.05560152        1      -0.04986800      -0.05593400       2.06735400 
H      16.15641331       2.11965306       9.19906776        1       0.46356100      -0.38455300      -0.59501600 
H      16.02835015       3.79109989      16.29630174        1      -1.04176500       1.06824700       0.01080800 
H      16.29838404       2.86860857      21.54865853        1       1.82513500      -2.45635300      -1.25475000 
H      15.24316845      10.48541191       2.89890422        1      -2.42686900      -0.50191400       0.05033000 
H      17.78517105      11.53528254       9.13637472        1      -0.83040500      -1.31675000       0.93986400 
H      17.09369773      10.54116704      14.97530899        1       1.07209200      -0.25691400      -1.23653500 
H      14.82693475       9.83822779      22.30621553        1       1.64003000      -0.73642600      -0.36090500 
H      17.65057333      15.51304878       2.56353091        1       1.24709300      -0.18479500       0.31043300 
H      16.51760646      18.51493546       9.34461545        1       0.67219900       1.98274800      -0.24032300 
H      16.40430465      15.79967755      14.71879671        1       1.15915500       0.75569200       0.52659300 
H      16.30987966      15.38092237      24.04540757        1      -0.52140800       0.17895300       0.83836100 
H      16.55254273      24.04342151       4.53088061        1       0.39320000       0.03482700       0.70491600 
H      17.71716479      23.41777388       9.97817150        1       2.85863100      -2.04228800      -0.01811700 
H      15.55621493      24.06727371      15.71809951        1       0.41413500      -0.46717500      -0.25073600 
H      17.13662330      21.76256158      23.18981995        1       0.69298500       0.93920400      -0.63987700 
H      24.42662310       2.89469356       4.28670136        1       0.37615700      -1.51850000       1.97651600 
H      23.32560828       3.91118605       8.21687478        1      -0.99503800      -1.16768100       1.94086100 
H      23.08747322       3.32345583      17.89754944        1       0.69630200      -0.80175800       1.95428400 
H      22.77502768       5.39877772      21.87587772        1      -1.36176500       0.11570800       1.07441000 
H      22.84539265      10.60938317       1.18861246        1       0.49443100       0.37606900       0.64146500 
H      24.23284378      10.77785453       8.58066824        1       2.71478500      -0.06480600       0.62043400 
H      22.06779792      10.35356601      17.33976680        1       0.39564900      -0.91046400      -0.97352200 
H      23.81986763       9.43870363      22.96503246        1      -0.42719600      -0.15506100      -0.43211200 
H      22.23300455      18.21249599       2.94164449        1       0.87986300      -1.20891900       0.81673700 
H      22.26500575      17.33435632       8.56157849        1       1.76637400      -0.75349500      -1.05963400 
H      22.37855019      17.10499781      17.37385849        1       0.08523900      -0.92446200      -0.88636100 
H      21.66468861      15.95578617      22.99101917        1       0.25273700       0.56464400      -0.07270900 
H      22.25991263      23.27053395       2.75481332        1      -1.23836900       0.29094900       0.79681100 
H      23.10030483      23.96561187       7.93413624        1       0.80347200       0.81665000       0.56390700 
H      22.48417494      22.04851468      15.91493573        1      -0.70854000       0.34422700      -0.67238900 
H      25.07178635      24.57994816      21.74754019        1      -0.01118100       2.15629500      -1.28609500 
H       4.17335144       3.58379078       3.28351140        1       0.85302500       1.05784600      -1.37031600 
H       3.34290082       2.72015755       8.61178083        1       0.47859700      -1.60263000       1.65477500 
H       2.82356180       4.46370050      16.33507194        1      -0.36378200      -0.36729000      -0.62986900 
H       2.95188705       1.80449460      22.58382717        1      -0.09857500       0.03719900      -0.79870500 