768
Lattice="25.0423492892 0.180343899561 -0.135414519216 0.179651741854 24.8198898022 -0.122693544167 -0.131650359431 -0.128658863639 25.1817056711" Properties=species:S:1:pos:R:3:Z:I:1:forces:R:3 energy=-99808.8139055 stress="2148.093999 -1330.450165 -179.777998 -1330.450165 1065.101579 -304.852063 -179.777998 -304.852063 -461.278112" pbc="T T T"
I       0.26880853       0.02307291       3.12473370       53      -0.17834400      -0.04255100       0.17140900 
I       0.68723995      -0.42093203       9.59288463       53       0.03887300      -0.11328200      -0.16798400 
I      -0.33491793      -0.42902585      15.55972194       53      -0.00794300       0.18671800       0.36515200 
I      -0.13697261      -0.70244386      21.75292428       53       0.03244500       0.03559400       0.37653900 
I      -0.40942846       6.90850854       3.12820332       53      -0.10428400      -0.41333100       0.13487400 
I      -0.07211989       7.15226391       9.64606591       53       0.17901800      -0.53380800      -0.27673300 
I      -0.01524612       6.84686331      15.79624843       53       0.27523900       0.10596200      -0.00158200 
I       0.34889166       5.94018875      22.07529992       53      -0.20044700       0.69735900      -0.05316700 
I      -0.55965909      12.46299658       3.27766619       53       0.18883900       0.24016400      -0.05017500 
I       0.11648572      11.56351653       9.42531963       53       0.24492000       0.16251300       0.33656600 
I      -0.05810787      13.61017287      15.40727249       53       0.29851300      -0.25383000       0.56790600 
I       1.03390886      12.65727298      22.12210451       53       0.05405000      -0.02314000      -0.18160300 
I      -0.36156159      17.94982007       3.34817693       53       0.36168000       0.39480200      -0.09347800 
I      -0.02683903      19.22165151       9.22875863       53       0.22872700      -0.18855400       0.67950600 
I       0.15600449      18.61537732      15.48103883       53       0.06171700      -0.00502100       0.33004300 
I      -0.01272196      18.97562233      22.02145103       53       0.06814800      -0.10327500       0.19697600 
I       6.81447524      -0.26243577       2.88809627       53      -0.35180200      -0.02484100       0.54890000 
I       5.37986205      -0.41746142       9.50852190       53       0.03048400      -0.11421900      -0.07479600 
I       7.18022315      -0.05093986      15.63235530       53      -0.49373800       0.66540300      -0.02041900 
I       4.32433529      -0.16396676      22.22143748       53       0.40495700       0.13736400      -0.14082100 
I       5.52610859       6.28439239       3.22237506       53       0.29817400       0.00204700       0.02594900 
I       7.05001012       6.73515004       9.39807513       53       0.01777800       0.24919600       0.80019400 
I       6.48512598       5.14251381      15.58579813       53      -0.16563200      -0.36755500       0.35584000 
I       6.21937473       5.96555706      22.22391354       53      -0.02813600      -0.03840200      -0.53909800 
I       5.94080138      12.40239891       2.75876292       53       0.41891500      -0.04661100       0.39434000 
I       5.81875876      11.89843152       9.20024467       53      -0.02667700      -0.00590200      -0.00692500 
I       6.37160132      13.04683701      15.63677235       53       0.10236100      -0.28581500       0.51478000 
I       5.37170735      12.70697285      21.94824431       53       0.00174800       0.12042100      -0.08577900 
I       7.21527873      19.28383476       2.87609592       53      -0.23623200      -0.45089200       0.47744100 
I       5.97469944      17.67904110       9.28310528       53       0.26885300      -0.09106400      -0.11481300 
I       7.23549464      19.15286183      15.65970191       53      -0.13763600      -0.15460600       0.12062300 
I       5.43951721      18.10554868      22.09371917       53       0.34723500      -0.15263900       0.07517800 
I      11.00083355       0.19386208       3.03912802       53       0.19729500       0.28007400       0.20962700 
I      12.63939764       1.27413962       9.25369692       53       0.32178500      -0.12539700       0.17217200 
I      11.96536562      -0.14608258      15.88837806       53       0.19435300       0.03222000      -0.03123700 
I      12.04523571      -0.12624858      22.29638098       53       0.38205900      -0.27710800      -0.72268100 
I      12.59956862       6.70073065       2.46020044       53       0.08990800       0.00611700       0.17034800 
I      12.45866397       5.60151647       9.06798561       53       0.08661000      -0.02983100       0.27215100 
I      12.23021462       6.16843683      15.45775288       53       0.19894300       0.07855500       0.34688200 
I      12.96626887       5.72299162      21.42683160       53      -0.06908700      -0.19611400       0.30263600 
I      11.82383263      11.08805131       2.53234291       53       0.17439400       0.15781000       0.20241600 
I      12.17038077      12.45959961       8.98342750       53       0.31706000      -0.10401200       0.10302500 
I      13.56487041      12.51560351      15.41572270       53      -0.34258800      -0.18833500      -0.13696000 
I      12.83154749      13.39280099      21.64757591       53      -0.03648800      -0.17509900       0.37371800 
I      11.98802225      18.37970596       2.83533225       53      -0.14828200       0.09895500       0.72251500 
I      12.34336817      18.38699473       9.28616746       53      -0.04337600       0.07510200      -0.27215200 
I      12.84766053      18.47090780      15.16511842       53      -0.32175800      -0.29423800       0.47224100 
I      13.05783102      17.57714272      21.85091319       53      -0.13759800       0.36582200      -0.13747100 
I      19.20117935       1.40254812       2.58694777       53      -0.04140200      -0.28992200       0.37274400 
I      18.56465836      -0.27044025       8.94590961       53       0.23144300      -0.03179000       0.29192900 
I      17.99514216       0.53903868      15.50437485       53       0.48951700      -0.32063600      -0.04105400 
I      17.84162158      -0.64397862      21.81180186       53       0.30307400      -0.07754200      -0.11463700 
I      19.68602846       5.61064804       2.75540031       53      -0.18693700       0.01214500       0.80052900 
I      19.16012016       6.66263253       9.10332001       53      -0.14381600      -0.37115300       0.66075500 
I      18.54585916       5.63562561      15.63033086       53       0.36953300       0.18685300      -0.11534700 
I      19.65148537       6.12249131      22.06636568       53       0.18060900       0.14190500      -0.47799200 
I      18.91473111      13.25605321       3.17046421       53       0.15454200       0.12130300       0.54309800 
I      19.01159195      11.28692933       9.17838034       53      -0.02575700      -0.15912000       0.49024300 
I      18.95060059      12.43217544      15.81836213       53       0.11442600      -0.10853700      -0.24478500 
I      18.84787555      12.22941054      22.20474225       53      -0.03565800       0.02139500       0.00890400 
I      18.23292042      18.18889232       3.38957385       53       0.18759100      -0.24988600      -0.22207400 
I      19.39627161      18.79072295       9.30751439       53       0.12255400       0.21505100       0.18240100 
I      18.85846899      18.93398978      15.39854541       53      -0.16569700      -0.66948100      -0.00949100 
I      19.13604976      19.51212604      21.90010646       53      -0.21931100      -0.37976000       0.09406300 
I       2.74780032      -0.35714160       0.29240865       53       0.16496100      -0.33952400       0.04445400 
I       3.48393213       0.52457700       5.71074976       53      -0.69887200      -0.18064200       0.17622800 
I       3.34281443       0.66174597      13.47359396       53       0.07094900      -0.45954500      -0.42148300 
I       3.21239621      -0.06840973      18.26353343       53      -0.45801800       0.08213600      -0.24918100 
I       3.54676139       5.29194133      -0.14920662       53      -0.16746000       0.48237200      -0.10190300 
I       3.11411570       6.45315124       6.52017174       53       0.02681500      -0.11421300      -0.16908700 
I       3.35599586       5.79443801      12.26783854       53      -0.58412100       0.00778300       0.07022400 
I       3.14069259       4.96568862      19.01121200       53      -0.38151900      -0.10503200      -0.21237200 
I       3.01028616      11.61145901       0.52215297       53       0.15709200       0.03566700      -0.23559100 
I       3.35451925      12.38492708       5.39764510       53       0.03574000      -0.25533400       0.00801800 
I       3.18406290      12.09907282      12.25132984       53      -0.09246100      -0.00238300       0.02592800 
I       3.26604186      13.32012836      18.09384679       53       0.18922800       0.21376100      -0.00060700 
I       3.43402216      19.55263740       0.51398944       53      -0.06051100       0.13487600       0.09130500 
I       3.21048271      18.50141674       5.13676939       53      -0.02696100      -0.02879800       0.30673300 
I       3.07724088      18.33236238      12.26054585       53       0.13874500      -0.07837600       0.31566300 
I       3.04893801      18.77671486      18.75914976       53       0.13629400      -0.07826100      -0.41811100 
I       9.04073816       0.34614856      -1.14165474       53      -0.20330900      -0.10602100       0.19473500 
I       9.44620905       0.29747662       6.90136999       53      -0.75549600      -0.08541900       0.13141400 
I       9.54053002       0.54140478      12.26350004       53      -0.39624300      -0.05000700      -0.41962900 
I       9.08522574      -0.65763033      19.30012648       53       0.19015200       0.07380700       0.05414000 
I       9.64688275       7.03932635      -0.84664436       53      -0.02499800      -0.12631100      -0.03428200 
I       9.20489538       6.11425119       5.49832312       53       0.00701200      -0.05390900       0.14219600 
I       9.58674161       6.32759383      12.57930853       53      -0.39764300      -0.05126400      -0.21334600 
I       9.08389051       6.23013901      18.83363968       53       0.58247800       0.03212800      -0.33319000 
I       9.32048376      12.38756906      -1.13169945       53      -0.19644000      -0.05805900      -0.04270400 
I       9.40384802      12.79993502       5.53709083       53      -0.13390200      -0.21305300       0.33918200 
I       9.89251725      12.30282638      12.87141184       53      -0.20928200      -0.17579700      -0.09334800 
I       9.24886753      12.12391097      18.67638243       53      -0.08955600       0.30711800      -0.18108500 
I       9.37191059      18.85560022      -1.52979420       53      -0.16081800      -0.68746100       0.56102000 
I       9.33033989      18.57296130       6.35366020       53      -0.19976800      -0.00204900       0.02054500 
I       9.12690148      18.99852146      11.77309599       53       0.25033600      -0.15695700       0.14440100 
I       9.40966705      18.49120619      19.10235395       53      -0.45317000       0.33478500      -0.07811700 
I      15.40856844       0.19827717      -0.16825127       53      -0.25632600       0.27891400       0.03947300 
I      15.52053502      -0.07156420       5.62429975       53       0.26603300      -0.04157300       0.00153500 
I      15.45104926      -0.15346265      11.84224697       53       0.21657500       0.05000900      -0.01677300 
I      15.30445320      -0.20116852      18.84054751       53       0.57570200       0.11880600      -0.04202300 
I      15.88079181       7.04529167      -0.63303958       53       0.33678000      -0.15409600       0.01587900 
I      15.65280685       6.63274604       6.68923004       53       0.10405300      -0.50397000      -0.81658300 
I      15.70637298       5.79816977      12.90510765       53       0.22865400       0.42561100      -0.16541000 
I      15.93206450       7.06860904      18.95519828       53      -0.31554100      -0.07437900      -0.27797400 
I      15.94745396      12.59397147       0.41470163       53      -0.12172100       0.16299200      -0.27020500 
I      15.43144107      12.20526061       6.12989592       53       0.53776400      -0.21899000      -0.01655200 
I      16.06536426      11.39175637      11.81760615       53       0.25044300       0.16783400       0.32720600 
I      15.70025057      13.17259175      18.86944436       53       0.22065500      -0.02725000       0.00745600 
I      16.08082637      18.13322713       0.21832519       53      -0.33713400       0.17435000      -0.15774300 
I      15.56458668      18.91829400       6.72342557       53       0.14149900      -0.21340400       0.13561200 
I      15.80180336      18.51545625      11.42626902       53      -1.07427100      -0.48423200       0.00706600 
I      15.60658544      18.69312675      18.43289018       53       0.14469100      -0.06607500      -0.14222800 
I      21.50599971       0.07504070      -0.77213481       53       0.95492500      -0.22496300      -0.01512700 
I      22.16790473       0.85258023       5.72851121       53       0.03966500      -0.12152700       0.32465800 
I      21.92033710       0.03337967      11.46478637       53       0.03922700       0.11925200       0.12468300 
I      21.56023641       0.34425470      18.80043574       53       0.53822800      -0.65887700       0.43585000 
I      22.31224072       5.53805396      -0.13644343       53       0.02203000       0.02262100      -0.15384900 
I      22.21675143       6.25331795       5.99617203       53      -0.92786600       0.48257300       0.51357400 
I      21.96590366       5.49722058      12.66993799       53       0.43028400      -0.40156400      -0.06683200 
I      22.17963901       6.98498853      18.43850501       53      -0.23611600      -0.36958500      -0.01727400 
I      22.30426078      12.77484063      -0.59315559       53      -1.11713300      -0.31278700       0.01778600 
I      22.30269680      12.37499045       6.44023587       53       0.41271800       0.09335200       0.05863400 
I      22.20744510      12.79129238      11.50751459       53       0.05293300      -0.14638900       0.16021900 
I      22.30716882      12.50825879      18.87490897       53      -0.15699800      -0.44185800       0.23626600 
I      22.31574962      18.34449232      -0.18271000       53      -0.04021600       0.18199300      -0.16024600 
I      22.05691503      18.35569251       6.25358794       53      -0.29117000      -0.00471500      -0.11371800 
I      21.85366415      19.63499434      12.42097524       53       0.13100200      -0.37226600      -0.26775400 
I      21.95264565      18.37991116      18.64330024       53       0.09823900       0.09916500      -0.07736300 
I       0.66791746       2.86408576      -0.33415705       53      -0.21635100       0.49689600       0.14155300 
I       0.24020327       3.36629281       6.58255626       53      -0.21464800      -0.11442400      -0.51429400 
I       0.00948011       3.10288017      11.80424996       53      -0.04247100       0.14215600       0.21018500 
I      -0.77770447       3.08968106      19.08794333       53       0.08488200       0.02876900      -0.39126100 
I      -0.40624945       9.17963408      -0.22225037       53       0.01934900      -0.00063600      -0.20835400 
I       0.22347956       9.65116333       6.08401421       53       0.06087600      -0.16787600      -0.16284200 
I      -0.21810429       9.26666727      12.57973855       53       0.19373300       0.50244000       0.45183000 
I       1.64401986       9.26484606      19.11644059       53      -1.14602000      -0.20301900       0.56374400 
I       0.89607326      15.44164573       0.60573028       53       0.15108600       0.66557800      -0.32121200 
I      -0.02080695      15.58566460       6.64868236       53       0.09828700       0.05238100       0.04445600 
I       0.87520937      15.21325528      11.91199192       53      -0.18951900       0.53738800      -0.27643700 
I       0.27331786      15.73108056      18.93329173       53      -0.39983800      -0.34239000      -0.22459900 
I      -0.43624786      21.87372101      -0.21602291       53       0.72551900      -0.43960600       1.01674700 
I       0.11377796      21.87625205       5.90908878       53      -0.26295100       0.02653000      -0.02965500 
I       0.21578041      21.64227231      12.83980625       53       0.30743800       0.41558100      -0.20131300 
I      -0.94638380      21.75346917      18.72770126       53       0.14935900       0.02167100      -0.36784600 
I       6.83403728       3.10004183       0.88030188       53      -0.52803700      -0.04807700      -0.81240000 
I       6.02728379       2.97698797       6.30237868       53       0.37830900       0.20144000       0.17514800 
I       6.29423380       2.89720035      11.06549581       53      -0.02794300       1.01148900      -0.22473100 
I       6.97167554       2.87125082      19.14972405       53      -0.34490300       0.17883500      -0.35502100 
I       6.31190296       9.28261733      -0.11727606       53       0.03831600      -0.11264100      -0.05916500 
I       5.92950399       9.11045955       5.91155502       53       0.07268300      -0.45848700      -0.27259000 
I       5.75478670       8.66350337      14.17387004       53       0.20086400       0.33939500      -0.16441000 
I       5.24345789       9.49119341      19.15487940       53       0.90011100      -0.20174900      -0.12488900 
I       6.29407180      15.63610965       0.13781989       53       0.18997700       0.04888300      -0.50250200 
I       5.70051368      15.20132366       5.83896976       53       0.17768300      -0.14878500       0.01512100 
I       6.32937479      15.11637775      12.42302423       53       0.14555700       0.15958300      -0.14616900 
I       6.85279623      15.66989381      18.92927918       53      -0.18971800      -0.64303000      -0.42656600 
I       7.59135992      21.89367283       0.00857490       53      -0.54181700      -0.16961200      -0.07959900 
I       5.90580962      21.46107622       6.66786053       53       0.22512300      -0.36839200      -0.22878600 
I       5.80889870      21.67022468      12.24001478       53       0.22194000       0.07089900       0.00809200 
I       5.84359397      21.56077835      19.06457981       53       0.08734800       0.59701800      -0.02295200 
I      11.79749529       3.23827210      -0.59533024       53       0.16162700       0.30025900       0.11093200 
I      12.25726669       3.38197288       5.22237408       53       0.32597400      -0.74840300      -0.11190800 
I      13.13250551       3.20124707      12.51562413       53      -0.26261200       0.47604400       0.13330400 
I      12.55496519       3.08002718      18.37496591       53      -0.16155300       0.32485000      -0.01689400 
I      12.88571251       9.61042519      -1.40731763       53      -0.12711800       0.05875800      -0.01612700 
I      11.42798125       9.22427187       6.49763882       53       0.16300300       0.14129200      -0.20508200 
I      12.75632811       9.25891216      11.27651064       53       0.03691900       0.02867300       0.27942600 
I      11.97537884       9.46984648      19.03721259       53       0.33999000      -0.24630100      -0.06351800 
I      12.24318104      15.57552768      -0.12718521       53       0.05763500      -0.16062100       0.12787200 
I      12.44010825      15.45958489       6.39687047       53      -0.00324700      -0.36090700      -0.13315400 
I      12.74396156      15.56791297      12.01002011       53      -0.13267700      -0.12588800       0.19932200 
I      11.96700422      15.65690579      18.22598019       53      -0.07807000      -0.98893200      -0.28317300 
I      13.45030408      21.80249357       0.30382680       53      -0.47747800      -0.11638300      -0.01565900 
I      12.43904400      21.87446521       6.55331873       53      -0.05753800       0.04099000      -0.00174500 
I      12.28739372      22.14323348      11.63166118       53      -0.07502800      -0.44155400      -0.00493400 
I      12.41073524      21.55236054      19.00244958       53       0.22061700       0.40264200      -0.30742500 
I      18.27955320       3.26109760      -0.86407495       53       0.13416200      -0.04766000       0.03873800 
I      18.93204192       3.28101309       6.47627225       53       0.02748600       0.31117600      -0.03340000 
I      18.64119627       3.02053303      12.03053841       53       0.31014100       0.07737200       0.32632000 
I      18.08843127       3.31521746      18.98346580       53      -0.00677200      -0.19713500       0.08554400 
I      19.32275759       9.33445356      -0.24424135       53       0.10915400       0.12671300       0.08221700 
I      18.58234029       9.45378744       5.18560431       53       0.30000300      -0.10070800       0.08814300 
I      20.91206557       9.35260184      13.36156259       53      -0.41935400      -0.42052300      -0.14617300 
I      19.02685280       9.57850444      19.08897224       53       0.05997400      -0.43375000      -0.13741400 
I      19.82480755      15.59510740      -0.14125613       53      -0.35238900       0.07904100      -0.32243100 
I      18.70651142      15.34554773       6.98063432       53      -0.08721100       0.22358500      -0.16594800 
I      19.19107974      14.86307945      11.66737062       53      -0.49321500       0.58072100       0.06289900 
I      19.26863871      15.58299513      18.33899335       53      -0.22474900       0.04391700       0.16908600 
I      18.29739319      21.84340647       0.70161916       53       0.25172400      -0.06970500      -0.23575200 
I      19.07613934      22.16585280       4.68299080       53       0.21886400      -0.32316700       0.10715300 
I      17.71777444      21.62121599      12.94271980       53       0.28816300       0.14842500      -0.35853000 
I      18.71990589      21.70012393      17.68366923       53       0.13744400       0.65923200       0.14962000 
H       3.75682193       3.11693440       1.99408868        1      -1.57310600      -0.01865200       1.48259200 
H       2.08760361       3.76260857       8.08649224        1       0.93699600      -0.18315100       2.17572100 
H       0.42390389       3.70706905      14.95326220        1       1.53482100      -0.36165600       0.99838700 
H       1.85047430       2.76486078      20.49321492        1       0.20407100       0.44750400       0.53854000 
H       2.93420379       7.16524309       2.00617150        1      -0.61311000      -0.49357800       0.73171100 
H       4.15621656       9.57978763       8.59423066        1      -2.11013600      -0.50951900       1.84577300 
H       3.52500113      10.90173326      15.59605482        1       1.31121300       0.07957100      -3.02009400 
H       3.04695186       8.95073998      21.36493110        1       0.73507100       0.52568200       1.51487800 
H       4.89283730      16.61502780       3.08238444        1       0.11116200      -1.35418400       0.15350600 
H       3.57291514      15.64972208       8.11181735        1       0.45233900       1.60009700      -1.31476000 
H       4.92887958      15.67765776      16.05355438        1       0.48760200      -0.67995500       1.07768300 
H       3.32491160      16.33599203      20.63144225        1      -1.39812200       0.04195400       1.16058000 
H       2.42828363      22.82555371       4.33237217        1       1.63889200      -0.84054600      -0.30474500 
H       3.46894912      19.19226279       9.74726918        1       1.02439000       1.43557300      -0.93240000 
H       3.42709862      21.09614908      14.05948042        1       0.40575700      -0.73185200       1.11844300 
H       3.22029662      21.38608364      21.16500257        1       0.09029900      -0.25411800       0.31473500 
H      10.36847827       3.97412018       3.48113797        1      -0.67022300      -0.47508200      -0.84511700 
H       9.95423415       3.60852935       7.72674204        1      -0.14202600      -0.35842200      -0.02909300 
H      10.76946830       2.43076852      14.94875777        1       1.94138800      -0.68470900       0.13798200 
H       8.25758871       2.10314426      21.25821216        1       2.51300500       2.07795900       0.49376500 
H       9.31674316       7.73228127       2.98513579        1       0.38255900       0.58526200       0.60113700 
H       7.95415561      10.60485454       9.49048064        1      -0.60831000      -0.14048600       0.56094800 
H      10.23956807       8.58300788      16.65268216        1       0.90221600       0.69684000       0.95843500 
H       9.93774804       9.00597515      21.20124415        1      -1.59078800      -0.03319100      -0.25220900 
H       9.48707385      14.17394760       3.12911736        1       1.40657400      -1.73614600       0.65402400 
H      10.87510040      15.17942694       9.34358415        1       4.47304800       1.44771300       0.41493600 
H       9.91033663      14.41866511      15.09586926        1       0.62865600      -1.84070000       1.78185000 
H       9.61069910      16.11539106      20.72560024        1      -0.98792600       1.73041100      -1.22748500 
H      10.07657818      22.70289355       2.89041819        1       0.14215700       0.07868900      -0.34205300 
H       9.30213716      20.64664812       8.76848651        1      -0.85489500      -0.18337100       1.29781400 
H      10.49342795      21.56176701      14.58885147        1      -1.00437300       1.58897600       1.64851100 
H      10.16695533      20.22163580      21.65248287        1      -0.82744000      -0.41257300      -0.19053200 
H      16.28759891       2.09234366       2.12418488        1      -2.10478200       1.30953200       0.97978700 
H      16.99935794       4.52609190       9.23995391        1       0.74786400       1.39684300       0.58162900 
H      16.19470546       2.65038182      15.09081799        1       4.37086200      -0.08830300      -3.27969300 
H      16.57498378       2.08235106      22.12765060        1       1.03578800      -0.18487700       0.36446700 
H      16.56740637       9.66863123       3.05792526        1      -0.86543200      -0.17007700      -0.66810300 
H      14.93490382       9.52396340       9.61684114        1       0.20838000      -0.74924600       0.28138900 
H      16.57577902       8.86598061      15.80377675        1       1.10725600      -0.32620900      -0.51750700 
H      16.51357810       9.62351433      20.77568595        1       2.55080100      -0.71020100      -0.80418900 
H      14.84414378      15.06357152       2.34932267        1       0.91620400       1.36346300       1.01942500 
H      15.41035824      14.91813887       8.25585979        1       0.92845800      -0.22299800       0.71384900 
H      15.85317227      14.02721016      15.11626190        1       1.03374300       2.22565800       0.88178200 
H      15.78683705      15.34008018      21.15949084        1      -1.31268200      -0.00843700      -1.12205600 
H      16.00781306      20.58267999       2.51660884        1      -0.36754100      -0.00558200       0.86326400 
H      16.81883634      22.83773961       8.92474333        1      -1.79824100      -2.06075200      -0.47183500 
H      15.56258875      21.59712988      14.57627384        1      -0.15069400      -0.59404200       0.55795800 
H      15.59109092      22.01612485      21.27412885        1      -0.37984200      -0.51509200      -0.73947200 
H      22.82301187       1.93394067       2.93433633        1       0.46772000       2.12155600       0.58643800 
H      23.37842376       2.90038918       9.09270006        1       0.26248500       0.66684400       0.10275800 
H      21.38485837       3.33651923      14.90639772        1      -0.14194400      -0.89504400       1.24559800 
H      22.88959646       1.76099353      21.96688642        1      -1.05236300       2.07886800      -0.74832800 
H      21.31957072       9.00894897       2.60383446        1      -1.39770900      -0.48165200      -0.24438100 
H      22.34883181       9.02060275       7.97781660        1       0.50333300      -0.32813300      -0.20289000 
H      23.74778759      10.36505381      16.96735571        1      -0.51962900      -0.51281100      -0.09431300 
H      23.46569847       8.44211599      21.54916090        1      -0.24194200       1.42345600      -0.73943900 
H      22.64967398      16.76211868       2.80002337        1       1.49570300       1.74503200       0.88113600 
H      21.03376653      16.16750710       8.58926970        1      -0.77102500       1.37444800       0.73358200 
H      21.01314023      15.65015210      15.04020604        1      -0.51584200       0.75612000      -0.38028900 
H      21.92119714      13.64663142      22.16592742        1       0.02832000       0.00801800      -0.44441300 
H      22.72082780      21.91695682       1.55839553        1      -1.04672500       0.24339500       0.88196700 
H      23.23082825      21.72385169       8.65852474        1       1.15618300       0.77666600       0.92128900 
H      21.03350537      22.97198385      15.04531132        1       0.71463700      -1.27282600       1.36526000 
H      21.82689384      21.02848649      20.65651800        1       0.70073500       0.44509400       0.80511500 
H       2.13518086       2.43865520       2.96055094        1       1.80109200       0.77448200      -0.77100700 
H       3.54099145       4.25155859       9.02226491        1      -1.48430200       0.34935900       0.94018700 
H       1.23193469       4.03095860      16.54617038        1      -0.10008400       0.76311400       1.03329900 
H       1.01959936       3.64800100      21.84550454        1       0.16314100      -0.59911000      -0.56777300 