768
Lattice="25.3544132076 -0.519268113894 -0.101563656194 -0.532332932294 25.3711792809 0.0911027307373 -0.117910700876 0.0901148092191 25.506423962" Properties=species:S:1:pos:R:3:Z:I:1:forces:R:3 energy=-99795.5496797 stress="765.146711 14.960615 2151.856898 14.960615 866.821721 -889.057721 2151.856898 -889.057721 2193.817536" pbc="T T T"
I      -1.73902385       0.10991268       2.60113031       53       0.37267200      -0.29623400       0.98200700 
I      -0.02196006       0.06828687       9.22186384       53      -0.10358100       0.01429400       0.13427700 
I      -0.72911270       0.72738926      15.40834571       53       0.27684500      -0.43393600       0.32251100 
I       0.01451515       0.30124803      22.09723399       53      -0.17317100       0.04928700       0.23907900 
I       0.35907299       6.16065492       3.38758289       53       0.10825500       0.05363300      -0.84112700 
I      -0.46643995       5.80480303       9.38191205       53       0.12027100       0.04938000       0.17653800 
I       0.55392030       7.19385421      16.63341572       53      -0.21786400       0.07983400       0.06828100 
I      -0.65582707       6.11001852      22.68070320       53       0.17031300       0.23239300       0.23336800 
I      -0.41995538      13.48546296       3.63489553       53      -0.32631100      -0.27142900      -0.17799000 
I       0.85172342      12.45069207       9.77026676       53      -0.39599400       0.04463400       0.05892500 
I       0.05014836      13.48795051      16.09180007       53      -0.04680800       0.18331400       0.13678500 
I      -0.25327074      12.67763401      22.75740022       53       0.23682400      -0.09894100      -0.11951300 
I      -0.37536680      18.80132470       3.40028882       53       0.07655100       0.04824100       0.07143500 
I      -0.41033646      20.27708522       9.76135772       53      -0.31678300       0.08840800      -0.27673500 
I      -0.67689977      19.48766888      15.90194364       53      -0.11704000      -0.40100700       0.23027600 
I      -0.29432272      19.76132314      22.45459439       53      -0.11167900       0.03221600       0.10506600 
I       5.72741683      -0.50057845       3.68077670       53       0.24369500       0.10481900       0.39807700 
I       6.13776906      -0.90647222       9.94421194       53      -0.14185200      -0.11085600       0.05567800 
I       6.25015154      -0.30705626      15.95123028       53      -0.07622800       0.37866900       0.10094500 
I       6.16795785      -0.10629227      22.00019091       53      -0.17712000      -0.15069400       0.24050700 
I       6.32423383       5.31215654       2.92046263       53      -0.02594700       0.10545200       0.31484200 
I       6.82729194       6.86714205       9.58631321       53      -0.04046700       0.20124100      -0.37509400 
I       6.43089879       4.82973139      15.84637552       53       0.12020800       0.37501900      -0.43204100 
I       6.37555546       6.32292251      21.91982813       53       0.30744900       0.32032800       0.75823300 
I       5.91529840      12.70008211       3.33505346       53       0.21599900       0.10984400       0.17983000 
I       6.42265526      12.93537307       9.68195328       53      -0.26372200       0.15178500      -0.00343200 
I       6.50486966      13.35178397      15.94912725       53      -0.19896200      -0.37341400       0.28735800 
I       6.24723806      12.50422815      22.18774219       53      -0.66187800      -0.36366000       0.39303800 
I       5.49253504      18.16320430       3.35432089       53       0.22203100       0.84264000       0.03957500 
I       5.67047627      19.12600383       9.56714142       53       0.13736700      -0.07975900       0.41594700 
I       5.37383952      18.85093276      16.01445824       53       0.09227800       0.06611600       0.24183700 
I       5.40614022      19.03081729      22.35133194       53       0.21883200       0.22637400       0.04173200 
I      11.40859755      -0.79370620       3.64248044       53      -0.36123100      -0.11852000      -1.07082600 
I      12.95286875       0.15088480       9.42058198       53       0.21228400      -0.01126400       0.04104400 
I      12.34174563      -0.95038149      15.76669699       53      -0.06802500       0.00441100      -0.75842900 
I      13.18750208      -0.03909783      22.87699492       53       0.16888700      -0.04339600      -0.14023500 
I      12.78741359       6.76228927       2.94340371       53      -0.49890200      -0.46796200      -0.37280400 
I      12.81464650       6.10462637       9.51824029       53       0.20241400       0.08529900      -0.02465600 
I      13.00755445       7.10045717      15.99559702       53      -0.24219700      -0.35431000      -0.35170700 
I      12.39310078       5.68969243      22.10237572       53       0.08616600       0.26967700       0.50448600 
I      12.35047621      11.02635672       2.60346504       53      -0.18110200       0.04459100       0.15268600 
I      12.03359890      12.03085698       9.18746800       53       0.26050200       0.26565800       0.08348800 
I      13.12686914      11.23973199      16.05455287       53      -0.04997300      -0.13352700       0.12190500 
I      12.50537974      13.41225817      22.31073448       53      -0.08378900      -0.12232800      -0.42677100 
I      11.31684508      19.00361889       3.24019722       53      -0.55671500      -0.94633200       0.06452600 
I      11.59450624      18.28434596       9.64759393       53       0.34372300       0.24962400      -0.15386400 
I      11.83111936      19.64824458      15.67189990       53       0.17652100      -0.21521600       0.54566400 
I      12.16517684      18.82793942      22.17957459       53       0.07785900      -0.33011200      -0.32361900 
I      19.61002621      -0.34764682       2.46990929       53       0.39756600       0.20796100       0.16858500 
I      18.86486915      -0.04616216       8.97653295       53      -0.16973800       0.05890500       0.06376200 
I      18.44229410      -0.20023749      15.75723779       53       0.22512600       0.08517700      -0.11296700 
I      18.51401208      -1.80315199      22.25975102       53       0.36284900       0.66973000       0.12490100 
I      18.79431164       5.98708244       2.77096112       53       0.16386900      -0.15601100       0.34943900 
I      18.46396133       5.73187234       9.34796186       53      -0.15067000      -0.03459400       1.13186000 
I      19.01798319       5.40981682      16.18163783       53       0.17991300      -0.06330300      -0.44932900 
I      19.28574245       6.91191896      22.30227207       53       0.43121900      -0.15136100      -0.24451700 
I      18.90862264      12.74608061       3.16047531       53      -0.31419800       0.09180900       0.10047300 
I      19.25614129      10.24491770       9.38920709       53      -0.86659000      -0.13218000       0.27333100 
I      19.95113816      12.15022590      16.08159155       53      -0.59088700      -0.28440000      -0.12725000 
I      18.78847580      12.21893771      22.33153309       53       0.07139400       0.25915800      -0.29054800 
I      17.35010841      17.73499850       3.66912770       53      -0.07961100      -0.13027700      -0.31115500 
I      18.46666481      19.87769773       9.53823732       53       0.26177300      -0.40990100       0.14734400 
I      17.96585663      17.82228757      15.69761939       53       0.28516400       0.28408200       0.29042600 
I      18.12842887      18.98431103      22.38137185       53       0.19164400       0.23392100      -0.18362400 
I       3.59875358      -1.53434071       0.38982279       53      -0.30487000       0.76772300       0.04353200 
I       2.87219448      -0.11713180       6.25123313       53      -0.06244600       0.03948400       0.22311400 
I       3.44200237      -0.22569373      12.90008002       53      -0.11473700      -0.24886800      -0.29324800 
I       2.71792492       0.54422447      19.57227420       53       0.10937900      -0.07054500      -0.34426900 
I       2.82513412       6.54535965       0.00061918       53       0.59505000      -0.21753400      -0.24196900 
I       3.06984583       6.74935558       7.14936520       53       0.28738900      -0.16797500      -0.09266600 
I       3.05644776       7.46842146      13.11680555       53       0.31111400      -0.28284600      -0.09258300 
I       3.14764613       5.79682768      19.30167441       53       0.18101100       0.18521400       0.14622900 
I       2.85458641      12.00017324       0.67094759       53      -0.29955900       0.10618900      -0.09814500 
I       2.52752917      12.50845295       6.19101429       53       0.06602900       0.05643700      -0.08782200 
I       3.58235132      12.88102556      13.04874249       53      -0.20851400      -0.07902000      -0.14137900 
I       2.65586038      14.08882863      19.01829277       53       0.64136600       0.10810200       0.17313400 
I       2.71975287      18.96681141       0.35757928       53      -0.37290600       0.10485700      -0.27025700 
I       2.66757937      18.73776546       6.80426706       53      -0.05389800      -0.08926700      -0.13557700 
I       2.67064568      19.78593146      13.11504958       53      -0.08568100       0.07159800      -0.09628100 
I       2.35851375      19.20334862      19.07872458       53       0.05761500       0.10842900      -0.06387100 
I       9.39334513      -0.03433372      -1.19388935       53       0.08891800       0.01412600       0.13876700 
I       9.57159200      -0.49586857       7.08390012       53      -0.05363500       0.19355100       0.14790200 
I       9.40574246      -0.17915395      11.94429455       53       0.60407000       0.37473800      -0.03952300 
I       9.37929534       0.10784120      19.56564270       53      -0.01009900      -0.33165600      -0.14909400 
I       9.43190167       7.14617566      -0.15507706       53       0.15049500      -0.16036700      -0.28766600 
I       9.70019631       5.45138052       6.56649446       53      -0.27102800       0.20818100      -0.05372700 
I       9.49481019       6.43185713      12.66154726       53       0.06352700      -0.06112400       0.14034600 
I       9.45838428       6.46069615      18.74603955       53       0.07735200       0.03153800       0.10673600 
I       9.02594382      11.81183221      -0.94115398       53       0.42777300       0.09006900       0.38997200 
I       9.27062891      12.73284325       5.92852295       53      -0.09300400      -0.16875200      -0.07730200 
I       9.66677262      11.84836756      13.27651657       53       0.73201200       0.37361500      -0.94575100 
I       9.10538178      12.94372801      19.43524298       53       0.25404400      -0.32324500      -0.09761800 
I       9.03148288      18.02480064      -0.08921168       53       1.83907100      -0.23432700      -0.36407600 
I       9.09451464      18.58667164       6.61780032       53      -0.55339400      -0.03307700       0.14562300 
I       9.14598121      18.51424674      13.27609360       53      -0.63331100       0.13725800      -0.14526500 
I       8.90845707      19.37608600      18.75204891       53       0.10420800      -0.34025100      -0.08616000 
I      15.27013036      -0.05639336       1.75730730       53       0.35232400       0.26351100      -0.59450500 
I      15.94121500       0.50084860       5.45864992       53       0.17076200      -0.28061900       0.32629700 
I      15.96590318       0.36182773      12.77918288       53      -0.48349600       0.01998800      -0.24877900 
I      15.28625458      -0.13982737      18.87716493       53       0.79473000      -0.16749200       0.14843100 
I      15.86836516       5.96737330      -0.45055728       53      -0.24865900       0.04218200      -0.16070000 
I      15.89090495       6.56105301       5.13816010       53      -0.05070800      -0.30158400       0.70580400 
I      16.31430820       6.81504053      12.23714032       53      -0.03978000      -0.22331000       0.21880600 
I      16.06479491       6.35979801      18.95674290       53       0.24013400      -0.40927100      -0.05160100 
I      15.68621096      12.20644179      -0.38484867       53      -0.40721500       0.00723200       0.03963400 
I      15.46425892      11.38989803       5.80992307       53      -0.29562300       0.04216200      -0.05804600 
I      16.11934455      11.67753996      13.42000379       53      -0.00128600      -0.03384100      -0.03977100 
I      15.65971455      12.26101016      19.00039187       53       0.36309100       0.14957200      -0.01571600 
I      15.18099953      18.49027633      -0.59270460       53       0.10761300       0.31763300       0.33359700 
I      15.17335152      18.22672608       7.57320128       53      -0.70198100       0.19408300       0.24459100 
I      15.40435656      17.82604799      12.47244212       53      -0.13712100       0.06583900      -0.22087100 
I      15.20186223      17.79256021      19.27359851       53       0.30383800       0.66382500       0.39383400 
I      22.07522562      -0.60804992      -0.70635107       53       0.29947000       0.24719700      -0.38379400 
I      21.96480617      -0.11275911       6.85341271       53      -0.00424900      -0.18364800      -0.52410000 
I      21.97669080      -0.72570920      12.38702142       53       0.06031300      -0.00165800      -0.31559200 
I      21.76286594      -0.06008870      19.38134703       53      -0.59522900      -0.25200600      -0.17570200 
I      22.00931883       5.00426419       0.54409630       53      -0.40177600       0.76701100      -1.25445900 
I      22.14041661       6.21057553       6.66762923       53      -0.17628900      -0.28740300      -0.12697700 
I      22.69548850       4.45229608      12.94502947       53      -0.46157000       0.21037800      -0.34753500 
I      22.40131761       6.00399838      18.46561970       53      -0.29683500      -0.09868600       0.10968500 
I      21.75091130      12.37514073       0.13455452       53       0.70591200      -0.10500300      -0.16546400 
I      21.34248561      13.04437868       6.85165377       53       0.44170600      -0.12924900      -0.03057200 
I      22.36339701      12.84605590      12.84940221       53      -0.12935300       0.03266200      -0.09565100 
I      21.94695456      12.67251200      19.57937304       53      -0.34154800       0.10190300      -0.15401600 
I      21.44429576      18.94888291       0.15390969       53       0.19323500      -0.05513800       0.16686800 
I      21.59530281      18.96471824       6.10576021       53      -0.34681500      -0.30261500       0.38498700 
I      21.49998416      18.71254881      13.15773331       53       0.44954200       0.14681100      -0.07841300 
I      21.42307319      19.81981066      19.12123084       53      -0.11790500      -0.28562500      -0.30433800 
I       0.58282045       2.85917403       0.35439565       53      -0.15007300      -0.04426300      -0.08352400 
I      -0.16666591       3.10314628       5.10647661       53       0.32009900      -0.48229200       0.63259000 
I       0.84832683       3.05271594      12.46219909       53       0.20071700       0.24946500      -0.02008900 
I      -0.01395513       3.38126492      18.08003748       53      -0.32591500       0.20645200       0.42937100 
I       0.12811627       9.38753591       0.34461700       53      -0.51154200      -0.13962200      -0.17464500 
I      -0.17321064       9.31426013       6.06974248       53      -0.09213700       0.82495500      -0.03001100 
I      -0.08734922      10.15398652      13.40380858       53       0.29059000       0.40137600      -0.01574000 
I      -0.81166035       9.71812482      19.87058706       53       0.26639800       0.05260200       0.08994800 
I       0.29724902      15.97354133       0.42021863       53      -0.22212600      -0.20134400      -0.09349000 
I      -0.15644358      15.68586391       6.76097894       53      -0.11668400       0.19581700       0.37347000 
I      -0.62459120      16.55960655      11.91409984       53       0.10700700      -0.21141000      -0.07841300 
I      -0.97103220      16.11041874      20.30786361       53       0.10066400       0.37255400      -0.12500700 
I      -0.26021577      22.06189065       1.20164483       53      -0.54490500       0.64261600      -0.12390500 
I      -1.16878510      22.17382749       6.15944023       53       0.17414300       1.07235100      -0.22344800 
I      -0.16711649      22.47278417      13.11882182       53      -0.09038700       0.28577800       0.26681300 
I      -0.42349691      22.40949804      18.73358109       53       0.03300500       0.32664700       0.12471600 
I       6.51802814       2.77277428      -0.17463830       53       0.11559300       0.14881000      -0.10510000 
I       6.41638659       3.10502254       6.87309226       53       0.21472200      -0.09082800      -0.34474100 
I       6.94966209       3.21846393      11.73897645       53      -0.43781100      -0.30164600       0.04785600 
I       6.45135625       2.89488907      19.47335289       53      -0.00597300       0.38238100      -0.14605900 
I       6.03623794       9.29227346       0.58856164       53      -0.09438300      -0.09729300       0.02919600 
I       6.34525723       9.48328838       5.69121769       53       0.28101900       0.24697200       0.16329700 
I       6.78332056       9.20539552      13.97421889       53      -0.57605500       0.23534600      -0.28276600 
I       6.65538670       9.15277145      18.45761971       53      -0.20648500       0.52433500       0.11463900 
I       5.67938728      15.46669618      -0.65778713       53       0.38264900      -0.16583300       0.17036700 
I       6.13862980      15.55503530       6.46178661       53       0.05964600       0.66957000       0.02811500 
I       6.48376836      15.81929247      13.02708118       53       0.11268800      -0.57991900      -0.28504700 
I       6.34178964      16.01909319      19.20370356       53       0.05010200      -0.54637300      -0.08003800 
I       6.81383472      21.71394410       0.23088968       53      -0.25247400       0.22379300      -0.15963200 
I       6.18745205      22.06017214       6.45021452       53       0.01693000      -0.09040600      -0.14869000 
I       6.84490988      21.94879928      13.18476607       53      -0.57756400       0.07384500      -0.30217700 
I       5.77130243      22.00478051      19.29095615       53      -0.02536400       0.53996400       0.02815400 
I      12.57999246       3.33855260       0.55032355       53      -0.00341600       0.29984400      -0.26074000 
I      12.80047939       2.63896317       5.54933658       53      -0.23836000       1.12564200      -0.16219700 
I      12.47964448       3.42055107      12.95468980       53       0.12378100      -0.51132800       0.07335400 
I      12.42558980       2.92456714      18.96609561       53       0.07863500       0.01052300      -0.16363100 
I      13.01784875       9.40561921      -1.78219169       53      -0.15155000      -0.01569000       0.27400500 
I      11.47625835       8.94290714       5.88164400       53       0.26328900       0.29200300       0.47495900 
I      12.80007417       9.40878312      11.81786228       53      -0.22903000       0.09330200       0.21445000 
I      13.67382666       9.01994629      19.68393694       53      -0.62810600       1.31288900      -0.20340700 
I      12.52001814      15.20095614       0.43344317       53      -0.23337400      -0.49440900       0.02408400 
I      12.02371476      15.60793741       5.94892717       53       0.22734300      -0.12343000      -0.00481300 
I      11.89551074      15.63445551      12.84786709       53       0.14241100      -1.15556500       0.29150100 
I      12.30779840      15.55098995      18.57465094       53      -0.06084800      -0.39444100      -0.03258900 
I      11.52018240      21.14845664      -0.53466668       53       0.38299700       0.31381700       0.82487800 
I      12.11765210      22.08064539       6.58381070       53       0.09627400      -0.65418500       0.20966500 
I      12.13317587      21.68859140      11.85498526       53       0.04203600       0.65530700      -0.08074200 
I      12.27972644      21.86900834      18.98727085       53       0.05410000       0.09787300       0.32197900 
I      18.56135738       2.46815923      -0.96746504       53      -0.10489700       0.22645700       0.01047600 
I      18.93721715       2.96091122       6.26619985       53       0.15908600      -0.13414400      -0.23862500 
I      18.95248261       2.90364529      12.12434176       53       0.05982900      -0.07961300       0.03841300 
I      18.97796349       3.24769931      19.83781903       53       0.04174600      -0.03843100      -0.08080300 
I      18.99921958       9.19326144       0.14848105       53       0.25152500       0.21443400      -0.17647800 
I      19.13297745       9.09319544       5.32843950       53      -0.25802000       0.38078500       0.17017000 
I      20.28585721       8.97965052      13.38691335       53       0.02755500      -0.17419000       0.13859400 
I      19.03868418       9.59523014      19.01838151       53       0.01872100       0.00586600       0.05096400 
I      18.39075655      15.87318053      -0.69111716       53      -0.16194400      -0.64835000       0.18015400 
I      17.62912525      15.12666484       7.33199561       53       0.09648000      -0.29022000      -0.20027300 
I      18.27379531      15.08680979      12.38591913       53       0.25396100       0.45193300       0.06565400 
I      18.73961214      15.99203775      19.47354318       53       0.22317700      -0.35779800       0.26589100 
I      17.28581661      21.81774685       0.65129663       53       0.75188200      -0.07789600      -0.27693100 
I      18.02633872      21.94888998       6.11249523       53       0.15201100       0.31350900      -0.21291400 
I      17.46564396      21.80557530      12.58146843       53       0.28052800      -0.10371200      -0.02582700 
I      17.72493787      22.09448221      18.41074174       53       0.33967200      -0.41974200      -0.63328300 
H       2.02144616       2.51474634       3.25419771        1       3.67394800       0.11581500      -0.42909600 
H       2.27211104       2.44097857       9.78721326        1      -0.65251100      -1.33175000       1.06016100 
H       2.12111581       3.75997014      15.73884884        1       0.55688100       0.16061800       0.48379800 
H       4.34196831       2.39275578      22.81465234        1      -0.52967600       1.01270600       0.12383500 
H       3.29103476       8.68673278       4.80275680        1       2.04364200      -1.24781300      -0.09140700 
H       4.50244246      10.87157939       9.21822667        1      -1.15375500       0.67118600       0.36508400 
H       4.17838744      11.02449919      16.83340180        1       2.03610300       0.62523000       1.50675600 
H       3.70244392       8.45308244      22.53915337        1       0.78754400      -2.13523200       1.62086200 
H       3.79230929      15.16247255       3.91868732        1       0.17667900       0.37575900       1.23503800 
H       4.04797490      15.63205965      11.27117590        1      -1.08252100       0.21623400      -0.10917700 
H       1.97447947      15.44553968      15.10776714        1       0.62121900       2.54152800      -0.70963500 
H       3.24910626      16.06229849      21.58252392        1      -1.57262600       0.60695700       1.56333500 
H       2.52867189      23.10708500       4.09077004        1      -0.28236400      -0.14463400      -1.29061200 
H       1.88561977      21.55737136       8.64407468        1       2.49977000       1.86168700       0.00166800 
H       3.09895895      22.69255530      17.40458805        1       0.02618300      -0.01548600       0.68283300 
H       1.76176478      22.11814204      23.56311825        1       1.27850900       0.05780800      -1.83902800 
H      10.82490355       3.58210680       3.03117196        1       1.16276600      -0.35810200       0.17300600 
H      10.01886706       3.25534634       8.36907164        1       0.43617500      -0.23352600       1.30691900 
H       9.86531526       3.19677206      17.31454324        1      -0.68157400       0.61229000       1.45757100 
H       9.58268097       4.65677808      21.68438139        1       0.36356900       0.01943800      -0.59326600 
H       9.50394205       7.78604118       2.50676014        1       0.86287500      -1.31702600      -1.68104300 
H       9.29333138      10.47657543      10.27773898        1       0.39671500       1.05594200       3.03940800 
H       9.34035132       8.72714193      16.69481475        1       1.41148500       0.66086200      -1.67671400 
H      10.75982299       8.57312871      21.29301165        1       1.69005600      -1.62083800       0.09521500 
H       7.99383894      15.02241940       2.48577914        1       0.39522900      -2.16193000      -0.45415200 
H      10.51087071      15.64093320       9.25305633        1      -1.18187800       0.19757200       0.75721300 
H      10.37908671      15.59458765      16.57159471        1      -1.05594400       1.24697700       0.14332500 
H       8.90931386      16.73463922      22.86211892        1       0.49521200       0.65030900      -0.44621400 
H       9.39515631      20.96925044       2.44537788        1      -1.10405200       0.12722800      -0.80217500 
H       7.97548154      21.15887024      10.62154651        1      -2.50656100       0.39868400       2.23949100 
H       7.98842312      21.38504216      15.93679203        1       0.00427700       1.64206400      -0.39839500 
H       9.01828496      21.10745396      21.07636499        1      -0.14730600      -1.34800800      -1.88838000 
H      14.96381751       3.63944174       3.59952557        1       1.83912100       0.81207600       0.42237200 
H      15.51993943       4.76204497       8.22469904        1       0.38731400      -2.30153900      -0.95350300 
H      16.95659719       3.34382841      16.20131147        1      -0.48452900      -0.53937000      -0.43431800 
H      16.11406380       3.09812878      21.55046676        1       3.06225200      -0.92796700      -0.10659500 
H      16.47547448       8.15107621       1.56727340        1       1.10977200      -4.93043700       0.25581600 
H      15.73992747       7.72241588       8.04090620        1       0.21390200      -3.12068200      -0.13573700 
H      15.38318822       8.50493945      15.86429023        1      -0.05967400       0.45670600      -0.63013300 
H      16.74263922       7.60016897      21.75984992        1       1.69783300      -1.79832400      -0.11286700 
H      13.83370628      15.03894490       3.61097541        1      -0.86606800      -0.43286000       0.03199800 
H      16.65583030      14.66515464       9.89605126        1      -2.74716100       0.05239700       0.53990900 
H      15.71289273      14.40283485      15.57524825        1      -2.11609300       1.83371900       0.21629500 
H      16.82497883      15.56562045      21.87818754        1      -1.39016000      -0.56399600       0.67912700 
H      14.47134060      20.12553687       2.98545545        1       1.39133800      -0.96364900       0.16923300 
H      15.40355893      23.38715286      10.22436459        1       0.86620100      -0.44690800      -0.41308200 
H      13.88651571      21.63201070      14.24710214        1      -0.25235200       0.58518000       0.55432900 
H      14.90441503      22.66516463      20.84483444        1      -0.59559500       0.96458800       0.06933600 
H      21.81537269       2.29275189       2.54075470        1      -0.74335900      -0.28861000      -1.27970600 
H      21.18839253       3.78475889       8.62984447        1      -0.45658100       0.51399800       0.37617600 
H      20.96398744       2.56028439      14.61732030        1       0.30599300      -1.14648800       0.39337000 
H      23.40139786       2.92609931      22.70467656        1      -1.84465500       0.43124000      -0.92633600 
H      23.33157981       8.07342578       3.75606282        1       1.67253600      -0.99613500      -0.21299800 
H      23.67029886       9.33258795       9.34116769        1      -0.68720700      -0.98722300       0.28373500 
H      23.17374407      11.22689394      17.02333809        1      -1.15580900      -0.23096000       0.24397600 
H      21.94007362       8.79157078      21.40329110        1      -0.27617600       0.34274300      -0.67932900 
H      21.79424773      14.93389690       2.77859829        1       0.01484500      -0.66881100      -1.01545700 
H      20.84336735      15.77504700       8.41168833        1      -0.11635800      -0.30296400      -0.62492100 
H      20.64380721      14.68912209      16.03558320        1      -1.18159200      -0.17582600       0.22952400 
H      22.44539548      16.82789330      23.55303790        1      -1.25868200      -0.42920400      -1.46981400 
H      22.26925656      21.09340516       2.75237991        1       3.21654100      -0.30806500      -0.27096000 
H      22.21249051      22.23045057       8.68043848        1       2.25475000       0.04471900      -1.29434100 
H      21.19347313      23.62749879      16.02570300        1      -0.07392700      -1.69441800      -0.27457700 
H      20.86273042      21.23392073      23.71779403        1       1.11789900       1.06698000       0.28705700 
H       3.55084135       1.48443687       3.52832522        1       0.38528000      -1.93674500      -0.66855800 
H       2.56849932       2.64553650       8.23615775        1      -1.00382800       0.38177500      -3.18686400 
H       3.94901514       4.15715502      15.83152613        1      -1.77347500      -2.87146200       0.28608400 
H       2.83076587       1.54645310      22.97085634        1       0.55103100      -0.21025600      -0.44422000 