768
Lattice="25.8638532322 0.262018309273 0.0761644949581 0.225651974107 25.8074452413 -0.17754739798 0.0520906954575 -0.18811701761 25.4726412335" Properties=species:S:1:pos:R:3:Z:I:1:forces:R:3 energy=-99800.2304722 stress="-1067.350564 792.401449 2356.008327 792.401449 -3558.577412 1131.656631 2356.008327 1131.656631 -487.571737" pbc="T T T"
I      -1.38635710      -0.02615591       2.84743392       53       0.20439900      -0.05327100       0.61688900 
I      -0.85614719       0.20153215       9.64545527       53       0.32120800       0.12017800      -0.39770500 
I       0.08393763       0.06067526      15.98500187       53      -0.20790400       0.26501400      -0.07868700 
I      -0.38726590       0.92665768      22.26487073       53       0.28160500      -1.09639900      -0.37041000 
I       1.20506671       6.64800560       3.30422278       53       0.17270500      -0.00199100      -0.59266800 
I       0.71261888       5.30485247      10.00987203       53      -0.25979900      -0.17302100      -0.13880900 
I       0.74541932       7.97313514      15.61577956       53      -0.26654000      -0.01325100       0.00083900 
I       0.02928157       6.49530941      22.25244313       53      -0.17307500      -0.11604900       0.36159500 
I      -0.90289005      12.91723480       3.40193173       53       0.59128600      -0.56053800      -0.30467200 
I      -0.48388527      12.74533541       9.71737451       53       0.54578200      -0.00098100      -0.09651400 
I      -0.08469903      13.88916556      15.93942464       53       0.05905200      -0.49368800       0.12549100 
I       0.35925101      12.75967804      22.36893006       53      -0.30126200      -0.18811300       0.19544500 
I       0.82223516      18.52127035       3.20308101       53      -0.43234000       0.11931400       0.44962600 
I      -0.66671848      19.72381971       9.78445718       53       0.05249000       0.12587100      -0.34321100 
I       1.19479925      18.52637806      16.12314231       53      -0.22045500       0.47409400      -0.29746400 
I       0.39166924      19.96723913      22.40072797       53      -0.13022000       0.10717500      -0.58019300 
I       6.89750825       0.55437775       3.37612101       53      -0.00803600       0.11059600      -0.26782500 
I       6.63844151      -0.86401638       9.45181932       53      -0.07698300       0.03053700       0.44417300 
I       5.78773121       0.66572495      15.76536609       53       0.23451900      -0.13037000       0.35731900 
I       6.29817860      -0.35696679      22.67116175       53       0.04073000       0.15577700      -1.03037100 
I       6.35797139       6.01092087       3.46324133       53      -0.01751000      -0.17557500      -0.01950200 
I       7.16136054       7.34184850       9.44540491       53       0.02233600      -0.17363900       0.54222200 
I       6.86619260       6.28336973      15.77919745       53       0.38129100       0.16576300      -0.40516400 
I       6.90041880       6.64193437      22.31583683       53      -0.20142600      -0.07539800       0.88333500 
I       6.43155551      13.56333932       2.92894025       53       0.16049600      -0.03775800       0.44538400 
I       5.92663806      12.63736000       9.60686676       53       0.31993800       0.10224900      -0.29359500 
I       7.04667256      13.06945774      15.83521823       53      -0.52952000      -0.28676300      -0.01798400 
I       6.76212527      11.68962411      22.15422391       53       0.52594500      -0.08651300       0.45368300 
I       5.90311656      19.16941595       3.15739672       53      -0.01369000      -0.19733000      -0.52482700 
I       6.66765704      20.08352396       9.56234008       53      -0.02663500      -0.12043500       0.03304400 
I       6.00348892      18.54214244      15.70201141       53      -0.03210100       0.07260600       0.33397400 
I       7.85526347      19.34787983      21.88404426       53      -0.43151600       0.20070300       0.24755400 
I      12.02902656      -0.92157698       3.25530377       53       0.30085200       0.29722400      -0.14519800 
I      13.89605722       0.18018480       9.35153800       53       0.16696500       0.12191100      -0.44494300 
I      12.55845605      -0.50342666      15.62870343       53      -0.05171000       0.06538700       0.48267100 
I      13.91998494       0.42007134      22.43276000       53      -0.04271300      -0.05489000      -0.13952200 
I      13.09739859       7.02592753       3.38301167       53       0.08330800       0.13318800      -0.52527500 
I      13.40783665       5.99899153       9.52907039       53      -0.42516300       0.02404900       0.46485400 
I      13.66720555       6.27349748      15.83897123       53      -0.01813700       0.09496400       0.44557500 
I      13.22557174       6.00235132      22.26858871       53      -0.04602900      -0.02878900      -0.27852600 
I      13.00029397      12.26901616       3.14400059       53       0.04336700      -0.07446700       0.27196400 
I      13.74601145      13.39649462       9.47125766       53      -0.16153200      -0.15446600       0.57236600 
I      13.38267727      11.50060862      16.12491426       53       0.05404200       0.18153200      -0.44934400 
I      13.03491537      13.61857469      22.39140601       53      -0.31324300      -0.18778800      -0.62553000 
I      13.03874641      19.33488693       3.13403430       53      -0.13403200       0.23075700       0.10693800 
I      13.00882850      19.24501314       9.40446214       53      -0.03017300       0.00627100       0.38190900 
I      13.22531060      19.93202741      15.92899009       53      -0.16516600       0.23872500      -0.32901700 
I      12.62912062      19.36302689      22.33962748       53       0.03439400       0.05100100      -0.33138600 
I      19.40774166       0.46767565       3.38520884       53       0.32890800      -0.09556900       0.52850000 
I      17.97541813       0.11316016       9.87406082       53       0.24138300       0.06669600      -0.30690400 
I      19.76640436       0.68781570      15.86348626       53       0.11608000      -0.07529700       0.74325600 
I      18.95064764       0.42908714      22.34613794       53      -0.06694900      -0.42468200      -0.29293800 
I      18.94376498       6.66913983       2.92208461       53      -0.15438300       0.17226400       0.53855000 
I      19.52544924       6.76675573       9.22449846       53       0.15454700       0.00891600      -0.29253500 
I      19.75412583       6.07026142      15.37172980       53      -0.24563300       0.19684800       0.64774400 
I      19.72775180       6.69914679      22.11259977       53       0.05919600      -0.05157900       0.55454900 
I      19.01100072      13.56625988       3.13176609       53       0.04737600      -0.13888700      -0.03288600 
I      18.99614082      12.76624953       9.69206806       53      -0.26476600      -0.20287300       0.71277400 
I      19.92154984      13.13277340      15.86978761       53      -0.36888900      -0.36991800      -0.09230200 
I      19.35037916      13.25594689      22.13635240       53       0.00283800      -0.12880400       0.32654700 
I      18.16043350      19.20118184       3.39317508       53       0.42749000       0.36801900      -0.39320800 
I      19.91198776      19.07510281       9.64562536       53      -0.13621200       0.31408500      -0.04378500 
I      19.33642074      19.26984034      15.97411408       53       0.08163200      -0.03066900      -0.67873700 
I      19.61319690      19.74336110      22.13533086       53      -0.18177300       0.16761500       0.25971300 
I       3.38669663       0.16500573      -0.01481388       53       0.08263300      -0.05502300       0.15701200 
I       2.84622127      -0.22389304       6.35607838       53       0.18283800       0.03109600      -0.17876300 
I       3.32854071      -0.50641825      12.13737917       53      -0.09656300       0.03335600       0.08528100 
I       3.32272462       0.10409535      19.44194985       53      -0.07997200      -0.19557600      -0.14589600 
I       3.11116414       6.57330988      -0.63834539       53       0.32619600      -0.13078500       0.24596900 
I       3.46499326       6.72845737       6.83618164       53      -0.11871500       0.03392800      -0.04565600 
I       4.05616457       7.05449172      11.95605477       53      -0.18881000      -0.17379300       0.00886600 
I       3.20975255       7.51672047      19.41274332       53       0.35263000      -0.45520900      -0.16885900 
I       3.30680415      12.68965080      -0.02232287       53      -0.58468600       0.00470000       0.00730300 
I       3.33282899      13.66012178       6.44074940       53      -0.08443600      -0.17493600       0.17939300 
I       3.31054514      13.38920374      12.77256389       53      -0.03010600      -0.65013700       0.29140400 
I       3.79255242      12.74271001      19.81584664       53      -0.63434400       0.38169400      -0.46876800 
I       2.82607556      19.23437649      -0.51907298       53       1.06836500       0.04877500       0.27839400 
I       3.02216282      19.54564198       6.88919083       53       0.11517100       0.00467200       0.13411800 
I       3.50738680      19.99099476      12.43525155       53      -1.07371500      -0.20275000      -0.32455400 
I       3.54798038      18.80527935      20.03480506       53       0.43437400       0.23807500      -0.41607600 
I       9.81690743       0.20552928      -0.78128439       53      -0.27164300       0.37405900       0.36199200 
I       9.65436601      -0.13618241       6.56889153       53       0.25701900      -0.04689500       0.18139000 
I       9.94273633      -0.18806899      12.03097560       53       0.09183500      -0.01842100      -0.01647900 
I       9.64130206      -0.28752387      19.09632609       53       0.73623900       0.00335700       0.14747000 
I       9.70942829       6.58036463      -0.25871455       53      -0.15543200       0.33485300       0.09640500 
I       9.90800687       6.36127715       6.70495788       53       0.09139900      -0.13304400      -0.04589900 
I      10.33550015       6.34059315      12.75923180       53      -0.66859500      -0.01088300      -0.00129400 
I      10.20267954       5.89931053      18.71068805       53       0.06686200       0.12136400       0.03441100 
I       9.68591478      12.20444283       0.68847004       53       0.14202500       0.30939400      -0.43415200 
I       9.84773582      13.77481076       6.36883617       53      -0.20439200      -0.28042200       0.17465600 
I       9.82762613      12.82752611      12.60984637       53       0.72483900      -0.25352200       0.04402000 
I      10.30022740      12.34907873      18.48611165       53      -0.70064600       0.24106700       0.11343900 
I       9.32778437      17.91130604      -0.03260033       53       0.41460700       0.16695700       0.17532400 
I       9.85606725      19.60485646       6.65621296       53      -0.59483800      -0.36030000      -0.42413400 
I       9.61273388      19.34120829      12.97859443       53       0.53483300       0.19052900      -0.06662200 
I       9.82447245      18.94233422      18.42425276       53      -0.18571900       0.19838400      -0.12523800 
I      15.92491792      -0.02582873       0.73914499       53       0.15135100      -0.17145900       0.14177800 
I      16.26626841       0.59132239       5.68932289       53      -0.36315800      -0.26179700       0.12912200 
I      15.95795949       0.35845458      13.76257225       53       0.37462300      -0.11021800      -0.33294700 
I      16.25601596       0.39543024      19.01118282       53       0.03413300      -0.10171000      -0.11435300 
I      16.19478240       7.03007273      -0.31938181       53       0.24777900      -0.10219700      -0.03863200 
I      16.23491974       7.38526658       6.63123768       53       0.68413600      -0.33804800      -0.15004500 
I      16.55937525       6.87931158      12.77163539       53      -0.24057600      -0.29798700      -0.01850500 
I      16.80828359       6.10006927      18.81597203       53      -0.62683600       0.19954800      -0.08565400 
I      16.13926689      12.51267671      -0.60341482       53       0.83995700      -0.03757200       0.03495200 
I      16.16903471      12.98614344       6.21824210       53       0.14065000      -0.35197900      -0.16556200 
I      16.54003797      12.45885309      13.32702668       53       0.02549300      -0.17933900      -0.18365800 
I      16.50479423      13.50945267      18.69308269       53       0.13879100      -0.46306100       0.22852700 
I      15.94141770      20.03422575      -0.47911874       53      -0.00363800       0.28004400       0.06775800 
I      16.19892861      19.06261817       6.64699906       53      -0.08093400       0.12890900       0.23327200 
I      16.02582757      19.31710947      12.70247762       53       0.72824500       0.01205000      -0.05467300 
I      16.29088650      19.80529003      18.73716613       53       0.31005700      -0.36521100       0.37636100 
I      21.95718414       0.23845878      -0.67099976       53       0.82989100       0.50828400      -0.02378100 
I      22.26156498       0.28329862       6.56778194       53      -0.09843100      -0.00617100       0.09780500 
I      22.23765827       0.50023396      12.24380376       53       0.14833900       0.02827600      -0.02650800 
I      22.66253716      -1.09379755      19.25585691       53       0.03730200       0.32419800       0.19103500 
I      22.78151842       6.82421428      -0.25176786       53      -0.38001600      -0.23688600       0.23304200 
I      22.73681566       5.78726996       5.17377478       53      -0.05847800       0.01572100       0.25862300 
I      23.03006657       5.83410086      13.20298973       53       1.40164100      -0.03086800      -0.34891100 
I      22.93462483       6.61897616      18.14484121       53       0.18688400      -0.07644200       0.12541200 
I      22.32643847      13.57261325       0.32962125       53       1.00845000       0.12605600      -0.04779200 
I      22.49829084      13.11912515       6.81379074       53       0.15770700       0.17880100      -0.23033700 
I      22.86302576      13.10255434      12.59612108       53       0.40291300      -0.07980500       0.24625300 
I      22.97712042      13.35585901      19.66619508       53      -0.04355600      -0.50734300      -0.44322000 
I      22.51674565      19.81900232      -0.80963446       53      -0.39756500      -0.13456200      -0.04810100 
I      22.68264886      18.79350008       6.14558147       53      -0.23276800       0.36911500       0.00884500 
I      22.81456699      19.78792880      12.91573501       53      -0.01940400      -0.04211200       0.29586500 
I      23.01776203      20.35343146      18.93763472       53      -0.39509600       0.09719100       0.05286100 
I       0.59908152       2.98444376      -0.24838906       53      -0.02425000       0.77015800       0.38968800 
I       1.05587338       3.24951269       6.52942155       53      -0.34222000       0.34402900      -0.30469000 
I       2.46808523       3.44599516      13.58541806       53      -0.27682300      -0.24555800       0.05999700 
I       0.25561591       3.39096790      19.32828242       53      -0.00730700      -0.09908700      -0.42997100 
I      -0.73029828       9.68903945       0.27041277       53       0.07486200      -0.18067000      -0.21298800 
I      -0.05403673       9.82244838       6.25345282       53       0.26239200      -0.21273200       0.03641000 
I       0.80602354       9.69504964      11.79744944       53      -0.13988700      -0.16370800       0.40506600 
I       0.15444311       9.83148918      19.85554975       53      -0.34972000      -0.21876200      -0.32376400 
I      -0.58759641      16.14377228      -0.01813564       53       0.11231900      -0.37928800       0.07233900 
I      -0.41447937      16.07216821       7.28228883       53       0.44001400       0.19985800      -0.37972100 
I       0.56818409      15.91807128      12.41124678       53      -0.28537300       0.74561000      -0.24022900 
I      -0.50996113      16.29325076      18.95213943       53       0.20796000      -0.10260200       0.25041800 
I      -0.69548778      22.56574570       0.44665848       53       0.31138400       0.06061500       0.04957400 
I      -0.13601832      22.47547671       4.95231203       53       0.12347700      -0.19356000       0.22815100 
I      -0.55540830      23.10470425      12.56692555       53       0.17067000      -0.06923200       0.24841000 
I       0.84028676      22.48291766      17.97187725       53      -0.33511700       0.07285900       0.33928000 
I       6.26396641       3.33170940      -0.37622103       53       0.10787500      -0.35907300      -0.04977500 
I       6.30213671       3.29804250       6.67165917       53       0.16946200      -0.19640900       0.19850200 
I       6.84304129       3.62233692      11.90000697       53       0.06460700      -1.03589600      -0.07222700 
I       6.82608428       3.37745672      19.21848604       53       0.08255300      -0.50135600       0.09623800 
I       6.33845902       9.59381982       0.20335512       53      -0.04817300      -0.35301900       0.09761400 
I       7.49272471       9.61154825       6.64725119       53      -0.23040300       0.70272800      -0.58698400 
I       6.62830412       9.74102809      12.80073687       53       0.20404400       0.24849300       0.17279000 
I       6.37334056       9.72298749      18.13768040       53       0.31957400       0.02153600       0.18370900 
I       6.33768360      15.87184571      -0.97140047       53      -0.34568900      -0.07046300      -0.15682800 
I       6.44121665      16.24410062       7.11430151       53      -0.02699900       0.12644400      -0.10332700 
I       7.42006908      16.43923537      12.40197685       53      -0.41274200      -0.30561900      -0.26772400 
I       6.98144188      15.94314361      19.47735367       53       0.00310100       0.03070000       0.11633300 
I       6.79838355      22.38594311      -0.35564509       53      -0.15689500       0.16574100       0.19113900 
I       6.72822625      22.55383937       5.86036382       53       0.08242900       0.04754300      -0.17347400 
I       7.19842024      22.77597648      13.00365875       53      -0.05438900       0.64663600       0.10330600 
I       6.64244464      22.24379353      18.60162807       53       0.27223700       0.65783700      -0.48340100 
I      12.24025687       3.59608396      -0.10425643       53       0.49368000      -0.60994500      -0.14852700 
I      12.33101212       3.20571541       5.52611811       53       0.90701700      -0.21984900       0.53484800 
I      13.12591476       3.20300297      12.75735580       53      -0.11076800      -0.20957600       0.14772200 
I      13.52001229       3.31770195      18.87150956       53      -0.31472800      -0.44896300       0.13923300 
I      13.06282921      10.01052637      -1.14930106       53      -0.16453700      -0.32747200       0.12844400 
I      13.16165876       9.28194300       7.29364487       53       0.03570200       1.30230700      -0.42475600 
I      13.03583286       9.67027947      12.45271683       53      -0.11103700      -0.01411300       0.04284200 
I      12.83401256       9.73210134      19.77234051       53       0.53857900      -0.49862400      -0.00965800 
I      13.81219764      16.35826532      -0.43490423       53      -0.27186600       0.25844300       0.35074700 
I      13.61826453      15.72402811       5.52551379       53      -0.47934000       0.38741800       0.16685400 
I      13.22470828      16.46661093      12.86096689       53      -0.14215700      -0.59780300       0.13399000 
I      13.21266188      16.02236673      18.66796234       53      -0.09598800       0.30918300      -0.17168500 
I      12.71373061      22.49737835      -0.43749261       53       0.20457800       1.00689100       0.11260000 
I      13.26469654      22.58311994       6.44738493       53       0.14284400      -0.01044800      -0.17921200 
I      13.73379695      22.59706135      12.27198474       53      -0.03908500       0.18013600      -0.26162200 
I      13.65331016      22.60614718      19.46239572       53      -0.59600700       0.53558100      -0.45519400 
I      18.66218927       3.31237412      -0.01169222       53       0.06918000       0.45673200       0.02893500 
I      18.61348037       3.69172581       5.78525289       53       0.22371800      -0.15970400       0.15085600 
I      18.96420785       3.58026955      12.52355750       53      -0.25610700      -0.97138900      -0.25117700 
I      20.22802879       2.89707531      19.31270613       53       0.00806400      -0.00036900      -0.22834500 
I      19.84934145       9.81315644      -0.24686125       53       0.18971500      -0.12809600       0.09806300 
I      19.85042002       9.89495993       5.69414045       53      -0.17293300      -0.16176100      -0.02408100 
I      20.44546039       9.48820066      12.84899652       53       0.01479000       0.31206000      -0.02495200 
I      19.97626093       9.21395085      18.75761300       53      -0.32472500       0.51892000      -0.18423400 
I      18.56817228      16.39754121      -0.61030248       53       0.19890700       0.05305500       0.11568300 
I      19.20200828      15.95109884       6.90013465       53      -0.20517900       0.66103900      -0.12176000 
I      19.96296486      16.08651484      12.53275038       53      -0.02814000       0.27856800      -0.01982300 
I      20.25266089      16.27041862      18.88551801       53      -0.29350200      -0.01660600      -0.02466200 
I      19.77016535      22.76290253      -0.20458577       53      -0.20448700       0.13423400       0.14229200 
I      19.30801064      22.35269743       5.88581636       53       0.03132300       0.38037700       0.30197400 
I      19.07199916      23.04186985      12.62549069       53       0.06877300      -0.43299300       0.00180500 
I      19.47439210      22.67233537      18.10286389       53      -0.08811600      -0.04389500       0.06698800 
H       3.86342410       2.56352897       1.99966017        1      -1.56333700       0.97272700       1.97824500 
H       4.21613462       3.88121956       9.74395965        1      -1.67441700      -0.76989500       0.23289600 
H       3.59768581       4.91529135      15.84787096        1       1.06402200       0.48303500      -1.12854500 
H       3.78736666       3.41598420      20.57666215        1       0.98342200       0.28619200      -0.04422500 
H       4.14199621       9.82058639       3.64097082        1       0.34041500      -2.36238700       1.19022400 
H       3.66462140      11.15796544       8.16725635        1       0.39726900       1.86223600      -0.07890800 
H       3.98067444      10.91442996      15.78286840        1       0.43310000       0.37615700       0.20790500 
H       4.56713224       9.52346942      22.66251415        1      -2.90402000       1.09787200      -0.97976200 
H       3.26007731      14.33833437       3.50279536        1       0.76448900      -0.63521200      -0.51614900 
H       3.73739509      16.96416447       8.71202999        1      -0.76617300       0.20622000      -0.42280400 
H       2.65943496      15.16192826      15.40706459        1      -3.20647300      -1.28387500      -1.03504800 
H       1.71411636      15.81756384      20.97516603        1      -0.18972700       0.17960500       1.42163800 
H       4.52247350      23.33791825       2.73460793        1       1.53442400       0.89197400       0.53709500 
H       2.94914499      22.28643020       7.84201042        1       0.76490200       2.36355200       1.85215000 
H       4.19103228      22.60986016      16.82577389        1       1.02771500      -1.05633800       1.20093000 
H       3.27986883      21.83544042      22.53501536        1      -0.69117800       0.64666500      -0.80844500 
H      10.37276096       2.03588143       2.09723605        1       0.87259600      -1.00200600      -0.42937800 
H       9.32788343       2.77376475       8.58843328        1       0.94470900       0.07175500       0.45325300 
H       9.64079379       1.58653953      15.41901995        1      -1.39407000       1.49130700       1.27364400 
H      10.37399462       3.83367028      21.36132734        1       1.73379200       3.96062700      -2.35390900 
H       8.79593360       8.68173188       2.41651281        1      -1.62297300      -1.44885000      -1.47485600 
H       9.23892613       9.85116264      10.46263575        1       1.20112800      -0.41346700      -2.17475600 
H      11.60929540       8.88297288      14.98162139        1      -0.38123900       0.63605500       0.12036100 
H      11.07642309       8.28541317      21.35814465        1      -2.21228600       1.11494800       0.39080200 
H       9.01564842      16.38268531       3.53088529        1       1.77246900      -0.08597600      -0.40774600 
H       9.73730311      15.09485960       9.02478027        1      -0.40424700      -2.09741100      -0.59881800 
H       8.70497424      14.94360018      15.73553923        1      -0.63795000      -1.84920900      -1.26440400 
H      11.55943689      16.35556889      22.26335393        1      -1.60395700       0.10084600      -0.35112700 
H      10.38556877      22.63175280       1.68756424        1      -0.80513600      -0.39345800       0.10625300 
H       9.39151226      22.71498305       8.45996497        1       0.45382100      -0.93538200       0.59416200 
H      10.21131413      24.10181440      15.59263526        1      -0.74757000      -2.12599600      -1.05430500 
H       9.38133385      23.23373386      21.48638083        1       1.97548800      -0.20112700       0.95166400 
H      14.72732919       3.98630543       2.10464699        1       0.48195200      -2.35735100       2.26077600 
H      15.42941347       4.12260290       8.33728475        1      -1.95971500      -0.21910300      -0.91249100 
H      16.20129687       2.26171951      15.42715727        1      -0.42681800       2.28427100       1.64226900 
H      17.40356809       3.03221916      21.76162517        1       0.20662300      -0.37550100       0.42146900 
H      15.90340949       9.55013759       2.03000231        1       0.14423400       0.53691800       0.67757400 
H      16.24241273      10.94324928       9.85256939        1      -0.30940800      -0.14411600       0.05903400 
H      15.50180696       9.60955719      15.26872104        1      -0.60129100       0.06203400       0.12213500 
H      15.83337725      10.32069428      21.67313612        1      -2.69404700       0.23836300      -0.00460700 
H      15.13281078      17.37076064       2.68730378        1       0.21686200       1.68245800       0.17361600 
H      15.38537906      16.49305799      10.78800174        1      -2.27364000       0.78640700       1.05897800 
H      16.35760197      16.76161478      16.49847987        1       2.63900900      -2.10493800      -1.09264600 
H      17.42489643      16.69271614      21.99816193        1      -1.64931900      -0.40325600      -0.56699900 
H      17.74933693      22.50956283       2.21483258        1      -0.14333700      -0.02408900       0.40551500 
H      16.15488719      23.38435894       9.38629048        1      -1.58330000       2.62110800       0.05544700 
H      16.68757941      21.77631098      15.61183746        1       0.69063900      -0.17531700      -0.23550200 
H      15.76025638      21.45428676      22.47620710        1      -0.82797800      -1.87647300      -0.04215900 
H      22.44551678       2.70932249       1.01558997        1      -0.78616300       1.19636200       1.58764400 
H      21.88249243       3.57878476       7.85389274        1       0.18985100      -0.46453400      -2.40512100 
H      21.85820452       4.01553997      15.29421959        1      -0.71421100       1.15777500      -0.75231300 
H      24.01770268       2.98578247      22.60849343        1      -1.57680100       1.04231700      -0.18816800 
H      22.79481649       8.57984371       4.07303354        1       0.95974500       0.09743600       0.43797500 
H      22.75080109      11.75389128       9.16180713        1       0.37953500      -2.31378400       0.69086800 
H      24.15219518      10.15250286      16.78335433        1      -0.01941500       0.49315700      -0.51347900 
H      21.20412376       9.72558588      22.01313989        1       1.13769400      -0.45438700       0.54529700 
H      21.49292131      17.15953934       3.93084194        1       0.59433600      -0.09208100      -0.10604800 
H      23.72530021      15.17273600       9.43713251        1       0.59186300       0.38143100      -0.04398900 
H      22.22838834      16.38169878      14.62992440        1      -0.50263300       0.29711200      -0.98633700 
H      23.08611637      15.21884052      23.13368466        1       0.25251900       0.33941900       1.82462200 
H      22.90761146      22.32972922       2.59583815        1      -0.86268100       0.21599200       1.02443000 
H      20.78259064      23.32320242       9.30324633        1      -0.05639100       0.31352100       0.43201500 
H      21.23388458      23.41746154      15.75730781        1      -1.37473900      -0.81075700       1.17014900 
H      24.22992551      22.19206703      22.85718665        1       0.75363700      -0.14265500       1.02147200 
H       3.64696301       4.32340266       2.29228476        1      -1.42741500      -1.78277600       1.68661500 
H       4.75775959       2.51538537       9.10225246        1       0.60020100      -1.57241300       0.82490700 
H       5.10520632       4.46936126      16.99416542        1       0.47466600       0.83449400      -0.59246600 
H       4.81983860       2.43913884      21.69641950        1      -0.20416800      -0.03001000       0.22525900 