768
Lattice="24.8489253002 0.0258528221795 -0.19559560436 0.026020823766 24.7567244757 -0.136601798689 -0.189902001459 -0.141025193063 25.198257894" Properties=species:S:1:pos:R:3:Z:I:1:forces:R:3 energy=-99817.9401031 stress="-1709.571351 -405.759316 -2504.577305 -405.759316 -979.519244 -1855.555589 -2504.577305 -1855.555589 -1359.530616" pbc="T T T"
I       0.52342594       0.06411543       3.35408176       53      -0.41076900       0.05194100      -0.30547500 
I       0.67207529      -0.44415055       9.85692402       53       0.00342000       0.21375400      -0.47906800 
I      -0.35591962      -0.41325671      15.73865957       53      -0.01027800       0.06257700       0.11492900 
I      -0.12026680      -0.81909222      21.84387509       53      -0.13478400       0.13021000      -0.02061500 
I      -0.38899845       6.83598747       3.12257266       53       0.22030700      -0.24917300      -0.14055500 
I      -0.01284484       7.14023252       9.52506165       53      -0.07409600      -0.29170800      -0.00779500 
I      -0.00711530       6.80218419      15.99432496       53       0.37132100      -0.14471300      -0.63336400 
I       0.20800927       6.12304895      22.11341665       53       0.13153500       0.06899500       0.27264700 
I      -0.51614069      12.43808292       3.35400698       53       0.00118800      -0.04935000      -0.54971700 
I       0.04263939      11.78671940       9.53953892       53       0.17029500      -0.05387300      -0.00786700 
I      -0.22280409      13.45168310      15.44619017       53      -0.11670300      -0.03207100       0.35993700 
I       0.83052118      12.76044300      22.09879468       53      -0.37861900      -0.27814500       0.08678200 
I      -0.23373488      17.83456870       3.33173269       53      -0.26826100       0.13208700       0.17783200 
I      -0.07901416      18.92803859       9.40530468       53      -0.12324700       0.11058800      -0.21699700 
I       0.12297910      18.42735016      15.60716385       53      -0.28405800       0.21737900      -0.10200900 
I      -0.18765874      18.95290476      21.98856913       53      -0.08591300      -0.02835900       0.27702200 
I       6.83505132      -0.25289483       3.22701138       53      -0.00300400       0.04621800       0.09437500 
I       5.34749633      -0.55957056       9.50363417       53       0.15931100      -0.01784900      -0.10914200 
I       7.08677305       0.10339090      15.83998395       53      -0.32229700      -0.22155200      -0.42856400 
I       4.18707829      -0.01998830      22.13643481       53       0.96871000      -0.30863400       0.25398300 
I       5.49311874       6.47681950       3.20789513       53       0.40422000      -0.53332800      -0.17068400 
I       6.87427629       6.78007499       9.55355491       53      -0.22104400       0.05265200      -0.11897400 
I       6.29646251       5.24023071      15.97920191       53      -0.22596200      -0.09399900      -0.72954900 
I       5.96190338       5.84993469      22.15712134       53       0.00765600      -0.15452700      -0.07698600 
I       5.94090901      12.27649550       3.11056200       53       0.51760500      -0.12746600      -0.38465800 
I       5.69358445      11.82808858       9.34591175       53       0.40050800      -0.09714500      -0.24600000 
I       6.24703606      12.77807928      15.83491865       53       0.03600300      -0.09844900      -0.16074800 
I       5.48622194      12.77409969      22.10156914       53      -0.11964700      -0.11083300      -0.14652600 
I       7.16487922      19.01912070       2.90971853       53      -0.11710200      -0.10360000       0.44397300 
I       6.05218821      17.75728797       9.36165437       53      -0.19453200       0.15411900      -0.20829400 
I       7.27023855      18.89138025      15.57858804       53      -0.56666000      -0.00435800       0.06402400 
I       5.30647286      17.80595696      21.99985923       53       0.25730900       0.41020500       0.11528900 
I      11.07199307       0.00604514       3.06901123       53       0.39270700       0.03468400      -0.14725800 
I      12.37279828       1.05250858       9.42227964       53       0.03283400      -0.14229000      -0.21445300 
I      11.98116133      -0.29578087      15.96723010       53      -0.24949900       0.12867500      -0.45837400 
I      11.88324942      -0.27429998      22.07051992       53       0.31774600       0.19428000       0.32173600 
I      12.63593343       6.72369249       2.55451365       53      -0.18738300      -0.25093800       0.01769800 
I      12.21124970       5.37543606       9.13396464       53       0.17656400       0.08912100      -0.00586400 
I      12.17380671       6.03006638      15.60761153       53       0.10743300       0.16923400      -0.22189700 
I      12.73559528       5.68203216      21.57923764       53      -0.04290800      -0.12900500       0.23456300 
I      11.69910123      11.11509567       2.76903614       53       0.29549500       0.16801100      -0.00747200 
I      12.20172605      12.45295446       9.29215124       53      -0.05864600       0.06976800      -0.81748500 
I      13.17925542      12.34763980      15.29172194       53      -0.02358500       0.11864500       0.13222500 
I      12.88299191      13.20027116      21.72171755       53      -0.52658100      -0.42902100       0.00492600 
I      12.03909663      18.31450359       3.05493114       53      -0.02677500       0.24022500      -0.62593800 
I      12.36160724      18.30604622       9.17305851       53      -0.13612700       0.09024500       0.55449100 
I      12.59367472      18.31499303      15.46462859       53      -0.03756800       0.28638800      -0.39799100 
I      12.86549740      17.70773624      21.70579818       53       0.05655500      -0.02060700       0.97099900 
I      18.96092223       1.37557660       2.93401661       53       0.16622900      -0.39885600      -0.24239300 
I      18.63469714      -0.31662861       9.07833863       53      -0.05786300      -0.07162900       0.05425600 
I      17.93440631       0.36903831      15.64669861       53       0.11872100      -0.06156500      -0.53092700 
I      17.79734324      -0.63034001      21.80443745       53       0.05684100      -0.04124800       0.20253100 
I      19.32882919       5.56020673       3.05077771       53      -0.14019700       0.01139600      -0.74280900 
I      19.10989691       6.60809866       9.31003904       53      -0.25225600       0.16803100       0.01267800 
I      18.49589287       5.69095469      15.84976397       53      -0.16701900      -0.10244000       0.08193100 
I      19.21082896       5.95683905      21.79672394       53       0.28526500       0.09158700       0.48053100 
I      18.82433694      13.14120355       3.28810180       53      -0.56320400      -0.41128100      -0.32265500 
I      18.68899467      11.30867429       9.07795893       53      -0.04557500       0.02455200       0.31364800 
I      18.60004025      12.09636769      15.94752535       53       0.37754100       0.28995200      -0.61376200 
I      18.59484192      12.13319014      22.08601297       53      -0.19004700       0.10023200       0.14383400 
I      18.26508393      18.14169114       3.20802914       53      -0.00580000      -0.15023300      -0.32149600 
I      19.07110408      18.58967854       9.48371966       53      -0.00142000       0.22160000      -0.38612000 
I      18.43594155      18.89839942      15.52752916       53       0.30852900      -0.36736900       0.22848600 
I      18.81014906      19.24165579      22.08289571       53      -1.12004300      -0.70127400      -0.19387500 
I       2.76332894      -0.17844682       0.28294478       53       0.67854500      -0.29496500       0.08096500 
I       3.20290363       0.35824639       5.52633256       53       0.54168000      -0.25262800       0.23033900 
I       3.15222057       0.59582200      13.64817892       53       0.40376800      -0.05465000      -0.50357300 
I       3.21057830      -0.22293325      18.24238915       53      -0.53940000       0.32506300      -0.36626200 
I       3.46478509       5.31085741       0.05473841       53      -0.30487500       0.45816500      -0.40323100 
I       2.85825372       6.46603632       6.09022649       53       0.48134600      -0.62084300       0.65594000 
I       2.99734253       5.79215088      12.05175890       53       0.32785600       0.13863000       0.19858600 
I       3.03048836       4.88118802      18.67075533       53      -0.30294200       1.23205000       1.37752200 
I       3.03180033      11.57508596       0.54569829       53      -0.40437900       0.38443900      -0.41502500 
I       3.15050850      12.39488806       5.21333783       53      -0.24479300      -0.10204000       0.44526400 
I       3.09549138      12.23635283      12.10517661       53      -0.02963400      -0.28077900       0.24367600 
I       3.14959760      13.23177388      18.01603178       53      -0.24512500      -0.44685500       0.32715300 
I       3.26470880      19.19409872       0.36796038       53      -0.26045400       0.05799300      -0.09918400 
I       3.14113537      18.63334438       5.24962715       53      -0.89626800      -0.26091100      -0.06421800 
I       2.73579707      18.04577389      12.26365940       53       0.66991000       0.38602300       0.06984700 
I       2.91282316      18.62170372      18.70198031       53      -0.21077000       0.07591100      -0.28392100 
I       8.86561852       0.19755239      -1.04534277       53       0.46107200       0.06998300      -0.03207600 
I       9.29951806       0.31806293       6.74028580       53       0.05039400      -0.04964000      -0.10860800 
I       9.25598040       0.36767487      12.07592782       53       0.29018900       0.12656700       0.06974800 
I       9.11061630      -0.69134692      19.19826380       53      -0.00489200       0.21728400      -0.06932900 
I       9.62170626       6.69544006      -1.02358997       53      -0.09058700       0.20650900       0.58758500 
I       9.06545689       6.20519395       5.51571933       53       0.36978200      -0.56575200       0.00403600 
I       9.36838900       6.13767674      12.23601974       53      -0.11330400       0.02632600       0.21774900 
I       8.83332726       6.28801291      18.50197297       53       0.57588400      -0.14514200       0.32178900 
I       9.20746291      12.29133499      -1.27064844       53       0.08484200       0.18615500       0.34793300 
I       9.23811009      12.82554022       5.63657267       53      -0.13298700      -0.14588600       0.06325500 
I       9.40066085      12.31073286      12.72022847       53       0.04394100      -0.20805000      -0.15750100 
I       9.08147434      12.09389234      18.47706406       53       0.17607600       0.02745900       0.25054500 
I       9.05263439      18.66803525      -1.42153329       53       0.68247500      -0.11257700       0.20352300 
I       9.02315545      18.48835707       6.07546468       53       0.47664700      -0.06312500       0.16961900 
I       8.82319666      18.93546950      11.87067164       53       0.54193400       0.00982500      -0.03795000 
I       8.97715604      18.42603625      18.95989577       53       0.61190800       0.24282400       0.15969700 
I      15.37817380      -0.09298645      -0.35763750       53      -0.24030800       0.05771600       0.37826400 
I      15.56368446      -0.51087243       5.50954794       53      -0.19175600       0.36700300      -0.04265100 
I      15.28856292      -0.39522616      11.78983569       53       0.22714400       0.22771800       0.09436500 
I      15.30574376      -0.26479284      18.44047662       53      -0.19687500       0.02385400       0.21599800 
I      15.73043040       6.76699126      -0.62835895       53       0.39892800      -0.25851200       0.14909100 
I      15.50786035       6.56429686       6.48963132       53      -0.56500100      -0.23548500      -0.25394500 
I      15.51247893       5.73532168      12.67850678       53       0.24996300       0.42742600      -0.08244300 
I      15.39867971       6.86946640      18.72195502       53       0.09334800      -0.24621500      -0.11524100 
I      15.54992192      12.29586618       0.17525964       53       0.23784400       0.23956800       0.03369400 
I      15.46520251      12.17209465       6.04057668       53      -0.19404800      -0.13310300      -0.14364300 
I      15.65425771      11.42928971      11.82838088       53       0.34284100       0.36559100       0.30858100 
I      15.60111191      12.98574673      18.71710046       53      -0.02304000      -0.20981300      -0.00033000 
I      15.56565678      18.25880184      -0.07090735       53      -0.17581800      -0.11714300      -0.12230800 
I      15.44597361      18.67275872       6.30568027       53       0.01062200       0.20206300       0.14835400 
I      15.42358473      18.45052078      11.39010650       53      -0.22454500      -0.10450400       0.18902800 
I      15.49948066      18.56660114      18.02646341       53      -0.10670500      -0.43688800       0.49007500 
I      21.60128469      -0.15840219      -0.79593131       53      -0.32825200       0.17484800      -0.03290800 
I      22.05415190       0.55070435       5.82515688       53      -0.43893000      -0.10595600      -0.05522400 
I      21.74296149      -0.03382853      11.49082199       53      -0.27172600      -0.20028800       0.13920100 
I      21.53021322      -0.12643819      18.63313851       53       0.03541800       0.51765800      -0.06430100 
I      22.08049805       5.57619698      -0.23397668       53      -0.22566000      -0.01792300       0.02682400 
I      21.73179959       6.03835187       6.06263732       53       0.35649600       0.19253400      -0.15862900 
I      21.72595158       5.59420423      12.28003130       53      -0.08972200      -0.06551100       0.19145800 
I      21.88258247       6.85366357      18.13451271       53      -0.13643600      -0.25413300       0.23847600 
I      21.77422047      12.57121592      -0.77503405       53       0.39769000      -0.20575200       0.08837600 
I      22.07381974      12.06150688       6.32270475       53      -0.28634400       0.54692700      -0.38387300 
I      21.78138530      12.26251932      11.50931576       53      -0.17255600       0.51605900       0.15929200 
I      22.00757468      12.06886787      18.70106650       53      -0.28524700       0.14773300       0.11859000 
I      22.04514779      18.26686009      -0.54670047       53      -0.15314300      -0.05121200      -0.09691400 
I      21.73378841      18.22464799       6.00542453       53      -0.04809400       0.11947400      -0.04203500 
I      21.54975481      19.40412984      12.35264391       53      -0.14196500      -0.30262000       0.18886100 
I      21.77257153      18.22124717      18.42894666       53      -0.49621700      -0.23754400       0.04251400 
I       0.73653449       3.00951633      -0.66945622       53      -0.42003300       0.16101500       0.03819800 
I      -0.20927657       3.40401998       6.46294917       53       0.36009700      -0.25491800      -0.13254000 
I      -0.24406163       3.19570093      11.99507342       53       0.14468100      -0.37009800      -0.12872500 
I      -0.64466385       3.08221149      19.04757997       53      -0.13109200      -0.25451000      -0.29995100 
I      -0.30937152       9.26006682      -0.40456142       53       0.00913000       0.03563000       0.36956800 
I       0.29899330       9.55157580       6.13659589       53       0.01335000       0.10230700      -0.19857700 
I      -0.36571518       9.26576237      12.53207349       53       0.05864400      -0.12225800       0.19564200 
I       0.99196003       9.16671621      18.84201498       53       0.06658400       0.27697800       0.16004200 
I       0.63335530      15.44085005       0.57341272       53      -0.04460100      -0.00563100      -0.49517500 
I      -0.33708596      15.46941226       6.33198271       53       0.17912100       0.13566500       0.07184700 
I       0.57857124      15.27484215      12.03269606       53      -0.47161600       0.05794500      -0.26525600 
I       0.03159304      15.47245571      18.71194291       53      -0.33475300       0.19982100       0.28601600 
I      -0.54242371      21.85298408      -0.18584569       53       0.13993300      -0.36900500       0.05863200 
I      -0.06813775      21.79885844       5.72708474       53      -0.03910000      -0.21456000       0.11820500 
I      -0.01014225      21.56645689      12.60478419       53      -0.00940600      -0.02837000      -0.08750300 
I      -1.31025506      21.57176399      18.38378822       53       0.99483000       0.26006300       0.97280000 
I       6.55368654       2.85308937       0.55392065       53       0.05586900       0.42271000       0.10115700 
I       5.95988444       2.90366465       6.18063950       53       0.17425000       0.03660900       0.00934400 
I       6.39994275       3.12316697      11.00365041       53      -0.28394300      -0.18735700       0.59519200 
I       6.81697319       2.84093305      19.11116420       53      -0.07553000       0.30920400      -0.03200200 
I       6.05489177       9.09389092      -0.60430850       53      -0.14106400       0.08833800       0.34109700 
I       5.87113882       9.00083358       5.75229081       53       0.19812900       0.13393800       0.26578400 
I       5.67332909       8.76496226      13.80917591       53       0.42104300      -0.09836700      -0.56503600 
I       5.36623093       9.14646182      19.00446669       53       0.00432800      -0.27178700      -0.17277400 
I       6.05860140      15.70745109      -0.09880921       53       0.03537900      -0.19032800       0.18114700 
I       5.52731338      15.35070409       5.84155306       53       0.17103200      -0.53259500      -0.13975800 
I       6.21140807      14.95994308      12.23601585       53       0.10146000       0.04766000       0.18032900 
I       6.51689516      15.36527458      18.65246063       53      -0.02022000       0.13969600       0.20742500 
I       7.16130166      21.86724188      -0.26877923       53      -0.11458500      -0.33474900       0.05547000 
I       5.73744549      21.17734677       6.40252201       53       0.30644600       1.28802200      -0.14539400 
I       5.78684475      21.51759951      12.27218669       53      -0.30151300       0.47368200      -0.05953100 
I       5.44502076      21.64702676      18.78048949       53       0.28078100      -0.15856600      -0.01071500 
I      11.76271460       3.16554804      -0.64164467       53       0.11685600      -0.08181100       0.42227200 
I      12.06195067       3.13691980       5.04325516       53       0.51207800       0.00148300       0.48362700 
I      12.90490689       3.23670303      12.67606251       53      -0.25296000      -0.56930300      -0.28784300 
I      12.34256770       3.02564739      18.39635824       53      -0.24980700      -0.23742300       0.16183600 
I      12.39809660       9.63127167      -1.27945833       53       0.04019600      -0.72623300      -0.19954500 
I      11.43828994       9.07519710       6.37825307       53       0.24253300      -0.01326600       0.02540700 
I      12.52043574       9.08845078      11.38461780       53      -0.19312600       0.01839200       0.04180700 
I      11.80905779       9.14960141      18.79701580       53       0.14284500       0.44937400       0.13076500 
I      12.10831134      15.42522881      -0.17364566       53       0.06647100       0.71489100       0.03549000 
I      12.19971974      15.23027705       6.05620568       53       0.22782200       0.30070400      -0.02836000 
I      12.57401174      15.46335061      11.82341464       53      -0.46106100       0.17305100       0.36027300 
I      11.59865765      15.34521150      18.19368520       53       0.26961500       0.07532900       0.10555300 
I      13.21739081      21.79757852       0.20230207       53      -0.46424300      -0.23937900      -0.47116500 
I      12.12197871      21.76856377       6.15949461       53      -0.14449300       0.07396100       0.01074400 
I      12.00174007      21.99910468      11.59913155       53       0.13940200      -0.19785600       0.13644100 
I      12.15191601      21.49041432      18.67579926       53      -0.02288500       0.14765500       0.23982800 
I      18.06947571       3.19032100      -0.96975760       53       0.21557600       0.01382600       0.19515700 
I      18.66589785       3.37169376       6.32648042       53      -0.06787300      -0.76692000       0.11687200 
I      18.30330284       3.05147982      11.84937720       53       0.07588600      -0.20552600       0.07913400 
I      17.84016519       2.93297170      18.71735974       53       0.13661300       0.31976900       0.09664600 
I      19.04926387       9.35363400      -0.56405027       53      -0.29099100      -0.23356900       0.43066700 
I      18.26839055       9.14807774       5.27350862       53       0.35010600       0.73469500      -0.11819600 
I      20.42728669       9.17121147      12.95143070       53      -0.83658600      -0.09938700       0.09731800 
I      18.74063525       9.14665701      19.03152077       53      -0.11213800       0.30847500      -0.09395800 
I      19.40838329      15.43618582      -0.38417010       53      -0.40116200       0.26850200      -0.08249500 
I      18.38806401      15.27981810       6.72659416       53       0.08468500       0.11149000      -0.09306000 
I      18.67986043      15.19525892      11.54174396       53       0.14058300      -0.14606200       0.32704000 
I      18.71476009      15.45927973      18.17332399       53       0.01745800       0.14071800       0.05837400 
I      18.25870764      21.76297893       0.30248249       53      -0.04033400      -0.21851400      -0.03331200 
I      18.76989860      21.96095375       4.69355355       53      -0.14760300      -0.11867000       0.22721200 
I      17.55568121      21.38937545      12.72337680       53       0.18541600       0.36273400      -0.17608200 
I      18.45449067      21.70384334      17.70088411       53      -0.20754500      -0.64334700       0.21499200 
H       4.32355191       2.34018247       2.78858939        1      -0.97023500       0.72867300       0.88755800 
H       3.91123814       2.92761701       8.35267666        1      -1.69762200       1.20843000       0.74034500 
H       1.06117765       2.31790235      16.12895930        1      -1.09830800       0.91890100       0.86040700 
H       3.03584111       1.82241323      20.36276048        1      -0.31336100      -0.05488300       0.27522600 
H       2.48901245       8.37633381       1.76012446        1       1.23682200       0.51069200       0.98581600 
H       4.42581049       8.71295461       9.37345139        1      -0.98950400      -0.42396000      -0.90077400 
H       2.13577892       9.76977393      14.57709368        1      -1.87469900      -0.89515800      -2.74808300 
H       3.59368406       8.35586869      21.84943274        1       1.23311600      -2.28070800      -0.81686300 
H       4.39630630      14.68385626       2.97576840        1      -0.86341600       1.14268600      -0.47783900 
H       2.15768613      14.55265965       8.82497379        1       0.63147400       0.22127800      -1.08672200 
H       4.17296810      15.51621673      16.23191611        1       1.83252800       0.59669100       0.37593500 
H       3.59072413      15.98280180      20.81826231        1      -1.08870500      -0.95851600       0.60407600 
H       2.15701704      21.58264914       3.09049601        1      -1.94304200       0.97365800      -0.24587400 
H       2.32614414      19.95322506       8.82053292        1       0.99554500       1.58869300       0.58277200 
H       2.35512878      22.94025539      14.80090773        1      -0.29896900       0.16070400      -1.40662700 
H       3.25865103      21.96809042      21.00314272        1       1.34924300       1.89245900      -0.60069000 
H      10.41428142       3.93931188       2.60066068        1      -0.01866600       0.28143400       0.69940300 
H       8.78329677       2.62860623       8.21448225        1       0.48034000       0.68763500       0.77124200 
H      10.58617035       2.64861202      14.70128473        1       1.61660900      -0.76114000      -0.87884900 
H       9.44733615       2.24519845      22.55875195        1       0.23270700       0.18376100      -0.80371900 
H       7.76741740       8.39641922       2.43246098        1       0.51965300      -0.05898600      -0.75233200 
H       8.54973475      10.05930184       8.54022275        1      -1.18492000       0.80557200      -0.63032200 
H       9.89136920       8.98371490      16.74914444        1       0.15689600       0.15428300       1.54549500 
H      10.24638375       9.34978550      21.78299443        1      -1.85094800       0.38384700      -0.34339000 
H      10.04642496      14.82212351       2.65769867        1      -0.60410800      -0.00585100       0.01717700 
H       9.20780182      15.37733380       8.36326464        1       2.18219000       2.46442400      -3.03040000 
H       8.95008933      14.59554958      15.61065595        1      -1.53502000      -0.55737400       1.46127400 
H       9.63658848      16.20048525      21.15569593        1      -0.10480200       0.21065400       0.90223500 
H      10.27644923      22.25482446       2.94852010        1       1.64812500       1.07017800      -0.36349200 
H      10.13050441      21.20614107       9.00024509        1      -1.07637900       1.01033600       0.27344400 
H      10.79230053      21.17973278      14.94043644        1      -0.20625200       0.05891800       1.03344900 
H       8.82724618      22.23098959      21.52270073        1      -0.00540100       1.03716300       0.17354400 
H      15.22148659       1.59127801       2.39944042        1      -0.23962700       3.25159100       0.25783300 
H      16.52137799       4.13214663       8.66088382        1      -0.71942000      -0.66511400       0.01107300 
H      15.15536486       2.57895060      14.69713227        1       2.23238000       0.48435000      -3.65622700 
H      15.79741448       1.76314946      21.83949831        1       3.72018200      -1.19225600      -0.65057100 
H      16.29199950       8.77784983       2.95267061        1       0.57186800       1.09162500      -0.75012100 
H      15.64226550      10.28512802       9.18026219        1       0.11685600       1.88530100      -0.17170600 
H      16.29181207       8.91555675      14.98275828        1       1.35760200      -0.28789500      -1.13531000 
H      15.73019151       9.43601887      20.95524381        1      -0.16031300       0.07400900       0.03522900 
H      15.33129068      15.42441211       2.49959655        1      -0.41230500      -0.97109100      -0.48255100 
H      15.90137736      14.27089088       8.57686847        1      -0.03799200       0.56166800      -0.15062900 
H      15.85623252      16.94414087      15.20976338        1      -1.05841900      -2.16309400      -0.32865800 
H      15.89114480      16.18543211      21.11013739        1      -0.25678100       0.15196800       0.01445200 
H      15.50620752      20.15936009       3.66470212        1       0.42600600       0.30189100       0.32577000 
H      15.91293645      22.36512090       8.11052325        1      -0.75408800       0.64479600       0.71179200 
H      15.80954653      22.39681881      15.16886422        1      -0.38716200       0.37057600       0.47156300 
H      14.05201007      20.77902180      21.65589783        1       0.71079000       1.24343700       0.51861000 
H      22.93445788       1.47142587       2.48181169        1       0.13073300       0.25288400       0.85846300 
H      22.60845226       3.57503492       8.33311176        1      -0.61588900       0.11608600       0.92999900 
H      20.83151501       3.28927587      14.53048538        1       0.12800400       0.81619200       0.07015700 
H      22.73135950       2.61345307      21.50996951        1      -0.51234600       0.75150800       0.02810300 
H      20.65581255       9.25579978       2.28840885        1       0.85938600       0.20163200       0.35937000 
H      22.32438585      10.26539803       7.98088138        1       0.28000300      -0.36732800      -0.76698600 
H      23.44463500      10.05038610      16.54140028        1      -1.30288700      -0.06018900      -0.50034700 
H      22.71868266       8.29808003      21.40306418        1       0.80997700       1.45740700      -0.05298600 
H      22.39846775      15.07889791       2.49569950        1       0.70835200      -0.30999700       0.50479900 
H      23.23107099      16.73063319       9.25179299        1       0.34673300       0.15089700      -0.58271800 
H      20.49182552      16.36409257      14.88049387        1       0.81327100      -0.38616200       0.39733300 
H      21.23762243      15.88300983      20.68930216        1      -0.33717500       0.22836400       0.84354400 
H      22.35897864      22.13835954       1.71780457        1       0.97420500       0.76024700      -1.15744600 
H      22.85666732      21.65572497       8.52645731        1       2.05804000      -0.65635100       0.00082300 
H      20.60849048      22.27787272      16.23872649        1       1.37352000      -1.93048100      -1.03332600 
H      20.40166305      21.71751945      20.19789266        1       0.87573800       0.70277500       1.00749500 
H       3.65018989       3.67922309       1.99177631        1      -0.83598100      -0.33036700       0.57625400 
H       3.85236572       3.99316173       9.78955927        1      -0.93872300       0.15101100      -1.01700400 
H       1.63589166       2.49649192      14.63519601        1       1.30511900       0.69645800       0.71704200 
H       1.72235227       2.91759324      20.33522376        1       0.15759700       0.02542600       0.60981100 