768
Lattice="26.2704940938 -0.0452173320162 0.29388509652 -0.0666286002805 26.0618355426 -0.0230884417451 0.254337284597 -0.0675718189636 26.1474846988" Properties=species:S:1:pos:R:3:Z:I:1:forces:R:3 energy=-99805.0226311 stress="2784.490888 -429.032346 -228.973776 -429.032346 3417.369167 -419.700313 -228.973776 -419.700313 -2504.393621" pbc="T T T"
I      -0.21953211       0.60787484       3.24284198       53      -0.15326700      -0.19760000      -0.03996500 
I       0.44867504       0.05072659       9.67082014       53       0.01777000       0.03828100       0.60613900 
I      -0.32249402      -0.40580146      16.23222597       53       0.07079400       0.07677000       0.78017100 
I       1.17917852      -0.18819152      23.01209309       53      -0.09299100      -0.25644700      -0.59567800 
I       1.08425131       5.84544569       3.85085360       53       0.00984300       0.44537100      -0.55991900 
I      -0.33728132       5.49681104       9.76701415       53      -0.11240900      -0.09678200       0.95159200 
I       0.80122752       6.65015822      16.18017541       53      -0.36526200       0.07421800       0.08217400 
I      -0.05725154       6.12671677      22.76261890       53      -0.09755700      -0.06594700       0.24434400 
I       1.29453498      13.08074963       2.83104842       53      -0.46427600      -0.34677600       0.32776400 
I      -0.16590033      13.67430571       9.92881290       53      -0.19721900      -0.06983100      -0.97973500 
I      -0.29968426      11.84982168      16.18753435       53       0.11594100       0.04331500       0.15730500 
I      -0.20754690      12.98166879      22.65882809       53      -0.05775700       0.12172300      -0.17100000 
I      -0.00317264      19.69368235       3.18090293       53      -0.32602700      -0.00078600       0.09067800 
I      -0.61808181      19.16168864       9.95186766       53       0.31167700      -0.36947000      -0.14394700 
I       1.19810516      19.56594972      16.14260284       53      -0.14971000       0.06968900       0.15319900 
I      -0.89469498      19.11820565      22.68179812       53       0.47718500       0.02789100       0.40267800 
I       6.63798927       0.61919346       2.83355244       53      -0.27354700      -0.10069300      -0.17494600 
I       6.39544324      -1.16818144       9.49854084       53       0.24424000       0.27468900      -0.00572300 
I       6.77290731       0.81892818      16.38672090       53      -0.00281200      -0.17493600      -0.20301800 
I       6.65256629      -1.20006203      22.38797938       53      -0.26710500      -0.13290800      -0.00601900 
I       6.19849326       5.51582853       3.80974192       53       0.30564100       0.36457800      -0.11838300 
I       7.29117535       6.79969717      10.10946684       53       0.21607900       0.29984700      -0.37832400 
I       7.65412978       6.08829694      16.78453257       53      -0.18694000      -0.00258900       0.10590600 
I       6.22605791       7.87506141      22.90020633       53       0.33445000      -0.25474900      -0.01599000 
I       6.87402566      13.73165831       3.45054506       53      -0.18532800       0.45662400      -0.70261900 
I       6.60436005      12.86108686       9.94613485       53       0.04871800       0.13671500      -0.02141000 
I       6.47612110      13.81021189      16.34844603       53      -0.14147400      -0.02181900       0.38341900 
I       6.90024285      12.74763112      23.08310603       53       0.07016600      -0.19772000      -0.00471700 
I       6.14510136      18.63701406       3.59864162       53       0.06841600       0.02168000      -0.93260700 
I       6.67347328      20.11852887       9.86930846       53       0.46828800      -0.05722400      -0.06701800 
I       6.39329956      18.83180301      16.36723486       53      -0.06360900      -0.14183900       0.41085900 
I       6.71969712      20.22497376      23.12155240       53      -0.89614300      -0.56453200      -0.26957800 
I      12.89490390      -0.17634004       3.31921615       53      -0.19549300      -0.13928400      -0.21962000 
I      13.21393843      -0.20407618      10.33565150       53       0.23310700       0.30736800      -0.09429800 
I      12.15354422      -0.25832146      16.48686133       53       0.26697700      -0.03558900       0.34100800 
I      14.62290605      -0.21422599      22.73829835       53      -0.12710300       0.24374700       0.02218700 
I      14.35947957       5.87776318       3.67357136       53       0.10629100       0.54848000      -0.13582500 
I      12.64326357       5.59582450       9.98705462       53      -0.13570300       0.17310200      -0.36298300 
I      13.35711781       6.84044238      16.52996561       53       0.02055300      -0.20094500      -0.46057100 
I      13.73565780       5.73325575      23.44365749       53      -0.15454600       0.27439800      -0.39124000 
I      13.48785874      12.84983561       3.51184815       53       0.04004900       0.03683800       0.72043700 
I      12.89296030      14.56116912      10.11453817       53       0.14658400       0.14463100      -0.22708400 
I      13.15899901      12.67566885      16.41585044       53       0.09112000       0.11170300       0.21470600 
I      12.34153261      12.27603403      23.09550466       53      -0.10589500       0.10661300       0.02684500 
I      12.75506867      20.16509877       3.10816484       53       0.29959600      -0.20419400       0.30828300 
I      13.48168902      18.97347977       9.97387507       53      -0.06645800       0.06361100       0.07260700 
I      13.06803455      20.29810485      16.57407231       53       0.32599400      -0.47399600      -0.90492400 
I      12.97756416      19.22017535      22.84127660       53      -0.12642800       0.34154000       0.38852700 
I      19.82620458      -0.26424618       3.60106806       53       0.13904900      -0.26890900       0.08338000 
I      19.40454704      -0.07459594      10.35507833       53      -0.01805400      -0.14284700      -0.10784500 
I      21.12009543      -0.15165405      16.64243320       53       0.05776900      -0.07277400       0.00639400 
I      20.44913008      -0.44551771      23.19969663       53      -0.15159200      -0.12028000      -0.00582600 
I      19.64547510       6.44891986       3.50406353       53      -0.23579300       0.31394000      -0.27468800 
I      21.02538770       6.62555695       9.82023863       53      -0.00465800       0.00817400       0.62744900 
I      19.47249757       6.33498639      16.55260490       53       0.14888000       0.04988500      -0.34969700 
I      19.59047034       7.29509012      22.79099100       53       0.02251900      -0.06502600       0.41259500 
I      19.46951378      12.33082034       3.69871978       53      -0.19295600      -0.15007200      -0.73596500 
I      20.53495278      13.56898779       9.94760174       53      -0.07591800      -0.21962300       0.05244000 
I      19.16602398      12.76966916      16.58703238       53      -0.06661300      -0.07483200      -0.14311700 
I      19.79868281      12.49527011      23.19432315       53       0.12074700       0.01132700       0.06567300 
I      19.87994048      20.06447346       3.28049927       53      -0.34664800      -0.17838000       0.28002200 
I      20.63936321      19.43581821      10.39872874       53       0.02847500      -0.09590500      -0.89057500 
I      19.51126039      19.55373483      16.78174068       53       0.12835400       0.35330500       0.19318400 
I      19.51557021      18.68513761      23.32053275       53       0.08296400       0.20759700      -0.61284300 
I       2.79512342      -0.41280109       0.65290638       53       0.50900500       0.45890800      -0.37675200 
I       3.14578334      -0.48312498       5.48434197       53       0.46042800       0.11563000       0.17983500 
I       3.64975407       0.36981318      13.37342201       53      -0.59779500      -0.04223100      -0.07049900 
I       3.60162644       0.05545187      18.89113596       53       0.38755900       0.00681900      -0.00776800 
I       3.00730067       6.53140250      -0.57037985       53       0.08982300       0.17134600       0.28850300 
I       3.40524198       6.33412688       7.89737914       53       0.18167600       0.03956600      -0.29446900 
I       3.66673507       6.68843922      12.54096007       53      -0.10247000      -0.07350300       0.12668700 
I       3.75910925       6.54463002      19.23995436       53      -0.22418200      -0.24966300       0.76876500 
I       3.15195612      12.56174048      -0.81030345       53      -0.19089800       0.00321500      -0.01012300 
I       3.59866612      12.33241279       6.50248835       53      -0.20446800       0.13531300       0.11791000 
I       3.03323612      12.47850756      12.93658416       53       0.45899400       0.26884000       0.06331800 
I       3.61786838      13.85232191      19.75896962       53      -0.78456100      -0.22109900       0.18588700 
I       2.95893826      19.23113873      -0.27193689       53       0.00446700       0.44566100       0.24991300 
I       3.24735289      19.41041663       6.80255847       53      -0.21745600       0.10687600      -0.16570000 
I       3.14255149      20.06180101      11.58112481       53       0.02455000      -0.09686000       0.52980800 
I       3.44725911      18.81644202      20.02206435       53      -0.26275400       0.32495000      -0.06077400 
I       9.24217114      -0.27104777      -0.54147183       53       0.21613100       0.18784100      -0.13578500 
I       9.81593494      -0.20313092       6.13698805       53       0.13279200      -0.07483400      -0.01613000 
I       9.95734119      -0.18651639      13.38435784       53       0.29750100       0.29657400      -0.49947200 
I      10.44879589      -0.05502926      20.39095881       53       0.33896600      -0.05378400       0.37348500 
I       9.62526288       6.65214776       0.47571398       53      -0.09484100      -0.17615900      -0.19234900 
I       9.96623541       6.90865628       5.34560410       53       0.00436600      -0.16746000       0.23677200 
I      10.21519615       6.24429347      13.36688277       53      -0.32657600      -0.29824000       0.10286500 
I      10.33804425       6.49435360      21.07202803       53       0.13141500      -0.31833400      -0.06645400 
I       9.83474011      14.19491547       0.40249816       53      -0.39286300       0.02894400      -0.08040300 
I      10.05168959      13.24847004       7.16814656       53      -0.51788700       0.27288600       0.04768800 
I       9.94588986      13.41427849      13.29738266       53      -0.49393200      -0.17257400      -0.04918000 
I       9.67385906      14.24745499      19.32544223       53       0.31639500      -0.41975600      -0.07473700 
I       9.56695992      19.39189831       0.57006239       53       0.69397900      -0.27276200      -0.19861600 
I       9.97535625      19.42390548       6.31393036       53      -0.79657400      -0.28198200       0.00622700 
I       9.93243368      19.66165375      13.55151375       53      -0.20016300      -0.22492400      -0.27202100 
I       9.85226520      19.37707426      19.45037889       53      -0.17865100       0.05992600       0.01713700 
I      16.50482842      -0.62948414      -0.10255666       53      -0.25679900      -0.07478700       0.16002300 
I      16.29296558      -0.38439326       6.29136457       53      -0.27138600       0.30301700       0.06066000 
I      17.21160443      -0.43084984      14.31701737       53      -0.44532500       0.12109400      -0.06770100 
I      17.04265702      -0.31767279      19.18871125       53       0.32075500       0.01150000      -0.08203700 
I      16.47438818       7.19896246      -0.09680343       53       0.42771200      -0.03963000      -0.06251000 
I      16.43265075       6.35506246       7.16673786       53      -0.03300700       0.22759500      -0.09114100 
I      16.30058074       6.87841408      12.01947243       53       0.47443600       0.10569000      -0.07655900 
I      16.57996436       5.90577085      19.50128616       53       0.54221600      -0.15287700      -0.00894900 
I      15.88545325      11.98794708      -0.21847660       53       0.45072400       0.19682000       0.13669400 
I      16.41386498      12.98126047       7.23338586       53       0.48148100      -0.07098900      -0.07831400 
I      16.43712288      13.53074660      12.95936637       53       0.04978700       0.16261500       0.04862000 
I      16.01774070      12.48069207      20.36827766       53       0.25420800       0.49647700       0.00424000 
I      16.31827324      19.89728999       0.52820859       53      -0.19517100      -0.38403100      -0.40714000 
I      16.30576845      20.02980507       6.80771861       53       0.19416100      -0.13677700      -0.06902400 
I      16.93638363      20.17445439      13.16265755       53      -0.26326200       0.10422400      -0.04159000 
I      16.43439326      18.71694266      19.60058238       53      -0.34637100       0.47578600       0.28583900 
I      22.81337713       1.00485966       1.01578834       53       0.02797100      -0.00589100      -0.24129300 
I      23.01458078       0.12292059       7.29781668       53       0.46277800      -0.32914900      -0.30723300 
I      22.89043728       1.77793864      13.26457213       53       0.25943100      -0.57728600       1.05079000 
I      23.77949030       0.35259638      20.50504437       53      -0.48790000      -0.36508300      -0.17298200 
I      22.84465749       5.88250581       0.82938730       53      -0.76930300      -0.09479800       0.07442000 
I      22.94970796       6.87492805       6.05233826       53       0.84378900       0.03829100      -0.11858600 
I      23.09566186       6.34669496      13.87061361       53       0.00813900      -0.05045400      -0.01420700 
I      23.02115575       6.42828746      19.57287380       53       0.41586000       0.33555900       0.03719100 
I      22.88358465      13.16014843       0.12524801       53      -0.21208200      -0.01522100       0.23569700 
I      23.24019481      13.39954529       5.73290051       53      -0.27169400      -0.55235900       0.51052300 
I      22.93451336      13.14313272      13.31446880       53      -0.90155500       0.19914400       0.18489900 
I      22.77210110      12.39620969      19.61296672       53      -0.48166600       0.02681600      -0.05579200 
I      22.76286287      18.82981654       0.01991478       53       0.61320100      -0.34223900       0.06779800 
I      23.01119275      19.24009625       6.42922558       53       0.11861900      -0.04386600       0.10933300 
I      23.39317692      18.92397610      13.85799449       53      -0.45332000       0.07371900       0.13716100 
I      23.23951598      18.86699099      19.64115304       53      -0.40799100       0.48225700       0.18176500 
I       0.21258353       3.40405071      -0.09113902       53       0.10067700       0.02260500       0.17952200 
I      -0.54878382       3.42605608       6.62770982       53       0.41653200      -0.61723100       0.36433300 
I       0.24287064       3.06281583      13.78172954       53       0.44995600       0.36701300      -0.10868400 
I       0.52612514       3.29485375      19.52278624       53      -0.01410800      -0.26859300      -0.25369500 
I      -0.62165053       9.85024810       0.13110740       53       0.08632000      -0.27380700      -0.03483600 
I       0.13947489       9.85879423       6.83618157       53      -0.04505200      -0.89708600       0.04762000 
I       0.05134723       9.57172501      11.98616578       53      -0.05967200      -0.40793800       0.15444100 
I      -0.37836850       9.64273590      20.19194273       53       0.15320800      -0.11896300      -0.15420200 
I       0.08536435      16.37001756       0.45250814       53      -0.25054100       0.07213900      -0.05223400 
I       0.01516806      16.23239236       5.53597707       53       0.20957700       0.44163300       0.24591100 
I       0.19493084      15.87349969      13.59435568       53      -0.17170500       0.47144900      -0.28933000 
I       0.04694555      16.25378934      19.65370887       53       0.02977100      -0.30196500      -0.08984100 
I      -0.68651621      23.06451216       0.64184296       53      -0.10027900       0.00645900      -0.05261200 
I      -0.24521338      22.67014876       5.92338168       53       0.01942100       0.20942500       0.29559600 
I      -0.42742200      22.76561698      13.36541793       53       0.04553700      -0.23257900      -0.15017200 
I       0.70604002      22.73677328      19.83939535       53      -0.11073200      -0.05489800       0.02681800 
I       6.87942059       3.55130817      -1.40205987       53      -0.40115000      -0.15340400       0.13413400 
I       7.81195252       3.10934897       7.04584662       53      -0.24898900       0.15061600      -0.02269100 
I       6.21272422       3.26017923      12.23010827       53       0.35488300      -0.22904700      -0.07627900 
I       6.35003910       3.15443564      20.42970631       53       0.40968300      -0.20193800      -0.31070400 
I       6.73236014      10.05857080       0.84547101       53      -0.12004100      -0.10563700      -0.18044000 
I       6.83801492       9.72661091       6.50136956       53       0.27524900      -0.05205300      -0.31114700 
I       7.33351301       9.67379679      14.15746744       53      -0.36477700      -0.05254800      -0.55691400 
I       7.25515440       9.78751997      19.35616421       53      -0.35700000       0.10234400       0.16786400 
I       6.16686073      16.32933462      -0.56811266       53      -0.04361600       0.46029600       0.05634800 
I       5.69108244      16.33872087       6.83765560       53       0.40661500       0.10294000       0.04309900 
I       5.70978451      16.42886869      12.31151192       53       0.25676400      -0.06884500       0.31821500 
I       6.67833637      16.38123921      20.40974050       53       0.07119800       0.34852200       0.21860800 
I       6.14042508      23.12303562       0.31400199       53      -0.12304200      -0.48479800       0.20022800 
I       7.01152939      22.95012240       4.55551350       53      -0.48179800      -0.25579800       0.66808300 
I       6.07731620      23.03522441      13.24632534       53       0.08092300      -0.36216900       0.09681100 
I       6.62099092      22.68805766      18.49749324       53       0.75145400       0.19625000       0.47869300 
I      13.46341161       3.30426756       0.64271064       53      -0.12769500      -0.07306800       0.11139800 
I      13.46647299       3.23058115       6.24496515       53      -0.15058900      -0.01642400       0.26089200 
I      13.82064344       3.52893327      13.41721023       53      -0.30252800      -0.30557800      -0.06987500 
I      13.47992304       3.10147861      19.17820007       53      -0.12614500       0.18279400      -0.01506700 
I      12.05024136       9.72964881       1.17021998       53       0.22460200       0.18606300      -0.16844800 
I      13.31836826       9.89473147       7.97118090       53      -0.07287600      -0.34748400      -0.27913900 
I      13.26152096      10.24232899      12.97259286       53      -0.29232200      -0.41051800       0.01629600 
I      13.59931370       9.47821366      19.18729846       53      -0.33390900      -0.03990300       0.76849500 
I      13.86309236      16.32023215       0.14231271       53      -0.18632200      -0.04365100      -0.28198500 
I      13.69433992      16.32545558       6.25282939       53       0.07672600       0.71753900      -0.25574400 
I      13.01778978      16.47134620      14.53060741       53       0.36600400       0.22393000      -0.02043900 
I      13.15497502      15.87795650      20.24950357       53       0.01805600       0.28589500      -0.23156700 
I      12.57237619      23.27162625      -0.88429814       53       0.04294400      -0.82054400       0.14568000 
I      12.98171473      22.74737224       7.21081292       53      -0.03128900       0.29778400       0.07116800 
I      12.69014991      22.75569379      13.14906459       53       0.58783800      -0.01300400      -0.26745300 
I      12.66950220      22.62970366      19.32194497       53       0.03840900       0.49460100       0.55163700 
I      19.00240616       3.04567865      -0.10308237       53       0.21820800       0.28181000       0.25074600 
I      19.84215457       3.13715146       6.48277672       53      -0.14640600      -0.03502500       0.31131100 
I      19.12933645       3.32518578      13.21328206       53       0.10356300       0.10859400      -0.08575600 
I      19.92033658       3.19770120      20.23673949       53      -0.04597800      -0.24980200      -0.13080500 
I      19.80308653       9.54942156       0.38661656       53       0.39917500       0.67050700      -0.01798000 
I      19.48665096       9.64663127       6.99504858       53      -0.11557700       1.06628200       0.08139000 
I      19.84787513       9.79258314      13.21661497       53      -0.00256400       0.02870500      -0.17728200 
I      18.41495242       9.60434976      19.73154687       53       0.38911200      -0.47149000      -0.33445900 
I      18.99193990      16.22840001       0.81131915       53       0.00368100      -0.34801900      -0.01182800 
I      19.38638497      16.16699791       5.96235785       53      -0.23137700       0.15993900      -0.06876700 
I      19.96427179      16.23317123      14.03921395       53      -0.55752600       0.64574000      -0.83221600 
I      19.12628017      16.04868827      19.66968030       53       0.48743300      -0.38769000       0.10712500 
I      20.61356965      22.84475140       0.27954491       53      -0.14213500      -0.16042700       0.11437000 
I      20.10383549      22.70383616       7.95530339       53       0.05945200      -0.35810400      -0.24092000 
I      21.05035339      22.91001621      13.64759956       53       0.23858300      -0.93201000      -0.01368500 
I      20.30360390      22.72458289      20.37018350       53       0.15876500       0.79606900       0.07783600 
H       3.91227919       2.64872241       2.16198278        1       0.15210000      -0.27338800       0.78513300 
H       4.77887156       2.57259629       9.49953101        1       0.01461100       0.07730500      -0.40993800 
H       3.19636600       3.11330661      15.22637716        1      -1.72217300      -1.27973300      -0.26402400 
H       3.37956989       1.50722160      23.37059888        1       1.12735800      -1.45517500      -0.34784100 
H       3.09237001      10.66941719       3.72239620        1       1.02113500      -1.49430300      -1.18053600 
H       3.50772208      10.42317178      10.89225771        1      -0.16836200      -0.88514600      -0.82297300 
H       2.53770741       9.23358622      16.97787300        1       0.19707300       0.15687300      -1.42060700 
H       3.40677420       8.83058889      22.16153748        1       1.67063100      -1.39630600      -1.91598600 
H       4.64526014      16.17571655       2.69629473        1      -1.86029900       1.07043800       0.61066300 
H       4.49471979      16.79259586       9.70233528        1       0.78954100      -0.55885100      -0.67049200 
H       1.87743187      15.73399520      15.99335482        1      -1.05555800       0.10925100       0.31348900 
H       2.20603130      17.48492246      23.45876022        1      -1.08457500       1.70321200       0.41462600 
H       4.09234923      21.22393932       3.42355614        1       0.29734000       0.27588900      -1.29580400 
H       3.00365846      24.47374315       8.68876208        1       0.88178000      -2.38413700       1.40449800 
H       2.85282615      22.24181621      16.10636548        1      -0.11511900      -0.41572700       0.85067500 
H       2.31215361      22.62770392      23.27626374        1      -1.22375500       0.18050500       0.57455700 
H      11.17514981       2.75556847       3.31977657        1       0.52037500      -1.07483800       0.99415100 
H       8.93323027       2.20601394       9.71140508        1      -0.73154100      -0.10915100       0.34741100 
H       8.71694431       2.89518831      16.96716584        1      -0.92239800       0.22602100       0.24442600 
H      11.01330410       2.75109532      22.22948495        1       0.37028100       0.04610000       2.69930900 
H      10.67830529      11.45804703       3.46871937        1       1.14738400      -0.38015200       0.31576800 
H       9.61542237      10.37304134       9.25890102        1      -0.07162400      -0.51660200       0.69236300 
H      11.16854830      10.07766690      16.60286804        1      -0.65917900      -0.80106100       1.28175900 
H       9.40447110       8.23498916      23.45236389        1      -0.84731000       0.00339300       0.51817500 
H      11.12993044      15.85401978       2.86073633        1       1.05702900      -1.01887700      -0.24345700 
H       9.95268022      17.82120442      10.27991075        1       0.06912500      -0.14160600       0.78460200 
H       9.99876625      15.34705505      15.88819921        1       0.23813900      -2.13681000       0.79411000 
H      10.32980640      17.22405206      24.15850599        1      -0.52783900      -0.62667300       0.35544900 
H       9.92262788      21.64010292       2.92757011        1       0.90601900       1.43622000      -1.19638400 
H       9.57072769      23.95494735       9.11113418        1      -0.99015200       0.86081200      -0.08818500 
H       8.55021509      22.48382734      14.99990362        1      -0.32707800      -1.04833000      -0.22058000 
H       9.73527648      22.71569887      24.00037599        1       0.09883600       1.12720000       1.93847100 
H      17.17563350       2.13957419       2.59108195        1       0.11905500       1.17812500       1.29604700 
H      16.88394006       1.97182724       9.35369042        1      -0.65365800       0.61836400       0.71635800 
H      16.78666400       4.22867904      15.12036509        1       0.02580000       0.22857900       0.84514300 
H      17.68895271       1.91877731      23.62622543        1      -0.90356000       1.43251200      -0.68853600 
H      15.18017169      10.04152141       2.73434401        1       1.25604900      -0.62774400       0.90971100 
H      15.42475626      11.31445933       9.94527329        1      -0.31667800       1.65710100       0.38449700 
H      17.90955767       9.58356118      15.71772570        1       1.02725900       1.17683800       0.66496600 
H      14.72622729       9.81610746      22.40514718        1      -1.40537000       1.24262200      -1.35667300 
H      16.64148182      15.13133665       2.58777048        1       1.31920000      -0.99430400      -0.91144700 
H      17.86320828      15.12736778       9.79240960        1       0.02315300      -1.72945100      -1.38677400 
H      17.00656461      17.44095459      16.66596263        1       0.28315000       3.80893200       1.02660000 
H      17.39164589      16.60760557      23.97195591        1      -0.67135800       0.06189900      -0.19507100 
H      15.96572688      21.39469559       2.76102158        1       1.62530900       2.09370600      -0.27694700 
H      15.89668001      24.18046542      10.48365313        1       0.92987800      -0.56372800      -0.86330700 
H      15.73924823      23.61367164      17.06141829        1       0.48096100      -0.83350300       0.06207200 
H      15.51864429      22.48195928      22.42923294        1      -0.15197600      -0.66333900      -0.23059300 
H      23.16320918       2.37125994       5.14931764        1       0.49735000       1.36459300      -1.00736900 
H      21.36815072       2.36703281      10.70620272        1      -1.84471400      -1.22651200       1.94488600 
H      23.26869043       3.76909165      18.63831762        1      -0.46595500      -1.13490800      -1.87380300 
H      22.05041427       2.36543219      22.27160722        1      -0.20990000      -0.58567400      -1.87067600 
H      23.68663124      10.31358488       2.53712759        1      -0.57769700       0.15288300       1.40948300 
H      23.53612763       9.24114932       8.55376339        1       0.10245500       0.63700700       2.23077500 
H      22.60695413       9.73687301      15.23406888        1      -0.17009100       0.13281800       0.31368000 
H      23.95644997       8.33478660      24.54704982        1       0.35039800       0.00246400       3.80965000 
H      21.52281816      16.04220824       3.99212714        1       0.79879000      -0.61046100       0.26603800 
H      22.78284298      15.39140062       9.52831449        1       1.55753900       0.72901100      -1.26061800 
H      22.76624988      17.36154864      16.60015373        1       0.13371200       1.50985900      -0.71176500 
H      24.10887472      16.11068653      23.46283117        1      -2.34627300      -1.30861400      -0.34251600 
H      21.84390961      22.25628298       4.74785967        1       1.22980500       0.06198200      -2.53568500 
H      23.84989994      23.83649378      10.51457927        1       0.49121300      -0.47970900       0.10972900 
H      23.60302674      21.63952616      18.03019371        1      -0.68441500      -1.27525100      -0.41553400 
H      22.18608873      22.70419957      23.86982186        1      -4.27770400       1.75657600      -0.05396500 
H       2.66782259       3.70009684       2.71026845        1      -1.69413600       3.49086400      -1.10272000 
H       3.43610687       3.71130726       8.62503050        1       0.83769700      -1.31218500       1.44410900 
H       4.45374081       4.12050186      14.81461218        1       1.36977500       0.11011900       1.02104800 
H       4.84771836       2.62302481      22.79690959        1      -0.25904900      -0.40844700      -0.12544600 