768
Lattice="25.6696022577 0.125940669362 0.136680434728 0.0947107972199 25.236577935 -0.268121983726 0.112480732412 -0.270368779955 25.7830049308" Properties=species:S:1:pos:R:3:Z:I:1:forces:R:3 energy=-99805.6664795 stress="3299.984445 -2130.972669 -2355.67333 -2130.972669 1490.047411 1896.298728 -2355.67333 1896.298728 648.072674" pbc="T T T"
I      -1.77218335      -0.18480693       3.32925184       53       0.13756000      -0.01122900      -0.86274100 
I      -0.57510143       0.09791625       9.40956177       53       0.06963800      -0.06840800       0.21992300 
I      -0.34629938       0.20783262      15.82449944       53       0.08599000       0.05084300       0.17154100 
I       0.02083645       0.39060116      22.32212993       53       0.03328600       0.16943700       0.32951700 
I       1.11771960       6.21526358       3.21769305       53      -0.18004700       0.15277400       0.31496200 
I       0.35270632       5.43162393       9.74026754       53      -0.06662700      -0.06112800      -0.05582600 
I       0.78495955       7.67129273      16.37747529       53       0.00563200      -0.33308700       0.13445000 
I      -0.26461782       5.94235723      22.75687805       53       0.09401700       0.00138000      -0.20662700 
I      -0.53711728      12.85432116       3.47623538       53      -0.05892500       0.16246400      -0.06404500 
I       0.35347841      12.86659816       9.91678991       53      -0.08440700      -0.62549000      -0.25925700 
I       0.30992490      13.47692785      16.41465659       53      -0.16754200       0.03383300      -0.26083600 
I       0.13681937      12.30013260      22.93323767       53       0.17492800       0.08432700      -0.08504300 
I       0.67285791      18.36288595       3.46931239       53      -0.25912800      -0.16007400      -0.26957100 
I      -0.08088764      19.78278674       9.56689705       53      -0.30692500      -0.24514500       0.15016700 
I       0.61666220      18.48935557      15.95258270       53      -0.31509100       0.05282600       0.14316800 
I       0.42179034      19.57427333      22.58870377       53      -0.04486000      -0.13273000      -0.01120000 
I       6.21091587      -0.08434715       3.68205442       53       0.17484600       0.20769900       0.05352300 
I       6.49905459      -1.17609759      10.07062896       53      -0.04866200       0.23558000      -0.25703400 
I       6.14647927      -0.08243281      16.45361032       53      -0.02921800       0.24582600      -0.71866000 
I       6.69460128       0.06891134      22.42087385       53       0.24393600       0.28080000       0.58927700 
I       6.63002971       5.55885075       3.21473073       53      -0.19528300       0.03209900       0.16963100 
I       7.04040942       6.99800809       9.77643164       53       0.23941200      -0.00230800      -0.18019700 
I       6.96307358       5.56796596      15.81119035       53      -0.26430500      -0.09390700       0.74725000 
I       6.78209137       6.37336599      22.76816364       53       0.13723500      -0.01595800      -0.70171300 
I       6.04184446      12.90256972       3.44515834       53       0.22578100       0.06688600      -0.52635300 
I       6.61350424      12.98067070       9.68191535       53      -0.14625100      -0.32986000      -0.02873100 
I       7.21398832      12.95623779      16.30046794       53      -0.10332000      -0.21028000      -0.43944000 
I       7.00804226      11.57937347      22.58625949       53      -0.62539200       0.61315000      -0.29241300 
I       5.71362365      18.32647476       2.81812952       53       0.11058600       0.10072600       0.83341700 
I       6.45612133      19.55863111      10.13839607       53      -0.15937700      -0.10958600      -0.88684300 
I       5.97993252      18.21103468      16.33506205       53      -0.04994900      -0.01052500      -0.32168500 
I       6.97619610      18.78358962      22.60628912       53       0.07327100       0.28311900      -0.98707400 
I      11.56292144      -0.88661318       2.84943580       53       0.12502000      -0.11758500       0.80986800 
I      13.75464139       0.13484648       9.49874588       53      -0.19961700       0.02490300      -0.23303700 
I      12.83875734      -0.88650203      15.59254750       53      -0.29004200       0.05955400       0.87968100 
I      13.85899634       0.13702976      23.18113948       53      -0.07826100       0.03973900      -0.27349800 
I      12.93650687       6.71413273       2.86961430       53       0.07895800       0.14249900       0.74386400 
I      13.33541144       6.01562621       9.89339901       53      -0.08072500      -0.05736100      -0.23624800 
I      13.64161484       6.67948007      16.17564273       53      -0.16869600       0.00755200      -0.14426800 
I      12.77537367       5.81474734      22.43543733       53       0.47572800      -0.09068000      -0.39797200 
I      12.52134874      11.53720833       2.80748006       53       0.36555000       0.01090200       0.02642900 
I      13.18959695      12.43804163       9.54384654       53      -0.04090500       0.12744700      -0.19634400 
I      13.35564253      10.83034579      16.19024988       53       0.03785600       0.07334200       0.13849200 
I      13.17503942      13.26732379      22.15282729       53      -0.04619200       0.29121400       1.29737700 
I      12.20385877      18.85342092       3.09745472       53       0.15090400      -0.05607300      -0.00472000 
I      12.72876158      18.40611793       9.66766248       53      -0.17358300       0.17943900      -0.27351300 
I      12.95420932      19.80612206      15.75234791       53      -0.08020700      -0.17254300       0.34027200 
I      12.89812873      18.84049390      21.78300899       53      -0.10431100       0.13195000       0.96994400 
I      19.64832631       0.17402350       3.16404285       53      -0.16323500      -0.16931500      -0.12318900 
I      18.50052604       0.33161184       9.56748653       53      -0.08615200      -0.10004800       0.02012100 
I      19.04583361       0.45051242      16.24389809       53       0.04372500      -0.34076300      -0.11539600 
I      18.87156003      -0.67417582      22.59883718       53       0.19788800       0.07262500       0.00810000 
I      19.18503176       6.88458755       2.97444163       53      -0.19386300      -0.36416200       0.16512800 
I      19.01460969       6.10234322       9.50177866       53       0.02843600       0.10934100      -0.17770100 
I      19.48394696       5.80584154      16.49614662       53       0.07741600      -0.18269000      -1.18947300 
I      19.68265247       6.81399409      22.55370972       53       0.18446100      -0.20569800       0.15658800 
I      19.24866155      12.94205935       2.98417411       53      -0.36876700       0.34485500       0.25960800 
I      19.02456943      11.16742477      10.05580149       53       0.14808400       0.28146800      -0.62374700 
I      20.24042460      12.54844427      16.37947498       53      -0.00986500       0.00767700      -0.63358700 
I      19.27061644      12.65685715      22.46401154       53       0.07882700      -0.19831700       0.07261700 
I      17.92415334      18.51008286       3.24944294       53      -0.02863400      -0.14269100       0.31175600 
I      19.26003546      19.27244941       9.50570361       53       0.01538400       0.11390400       0.27118300 
I      18.78463858      18.39151574      16.00215513       53      -0.08625800      -0.12362700      -0.50165500 
I      19.38688219      19.02656118      22.36950022       53      -0.05278300       0.15952400      -0.12631900 
I       3.69784055      -0.77279271       0.47997085       53      -0.32750800       0.37514500      -0.42753500 
I       2.75073059      -0.23223775       6.43667126       53       0.17034000      -0.10604800      -0.06004700 
I       3.49961735      -0.73245756      12.90057698       53       0.11371100       0.75849900      -0.58786000 
I       2.87068708       0.00154715      19.85764952       53       0.34861000       0.20100600       0.07802700 
I       3.14336319       6.38753053      -0.31256369       53      -0.71622600       0.21031800      -0.06624900 
I       3.58442001       6.72706769       6.87952234       53      -0.28515000      -0.08090600       0.16920400 
I       3.93494106       7.43121700      12.36485601       53      -0.44790700      -0.34345200       0.35316100 
I       3.63930377       6.30376989      19.71481917       53      -0.17651300       0.26455000      -0.32530800 
I       3.07420871      12.27805961       0.42359552       53       0.40382400      -0.21171000       0.00967900 
I       2.98342584      12.91459961       6.16057136       53       0.06492200      -0.05566700       0.11210900 
I       3.64231769      13.21453797      13.00832396       53       0.21489600      -0.28912000       0.05325400 
I       3.57368025      13.37654945      19.43117107       53      -0.22275300      -0.27716000       0.10121400 
I       3.22187007      18.57441924      -0.34805990       53      -0.89776800       0.26550500       0.03522300 
I       3.17505751      18.53590911       6.97024567       53      -0.22027600       0.38239700      -0.18810300 
I       3.14018850      19.68947721      12.72810858       53       0.12905500      -0.32150300       0.10659500 
I       3.27027046      18.59767616      19.41890499       53      -0.32393300       0.07335400       0.18903400 
I       9.77318351       0.09155992      -0.83911091       53      -0.08583700       0.14900200      -0.20039700 
I       9.84023608      -0.25047908       6.84711845       53       0.16603600      -0.04017400      -0.13665300 
I      10.21605940      -0.40628010      12.02924082       53      -0.65397600       0.08243300       0.09295900 
I       9.73154037      -0.72264866      19.45671647       53       0.29150900       0.72088100       0.22912300 
I       9.84098237       7.11147130      -0.49697862       53      -0.07204000      -0.10879700       0.16415500 
I      10.13223921       5.86523476       6.64785621       53       0.09611700       0.14962800       0.02008200 
I      10.02194474       6.42721070      12.98643457       53       0.30804500      -0.10721100      -0.22742900 
I      10.09517600       6.11099001      18.67414265       53      -0.07109500      -0.14590100       0.16558500 
I       9.82231530      11.95935990      -0.02351495       53      -0.41776300      -0.25192100      -0.45867800 
I       9.47673839      12.79800141       6.10203557       53       0.41868900       0.23315200       0.18679300 
I      10.22945880      12.00542816      12.99580581       53       0.01925500       0.26968200      -0.07119100 
I       9.99539602      12.49809678      19.20863206       53       0.05660900      -0.10194400       0.00505000 
I       9.65555420      17.48113852       0.25978284       53       0.20996900       0.39759300      -0.30246900 
I       9.33787269      18.82372430       6.48999000       53       0.62229000       0.01869100      -0.03054500 
I       9.59795325      18.60095406      13.47971947       53      -0.07231700       0.04807900      -0.28295100 
I       9.55564917      18.76385274      18.48942107       53       0.20236100       0.09904200       0.17905900 
I      15.81145333      -0.12655794       1.31386471       53      -0.52191000       0.15601500       0.19908000 
I      15.99320168       0.54418218       6.22716049       53       0.26326500       0.19840100      -0.44461700 
I      15.98425519       0.42510298      13.35373812       53       0.85184700       0.06794400       0.26641000 
I      16.17715316       0.04871400      19.19131069       53      -0.37198000       0.16519900       0.07128600 
I      16.04928128       6.31497608      -0.39949010       53      -0.04086800       0.16434000       0.01350800 
I      16.48290005       7.16276851       6.10799990       53      -0.30207800      -0.10586800      -0.07826300 
I      16.74111489       6.48030019      12.78394801       53       0.00636200       0.27702500      -0.13632700 
I      16.57134780       6.03553278      19.01505627       53      -0.04566000      -0.09765300       0.13617300 
I      16.16842698      12.20772219      -0.76394247       53      -0.19290600      -0.05213100       0.15231300 
I      15.88297569      12.04688969       6.03904688       53       0.14165900       0.09861800      -0.00250400 
I      16.77870308      11.87339216      13.33658843       53      -0.15832200       0.16248700       0.18336100 
I      16.67359986      12.34194544      18.69713957       53      -0.48981700       0.35220200       0.47685800 
I      15.79530200      19.20556653      -0.57276929       53      -0.04731600       0.01201500      -0.08385800 
I      15.73821909      18.65213616       7.09742585       53       0.37268000      -0.13307500      -0.00103000 
I      15.74181555      18.46705235      12.79842218       53       1.25528500      -0.14560800      -0.08601600 
I      16.01946856      18.57470108      18.87748962       53      -0.26728900      -0.16555600       0.16774700 
I      22.39788984       0.18014959      -0.60358136       53      -0.85686100      -0.09306000       0.00713600 
I      22.09844866       0.39821287       7.03453838       53      -0.23870700      -0.13929400      -0.01125900 
I      22.17651392      -0.25088199      12.73617680       53      -0.02353900       0.20654400      -0.09300100 
I      22.48108283      -0.67790030      19.66088713       53      -0.25131400       0.27948300       0.06910000 
I      22.25109683       6.17037331       0.27057222       53       0.34878200      -0.08700600      -0.02080300 
I      22.74324842       5.99299252       6.02609604       53      -0.40023700      -0.00774900      -0.04969600 
I      23.33090075       4.99570973      13.15863205       53      -0.21317900       0.32973600       0.20880000 
I      22.91040648       6.15900337      18.44546762       53       0.14601000       0.09806800      -0.02280600 
I      22.66455497      12.83201397       0.36798037       53      -1.00213100       0.23371100      -0.20038500 
I      22.31905349      13.28465211       7.03688838       53      -0.46760000      -0.24036400      -0.06108400 
I      23.18755436      12.95613358      13.07892338       53      -0.78134400      -0.02428600      -0.06200800 
I      22.71246016      12.74881701      19.77032516       53       0.21463500       0.16843700       0.13409200 
I      22.29260500      19.42100690      -0.37105979       53      -0.00724400       0.07127300       0.01586000 
I      22.18258642      18.78903691       6.41669621       53      -0.00884900       0.07293600      -0.29162400 
I      22.71125241      19.26334413      13.13017098       53      -0.55929600      -0.16627400      -0.05288900 
I      22.45631051      20.23966045      18.96684741       53       0.19606400      -0.48058500       0.43071800 
I       0.78052252       3.09171070      -0.07644168       53      -0.06228500      -0.56208500      -0.13272100 
I       0.12817456       2.97328846       5.72599095       53       0.06146500       0.26588500       0.02423200 
I       1.79782104       3.10302705      13.07567029       53       0.01400800       0.08970400       0.10562500 
I      -0.08482053       3.19537990      18.71413841       53       0.28612500      -0.07107600       0.11210000 
I      -0.23840552       9.24045859       0.11337985       53       0.01869500       0.14953400       0.27643200 
I       0.09297410       9.60627255       6.00529730       53      -0.16931800      -0.07075300       0.17100600 
I       0.60101700       9.63405184      12.81307796       53      -0.06917200      -0.41309900      -0.17236300 
I      -0.47838896       9.47291070      20.10766117       53       0.36728000      -0.05112200      -0.28571400 
I      -0.16818818      15.73146679       0.03677640       53       0.12272300       0.25822600      -0.00877600 
I      -0.08698694      15.92280471       6.77734571       53      -0.12830500      -0.71027500       0.19403500 
I       0.15116949      15.81376861      11.92102146       53      -0.20909200       0.33340400       0.28651700 
I      -0.31179260      16.23597079      19.79020990       53      -0.11378700      -0.31818800       0.01015100 
I      -0.36469651      22.15028178       0.70998165       53       0.16310700      -0.16659200      -0.10321700 
I      -0.22997210      21.86489201       5.32275454       53      -0.20392800       0.13588600       0.06560200 
I      -0.33337931      22.50749260      13.12124036       53       0.22284600      -0.36487600      -0.32252200 
I       0.56524193      22.30302819      18.42234666       53       0.15918900      -0.69637500      -0.25036400 
I       6.46757662       2.84360148      -0.14429711       53      -0.00199600       0.23324900      -0.15729300 
I       6.09549863       2.99320794       6.71924657       53       0.37469700       0.20317900       0.05097900 
I       7.02274766       2.67807194      12.05721165       53      -0.00042400       0.40092300      -0.05702800 
I       6.71296765       3.10102438      19.62603003       53       0.13837200      -0.03053200      -0.05427100 
I       6.12615191       9.10752050       0.06154475       53       0.18100300       0.67796900       0.28139200 
I       7.48131936       9.84068564       6.09864255       53      -0.37192800      -0.97331800       0.15963800 
I       7.21615771       9.45332269      13.36216360       53      -0.23747300      -0.39637300      -0.00103200 
I       6.77468409       9.30781088      18.09855594       53      -0.17611400      -0.27022800       0.16365500 
I       6.18935100      15.43675838      -1.12129422       53      -0.08629600      -0.18876900      -0.03581200 
I       6.56411244      16.23555795       6.87986769       53      -0.27227400      -0.77911800       0.14878900 
I       7.10733696      15.51907508      12.53266211       53       0.08871400       0.29497900       0.27325600 
I       6.95243008      15.53633294      19.27504950       53      -0.07427900       0.39801900       0.05456000 
I       7.16964089      21.93386389      -0.40127245       53      -0.07470600      -0.02599700       0.05325200 
I       6.80886635      22.08449848       6.05112440       53      -0.06566000       0.33019500       0.09398600 
I       7.43836030      21.96081255      12.92330793       53       0.23249600       0.72070700       0.25654700 
I       6.45890303      22.28349774      18.60695809       53       0.05575100      -0.69545700       0.13173300 
I      12.42879443       3.63011810       0.23068266       53       0.00209100      -0.21352000       0.04395600 
I      12.51545983       2.82575810       5.56262386       53       0.18178300      -0.01212100       0.12304000 
I      13.01515565       3.19975441      13.13951245       53      -0.15803100       0.24320200      -0.21410400 
I      13.09836055       3.09687714      19.33652577       53       0.12283500      -0.13962300      -0.07792500 
I      13.33189636       9.48601933      -1.41475122       53      -0.00394800       0.60603500      -0.06344900 
I      12.53825033       9.50217066       6.58007620       53      -0.05431900      -1.29279300       0.00344900 
I      12.86103079       9.41337953      12.11831081       53      -0.01113800      -0.10241500       0.17102500 
I      13.64803170       9.28826355      19.63649292       53      -0.12160100      -0.11469800       0.15142100 
I      13.53012849      15.52021237       0.07777448       53      -0.23660900       0.35724100      -0.29444500 
I      12.85967120      15.46623369       5.54572029       53       0.12485000       0.15781400      -0.02970900 
I      12.50918984      15.22309243      12.81278818       53       0.43786700       0.41408800       0.16421700 
I      13.13064435      15.63293327      18.74156540       53      -0.05636300       0.17565800       0.15523600 
I      12.24451248      21.97333665      -0.58094866       53       0.15932400      -0.61107000       0.16900300 
I      13.32181257      21.60047466       6.22615221       53      -0.69290100       0.53419600       0.35797300 
I      13.35592835      21.95266990      12.13176777       53      -0.02876800      -0.13531600      -0.18468300 
I      13.15437167      22.32215772      19.09327435       53       0.09607200      -0.22436300       0.11680200 
I      18.41892586       3.41083913      -0.41765104       53       0.40289200      -0.58779900       0.01101800 
I      18.78763762       3.37322514       5.91530338       53       0.17548200       0.35949600       0.05289300 
I      18.76519149       3.05021146      12.30362387       53       0.24556800       0.56660500       0.25140400 
I      19.81137286       2.98091109      19.96854935       53      -0.04270500      -0.29349500      -0.04443000 
I      19.81837127       9.80444315       0.00772287       53      -0.29569200      -0.31917900      -0.20963400 
I      19.47952383       9.67447036       5.29555581       53       0.34620300      -0.85134600      -0.13907400 
I      20.53777280       9.27642718      12.93081941       53       0.11162700      -0.25669500       0.38018700 
I      19.95988768       9.41260745      19.16662372       53      -0.14895400      -0.06827900      -0.17175900 
I      18.65704656      15.87009531      -0.71394431       53       0.03865500       0.78180500       0.03287400 
I      18.46308870      15.32593198       7.18525732       53      -0.04173900       0.31871900      -0.02319600 
I      19.47882518      15.91432068      12.45679900       53      -0.00525500      -0.72368200       0.04883600 
I      19.73419779      15.78979517      19.44339348       53       0.06494200       0.39399100      -0.07539200 
I      18.50343477      22.17436934       0.18939083       53       0.07377800      -0.06522100      -0.03597800 
I      18.60259549      22.07284571       6.01552697       53       0.27764600      -0.01257700      -0.12513500 
I      18.39930013      21.91252727      12.71591097       53       0.09220400       0.21122100      -0.07097200 
I      18.56801329      21.91387793      18.01984364       53       0.46700100       0.47360100       0.45980900 
H       3.94359976       3.87532157       2.43154361        1      -0.98043900      -1.76246200      -1.29872400 
H       3.04815719       2.91273313       8.76704851        1       1.68838000      -0.72980900       0.00717900 
H       4.48381532       2.57577721      17.63398020        1      -1.80238900      -0.14947200      -0.98637900 
H       4.00021228       4.24999072      21.35051560        1      -0.34942600      -0.62392600       0.64864300 
H       3.21579558       8.70758581       5.10479546        1       0.72477600       2.02266400      -1.84198300 
H       2.91209105       9.57730932       9.08582264        1      -0.10840200       0.37723000      -1.79839500 
H       4.62601748      10.96435667      16.50726846        1      -2.12544600      -2.36556800      -0.09675600 
H       3.62565031       8.22411476      23.24062698        1       1.87894800      -1.30811000       0.37332700 
H       3.91781718      15.06442038       2.34225430        1       2.78311100      -1.55741800      -1.58615200 
H       2.57868296      15.96106376      10.75220015        1      -0.22173200      -0.02444900      -1.24068300 
H       3.12629886      14.09348486      16.24521303        1       0.88518800       0.60244300       0.66458900 
H       1.45685384      16.04116344      22.32606778        1      -0.21183300      -0.17062800      -0.60321000 
H       4.33959462      21.75263358       3.72739723        1      -2.03982300      -0.30577000      -0.64162200 
H       2.81905443      21.06045262       8.61509601        1      -1.44587300       0.95604500       1.62633500 
H       4.48871481      22.29811184      16.31383657        1      -0.22798600      -1.12600700      -0.50601900 
H       3.78876335      20.97567973      22.17698928        1       0.98272100       0.60654900      -0.36891100 
H      10.22257947       1.79210779       3.00226856        1      -0.88739600       1.57074900       0.22055400 
H       9.35252549       1.90163414       9.06414166        1       0.39837000      -0.10142800      -0.32188900 
H      10.77394862       2.01953239      15.81975973        1      -1.40705300       1.44799700      -1.05890300 
H      11.18693339       2.65122650      23.00805380        1       0.20870500      -0.23733800      -0.94154100 
H       8.32526525       8.12125933       3.28474166        1       0.72390000       0.04999200       0.28413000 
H       9.42997943       9.93670641       8.48347384        1       0.89510100       0.02631600       2.67539200 
H       9.10917583       8.22991435      15.32334082        1       1.67441000       0.85986200       1.55853300 
H      10.40251570       8.15594276      21.86606205        1       0.41531000      -1.51238200      -0.35133100 
H      11.25108915      14.54634530       2.85855796        1      -1.47168600      -1.39748500      -0.74696000 
H       9.04307496      15.57352416       8.72925291        1       0.19830200       1.73232600       0.82394900 
H      10.61133873      17.29556446      16.39409801        1      -0.29319200      -2.12109900      -1.13057400 
H      11.06948867      16.08657274      22.59674222        1      -1.12568900      -1.36998800       0.10900000 
H       9.47955384      21.00083909       2.06444748        1       0.14902400       0.05813800       0.24824800 
H      10.21676102      20.69316694       9.36228378        1       0.38572300      -0.96470700      -1.59176000 
H       8.87903304      21.26641655      15.37077760        1      -0.32949500      -1.51904000       0.60121000 
H       8.77638998      21.77253122      22.68788930        1       0.56488300      -0.16124200       0.69555300 
H      15.09610080       4.14769302       2.31458814        1       0.08628800      -0.46388700       0.73797800 
H      15.15534616       4.35727921       8.37014262        1       0.21431600       0.08249800      -0.39150900 
H      16.29431207       3.80081507      14.48042703        1       1.07584500      -0.06355100      -0.66341200 
H      17.07770660       2.49684560      22.03551058        1       0.15272900       1.73651200       0.69207200 
H      17.41820440       9.79939778       3.36511424        1      -1.57738900       0.21126900      -0.29577900 
H      15.15586122       9.43958885       8.64273835        1      -1.91331600       1.00981300      -1.94811700 
H      17.00746941       9.06759918      14.71219438        1      -0.02762900      -0.09995000       1.54992900 
H      15.79911183       7.91218720      22.16114857        1       1.21329500       2.02564000      -0.25663200 
H      15.30833671      15.77994261       1.95265051        1       0.72104100      -0.65094700       1.32785500 
H      15.24721472      15.90245454      11.09893222        1       0.62549100      -1.00340400      -0.50921100 
H      16.20817959      15.13689147      17.13682295        1      -1.99569500      -1.76114100      -1.29483700 
H      17.15507420      16.20705719      22.30875931        1       0.83752300      -0.10480200      -0.16584800 
H      16.24005552      21.05353460       3.25848669        1      -0.60478100       0.29862400      -0.37293400 
H      16.26041860      23.08880052       9.50922961        1      -0.74001300      -1.19027900      -1.00151300 
H      16.60827207      21.23228688      16.38365497        1       0.23231200      -0.80550200       1.23180500 
H      14.74734722      21.45464230      22.82142581        1       1.05987900       1.47446700      -0.79563800 
H      20.32453258       2.95819205       2.62996132        1       1.48615400      -0.41430900       1.48440600 
H      21.40611389       2.66795838       8.99890815        1       0.65437600       0.57354600      -0.30066100 
H      21.36352003       2.51242332      17.27561025        1       0.86710900      -0.44341700      -0.19090100 
H      23.14779579       2.72371247      22.36659744        1       1.72457100      -1.70672200      -1.97692500 
H      22.23544170       9.89005065       1.43391647        1      -0.08361700       0.72096700       0.22001700 
H      21.78149062       9.04654539       9.83804883        1      -2.56179700      -1.30530000       0.66193800 
H      23.62151253       9.93351485      16.99083081        1       0.78602700       0.06035200       0.07812800 
H      23.73684443       9.94197010      22.31493105        1      -0.55880000       0.50772900       0.13442900 
H      23.11695494      17.45467912       1.72926597        1      -0.14979700      -1.03327200       1.60554300 
H      22.17227140      15.57783515       8.62272559        1       0.03507700      -0.48496300      -0.70665500 
H      22.37996906      17.28373305      15.13336944        1      -0.16744000      -1.00354700       1.69915000 
H      23.02006483      15.00446248      23.75397526        1       0.04172800       0.03901200       0.29062300 
H      22.31844812      21.91998516       1.95824666        1       3.98671100       0.26404700      -2.71129700 
H      21.88906591      23.05370326       9.01914123        1       0.01255700      -1.63433000       0.82864600 
H      21.32033073      22.08249085      15.86426793        1       0.61158900       0.41882000       1.20099600 
H      24.66386819      22.08156296      22.50683762        1      -0.12550600      -0.37824900       0.16350000 
H       2.25186144       3.07077401       2.45923657        1      -1.55713300       1.42515800       0.22772500 
H       4.54469417       1.62949393       8.86235375        1      -0.51633800      -0.21183600      -1.45987100 
H       2.80140656       3.10386861      18.02139278        1      -0.03653000       1.31179800       0.41794300 
H       4.51467106       3.44150928      22.93670908        1      -0.17155800       0.24675200      -0.34894200 