768
Lattice="25.2240875399 -0.0995054834954 -0.0913571858976 -0.105128365269 25.291922337 0.360351554684 -0.0987977422999 0.358500689433 25.2423365246" Properties=species:S:1:pos:R:3:Z:I:1:forces:R:3 energy=-99794.1892409 stress="-4245.555848 1879.203845 1672.465854 1879.203845 2227.08864 1348.336657 1672.465854 1348.336657 3972.092464" pbc="T T T"
I      -0.98724528      -0.06176872       3.11799630       53      -0.16533800       0.12270700      -1.28130100 
I       0.63733413      -0.04466481       9.34569320       53      -0.10321600      -0.16874100      -0.71983200 
I      -0.48530253       0.46593092      15.74310351       53      -0.05669500       0.04055000      -0.37370700 
I      -0.28373784       0.15241817      21.91524712       53       0.38183200       0.16874100       0.19989400 
I       0.01320206       6.34972808       3.40770357       53      -0.09187000       0.30183600      -0.39233700 
I      -0.48884612       6.27616985       9.44415806       53       0.01338200       0.14654700       0.10657300 
I       0.41531913       6.94495892      16.33756023       53       0.21143800       0.40096800      -0.53938900 
I      -0.13427656       6.59696795      22.41396647       53       0.11397400      -0.28131200       0.02128200 
I      -0.45416387      13.29176525       3.65668790       53      -0.01078600       0.00486400       0.00862800 
I       1.08309393      12.09784490       9.62404049       53      -0.74277900      -0.59825600       0.27875700 
I       0.15707755      13.79925864      16.01288762       53      -0.06877800       0.12067000      -0.06290600 
I       0.59582437      12.87590531      22.50935339       53      -0.11370000       0.14148400      -0.15223900 
I      -0.76103557      18.89384041       3.66439300       53       0.33195100       0.07590400      -0.38029200 
I      -0.32927049      20.36898001       9.86424785       53       0.02928700      -0.19813900       0.19761500 
I      -0.70262398      19.55956325      16.35797051       53       0.33376800      -0.34609100      -0.24833900 
I      -0.13881197      19.73706865      22.62179345       53       0.07837900       0.05687600      -0.12363400 
I       5.99060848      -0.38512835       3.70996666       53       0.25037700       0.12171700      -1.07305900 
I       5.66062732      -0.45457387       9.54762299       53       0.12817700       0.14117500       0.16765200 
I       6.56698217       0.27897108      15.75795143       53      -0.07438300      -0.02240300      -0.00152500 
I       5.35491436      -0.37281170      22.18812674       53      -0.04743600       0.22195500      -0.11001400 
I       6.13191950       5.69899470       3.43015019       53      -0.30591200       0.03231200      -0.63445400 
I       6.94161155       7.03545218       9.09302081       53       0.32265500       0.19229200       1.26236400 
I       6.13975639       4.45335263      15.29735737       53       0.45196100       0.78457000      -0.03860700 
I       6.64219407       6.56554521      22.08582739       53      -0.17622200       0.06319100      -0.07550800 
I       6.62882216      12.84838150       3.33194988       53      -0.80899000      -0.36002900      -0.39407300 
I       5.97955210      12.81370901       9.66968150       53       0.14430500      -0.10250600      -0.16963800 
I       6.38802322      13.28084163      16.01844900       53       0.13922500       0.30223200      -0.09104200 
I       5.18859128      12.83927067      22.16001721       53       0.50171400       0.34502300      -0.01151500 
I       6.29976155      18.80095938       3.38500607       53      -0.03355500      -0.02343400       0.60813300 
I       5.94653329      18.39822243      10.09000265       53      -0.26871900      -0.17361500      -1.48309500 
I       5.83908939      19.59685291      16.11251220       53       0.25554500      -0.02728200       0.08012000 
I       5.45690817      18.99884382      22.47604562       53       0.46053600       0.82504900      -0.20506400 
I      11.38469558       0.03792029       3.00779563       53      -0.28365600      -0.11575100       0.31316600 
I      12.83196580       0.88466576       8.96832559       53       0.22057000       0.18390300       0.43118100 
I      11.92770392      -0.23488222      15.57732221       53       0.28152000       0.07657600       0.22512200 
I      13.14331531       0.29380729      22.28664724       53      -0.40020400      -0.11678100      -0.10784700 
I      12.65631908       6.69186677       2.99808054       53      -0.00691700       0.17671900      -0.55892600 
I      12.91230663       6.36747042       9.23162680       53       0.03409100      -0.26876300       0.17593700 
I      12.59111806       7.03199059      15.65908633       53       0.16416700       0.02672000       0.19165600 
I      12.79207653       5.97063358      22.35820818       53       0.07573700       0.14046900      -0.71750200 
I      12.24996630      11.25618443       2.63868077       53       0.03289500      -0.15232600      -0.06781200 
I      11.95825198      12.34501350       8.88193626       53       0.07914800       0.12691600       0.14678000 
I      13.51167166      12.52879974      15.81604088       53      -0.18966900      -0.12191000      -0.29231400 
I      12.35263173      13.52097187      21.84974152       53       0.13365900       0.35342500       0.95025000 
I      11.21720497      18.63518784       3.46792893       53       0.46334000       0.57238000      -0.02546700 
I      11.77319376      18.72190908       9.54233787       53      -0.15160800      -0.21413800      -0.57168300 
I      12.14270690      19.05360444      16.10722025       53       0.02918200       0.28953900      -0.62162400 
I      12.47210723      18.59501645      22.20222202       53       0.18669900      -0.05493900       0.22882100 
I      19.85827494       0.50650646       2.11667332       53      -0.40609300      -0.22845900       0.45148000 
I      18.68407275      -0.02065726       8.87663650       53       0.06122200       0.07915300      -0.05679700 
I      18.59842337       0.24920202      15.42625900       53      -0.23686400       0.11006300       0.02906800 
I      18.34177201      -0.95813417      22.34569141       53      -0.03090600      -0.04424600      -0.48438300 
I      19.20422153       5.50980035       3.28295271       53       0.16515300       0.29753200      -0.37524200 
I      18.49496625       6.13408177       9.60919257       53       0.34609700       0.16589000      -0.00922000 
I      19.10072536       5.67603655      15.64499301       53      -0.29464800       0.32471400      -0.03815700 
I      20.28448255       7.19759422      22.26613251       53      -0.70438100      -0.36078100      -0.42015000 
I      18.96195244      13.10495671       3.78003011       53      -0.08697000       0.22198900      -0.21050600 
I      19.22967678      10.34099794       9.45082840       53       0.47345300       0.53928600       0.27279800 
I      19.78040388      12.71782130      15.82872750       53      -0.15038400      -0.01327400       0.01138400 
I      19.05133381      12.74021326      22.30095045       53      -0.09226800       0.05687200       0.08751400 
I      17.81198331      17.72994976       3.74713234       53      -0.09589100       0.18837500       0.46680100 
I      19.48015664      19.96113658       9.78583989       53      -0.34697900      -0.12352200      -0.09285900 
I      18.67466418      18.34388840      15.77560982       53      -0.09107600      -0.12414000      -0.30349100 
I      18.26899767      19.52051937      22.29577369       53       0.31230600       0.16834700      -0.03105200 
I       3.51454711      -1.23622863       0.20554561       53      -0.64507200      -0.04712600       0.20366700 
I       3.19296708       0.37664620       6.47657775       53      -0.56540300      -0.11241100      -0.34173800 
I       3.11259990       0.34999120      12.50524904       53       0.39035000       0.01217600       0.42992600 
I       2.92053260       0.97880412      18.35033324       53      -0.19244600      -0.80781900       0.79370500 
I       3.54682401       6.24054948      -0.24844059       53      -0.46701000      -0.02812000      -0.02501300 
I       3.18562610       6.44372001       7.27279050       53      -0.05283800       0.10600900      -0.11011700 
I       2.72824859       6.87900720      13.22607320       53       0.24966600       0.00409600      -0.07130700 
I       3.17339731       5.56847844      19.24419670       53      -0.63532000      -0.10196900      -0.00149000 
I       2.92727811      12.09968991       0.36270321       53       0.44056800      -0.14284400       0.06621100 
I       2.87182048      12.28209580       6.10887057       53       0.38488900      -0.04640000      -0.14655700 
I       3.46465282      12.23418319      12.79860728       53       0.02404300       0.16804900       0.18110700 
I       3.24648891      14.51767745      18.88885986       53      -0.16542200      -0.17892800      -0.16894000 
I       3.23897416      19.57566656       0.79422131       53      -0.27040900       0.15696200       0.04534200 
I       2.80708608      18.82338550       6.34780204       53       0.15159200      -0.27959800       0.04479100 
I       3.06171379      19.65144172      13.20711550       53       0.25420400      -0.04386900      -0.20913400 
I       2.96178757      19.44914781      18.83809285       53      -0.16774500       0.01174400       0.09594800 
I       9.31220874       0.29557615      -1.29170187       53       0.02228300      -0.03082800       0.13881500 
I       9.37417075      -0.08160793       7.60733928       53      -0.26687200      -0.18590300      -0.53666600 
I       9.37070136       0.83905598      11.83549549       53       0.14374800      -0.52712100       0.30864300 
I       9.12456166       0.36025491      19.48217834       53       0.15971600      -0.18905600      -0.13271400 
I       9.50172915       7.24392052      -0.09758628       53      -0.07324700       0.06583200      -0.25973400 
I       9.35597741       5.82503511       6.34139235       53       0.37357200      -0.01174600      -0.20115500 
I       9.49357304       6.80747946      12.81542516       53       0.00315300      -0.06891300       0.07617200 
I       9.70161576       6.73424826      19.08012765       53       0.36634100       0.02820100      -0.07849000 
I       9.01776888      12.16809871      -0.95378230       53      -0.09903900       0.02713300       0.03417900 
I       9.19554664      12.71895369       5.77911881       53       0.19368800       0.30011700       0.23619600 
I      10.00279722      12.12783165      13.19938306       53      -0.13359200       0.03228200       0.18848100 
I       9.38315955      12.94629578      19.30662045       53      -0.14431100       0.12341900      -0.07758800 
I       9.32430282      18.39686063      -0.82271058       53      -0.09627200       0.11912600       0.34099300 
I       9.01955337      18.85296908       7.20721657       53       0.44593800      -0.01482700      -0.08372700 
I       9.31655769      18.94063333      12.65512032       53       0.05049000       0.13373800       0.10666600 
I       9.30365337      19.73016988      19.33148413       53      -0.16707100      -0.14356900      -0.15845100 
I      15.20367293       0.86066113       1.04134501       53      -0.18477100      -0.23774600       0.13249100 
I      15.72090289       0.58896465       5.35041215       53       0.21895600       0.22400900       0.28339700 
I      15.57476165       0.68484064      11.97384766       53       0.40278400      -0.10989200       0.27227100 
I      15.39479722       0.06966321      19.19285374       53      -0.28213100       0.15875800       0.00808300 
I      16.06179107       6.45144855      -0.52058807       53       0.21660700       0.24873300       0.07802600 
I      15.73494154       6.16804457       5.60610587       53       0.23122400       0.36547900       0.15155600 
I      15.82625968       7.27273095      12.45866112       53       0.56723300      -0.56758800       0.51843400 
I      15.96534986       7.27544966      19.04769553       53       0.22316700      -0.06544300      -0.09720500 
I      15.87852515      13.00360037       0.38907999       53       0.06565100      -0.08269100      -0.06340200 
I      15.56580995      11.72043629       6.01992751       53      -0.09440100      -0.25072900       0.13400900 
I      16.45707283      11.93671126      13.17826504       53      -0.09224300      -0.01985700      -0.24311500 
I      15.78241780      13.30891406      19.34623053       53       0.05037700      -0.18034700      -0.15016200 
I      15.74617071      18.25571849       0.00241120       53      -0.14533600       0.14520200      -0.03589500 
I      15.29230068      18.64284707       8.05873954       53       0.20217000       0.07170400      -0.30871900 
I      15.47171844      18.19222093      12.22704232       53       0.04344300      -0.04824000      -0.09362100 
I      15.67748175      18.56227391      19.78364388       53      -0.19085700       0.08094900      -0.49805900 
I      22.03112046      -0.38193620      -0.89171876       53       0.17429000       0.04730600       0.41213400 
I      21.84567372       0.36560348       6.02811388       53       0.40035200       0.16887600       0.43667100 
I      22.20601356      -0.25577767      11.79515619       53      -0.06616600       0.16811300       0.37240600 
I      21.16563790       0.91834545      19.16217487       53       0.64585900      -0.49422900      -0.04927000 
I      22.09693551       5.44811558      -0.15514175       53       0.27128800      -0.19211400       0.40412500 
I      21.90527041       6.99194318       6.91645013       53       0.09642700      -0.25182700      -0.43058400 
I      22.37745483       5.01870508      12.99182453       53      -0.51021000      -0.11582900       0.46052800 
I      22.22891411       6.74576638      18.87678140       53      -0.33703400      -0.02105100      -0.08777200 
I      22.38367319      12.54502117       0.02758043       53      -0.69846300      -0.00393700      -0.13223300 
I      21.91782818      13.16260687       6.79564310       53      -0.09510300      -0.03903000       0.06277400 
I      22.35496428      13.74993933      12.48846923       53       0.14338500      -0.27356900      -0.01003900 
I      22.02406843      13.22318561      19.71444826       53       0.03279500      -0.15426100      -0.26530900 
I      21.93959732      18.96567663       0.92740063       53      -0.12624000      -0.21623100      -0.70113100 
I      21.71815633      18.94338717       6.67774123       53       0.03233700       0.04683600      -0.40141000 
I      22.02644839      19.24458328      12.94030097       53      -0.35069000       0.14678200      -0.01696200 
I      21.53834906      19.50908129      19.19801976       53       0.30330900       0.07131600      -0.06276900 
I       0.39718729       2.93491878       0.60047887       53      -0.12247300       0.10685300      -0.02048100 
I       0.61091341       3.57268829       5.77510665       53      -0.18877300      -0.61101500       0.08758800 
I       0.64415089       3.38363646      11.98388099       53      -0.01542900      -0.54221800      -0.03605400 
I      -0.43765154       3.82151643      18.41981781       53      -0.17699400      -0.17237700      -0.24495700 
I      -0.35869007       9.32988568       0.27520199       53       0.21469000      -0.22816000      -0.16842200 
I      -0.07393309       9.76005273       5.99319149       53      -0.07968100      -0.22698700      -0.04766400 
I       0.12641429      10.35890819      13.60229670       53      -0.11739200       0.21998400      -0.25458300 
I       0.42778904       9.68452161      19.93321155       53       0.12930100       0.03800700       0.04009400 
I       0.81468528      15.85730853       0.68450386       53       0.19291300       0.61138900      -0.15118100 
I       0.23822666      15.90507569       7.37867737       53      -0.10200300       0.08957200      -0.27511900 
I      -0.02460987      16.61476440      11.85101308       53       0.31855300      -0.25101000       0.07682000 
I      -0.52435520      16.26909774      20.04169412       53      -0.00515900       0.18708900      -0.11130500 
I      -0.01610721      22.29641798       1.26260346       53      -0.00474900      -0.53977600      -0.13488700 
I      -0.69221677      22.64061937       6.57240200       53       0.07131600      -0.26633800      -0.06778300 
I       0.65388551      22.47607198      13.34328588       53      -0.36480300       0.37667000      -0.16795400 
I      -0.22744362      22.60354544      19.17136184       53      -0.26625000      -0.07528900      -0.19166600 
I       6.68593931       3.01929813       0.30566220       53      -0.09336100       0.11608900       0.09462100 
I       6.76412275       2.97770052       6.93434183       53      -0.23100700       0.69738700      -0.21590800 
I       6.67273432       3.38065224      11.61733939       53      -0.36690700       0.50176600      -0.06047900 
I       6.59425510       3.28245388      19.13308231       53       0.16505100      -0.30039400       0.09067400 
I       6.27384943       9.33306026       1.07013690       53       0.21648200       0.11166000      -0.35278500 
I       5.98181101       9.40960565       5.95136740       53       0.19073300       0.08442400      -0.16656900 
I       6.09024965       9.87334794      14.31722757       53       0.22689600      -1.16607700       0.17722600 
I       6.46485560       9.93000628      19.23830146       53      -0.27860000      -0.14058800      -0.38840200 
I       6.23037851      15.63374041      -0.06479005       53      -0.07751100      -0.09272600      -0.02821600 
I       6.41231290      15.74873811       6.13636021       53      -0.10788000      -0.27510300       0.03859200 
I       6.64004254      15.81980899      12.96831776       53      -0.25924500       0.17641900      -0.06455400 
I       6.72900902      16.04125193      19.53024812       53      -0.19535900       0.44062400      -0.56470500 
I       7.03180706      21.79097167       0.51433261       53       0.33911100       0.03791500       0.01195900 
I       6.26369310      21.84560343       6.71926562       53      -0.19406400      -0.04969100       0.39050900 
I       6.16328952      22.29164829      12.84106296       53       0.15508600      -0.33835400       0.30846000 
I       6.28085461      22.24337448      20.04319746       53      -0.20805200       0.00900200      -0.45835200 
I      12.58904072       3.36512976       0.32759241       53      -0.30770500       0.13753900      -0.18633400 
I      13.09315745       3.52298143       5.51451927       53      -0.39924800      -0.23856500       0.06941400 
I      12.55545474       3.25167543      12.69574271       53       0.23628600       0.79507600      -0.11443100 
I      12.43513580       3.16606218      18.48174272       53       0.00526500       0.43324300       0.02438500 
I      13.01582721       9.61555345      -1.58905665       53       0.11370300      -0.29729300      -0.26014000 
I      11.35261197       9.53151480       6.35666004       53       0.07164800      -0.35123700      -0.18195700 
I      13.11333539       9.57166667      11.87669286       53       0.05394100       0.48423900      -0.11756000 
I      13.03539210      10.03702847      19.70453208       53       0.14300100      -0.87654800       0.02740200 
I      12.11180839      14.97107598       0.82077869       53       0.28142300       0.34146000      -0.33944200 
I      12.54540188      15.94243564       6.46506256       53      -0.27297400      -0.40482500       0.16546000 
I      12.45001789      15.76665518      13.14472006       53      -0.41227400      -0.11704800      -0.44507600 
I      12.30525797      15.99594966      18.21530110       53       0.10663200      -0.44198000       0.10442600 
I      12.18394137      21.67581193       0.34415648       53       0.41971600      -0.10722300       0.21459800 
I      12.25469597      22.44172652       7.34977127       53       0.15747000      -0.30420700      -0.18039400 
I      12.13455568      22.61948670      12.08212035       53       0.31080200      -0.71535300      -0.07919700 
I      12.64793845      22.15088003      19.41035872       53      -0.07485900       0.28545500       0.02618700 
I      18.46584051       2.70290072      -0.94071495       53       0.53240800      -0.04921200       0.22664500 
I      19.01315093       3.42134296       6.55903399       53       0.12109600      -0.23064700       0.02572800 
I      19.42481811       2.84780317      12.46173028       53      -0.17108700       0.64082900      -0.20668800 
I      18.61538573       3.81403585      19.70394050       53      -0.09748600       0.14328400      -0.17341100 
I      19.17840020       9.39639578       0.42184206       53      -0.07416300      -0.25393100      -0.24964300 
I      19.32512422       9.54024784       5.51988639       53      -0.38630900       0.14829800       0.01517300 
I      20.71349671       9.11209468      14.21960810       53      -0.38327600      -0.09229700      -0.94794000 
I      19.16906778      10.00256293      18.96182749       53      -0.14500600      -0.03310400      -0.02243000 
I      18.99342008      15.70208673      -0.25603148       53       0.04189500       0.73178100      -0.06755300 
I      18.12454232      15.58830733       7.42924816       53       0.05815500       0.00447500       0.06930600 
I      18.40426898      15.30774408      12.35358742       53       0.31798800      -0.08802100       0.00643700 
I      19.39512910      16.23340904      19.57787081       53      -0.97849900       0.29489300      -1.34309900 
I      17.92193603      22.00916389       0.92394588       53       0.03725100      -0.11695000       0.30191600 
I      19.02149056      22.46969938       5.68504097       53      -0.14548300      -0.49769500       0.04754400 
I      17.94669233      22.21354978      12.86581243       53      -0.12172800      -0.35794300       0.07942100 
I      18.35199570      22.42086133      18.25587761       53      -0.00106200       0.01771400       0.23849400 
H       2.30722165       3.53197902       2.93248220        1       3.14579700      -1.34987200       0.04085700 
H       3.11412081       2.66924934       7.94891080        1      -0.63787800      -1.06019300      -0.25506100 
H       3.49770580       3.72565118      14.36064286        1       0.14438400      -0.17598700      -0.80434600 
H       3.07349061       3.05858704      21.48531631        1       0.17197900       0.10446200      -0.83701200 
H       3.92956459       9.15274733       3.97149704        1      -0.22815300      -0.37488100      -0.52512000 
H       4.42239944       9.03302290      12.07885010        1       0.25744400      -0.92850800       2.83667500 
H       2.11015527      10.32011811      17.80504647        1      -0.39307900       0.19601500      -0.31335800 
H       3.64274589       9.67208099      21.48352011        1       0.03979600       0.61793000       1.11622000 
H       3.56237480      14.25453439       4.31622753        1       0.79897800       0.03042900       3.19578800 
H       3.47993905      15.13392479       8.86389521        1      -1.32934300       0.28956900      -0.27602100 
H       1.44759236      16.25184252      15.03052136        1       1.04599700      -0.37234300      -1.30041300 
H       3.83783548      16.43998063      21.02756590        1      -1.70424200       0.00527800       0.50497800 
H       2.13616695      21.57856536       5.07143326        1       1.34948700       0.42392700       1.23106000 
H       1.90716240      22.08746251       9.31304144        1       2.56557800      -0.41366700      -0.31676000 
H       3.14678233      23.03834747      14.59915359        1      -0.95731100      -0.75838000      -1.24673600 
H       1.43729839      21.79823749      21.59731708        1      -0.58208700      -0.65771700      -1.19710100 
H      10.44469130       3.16865105       2.87361571        1       0.33706600       0.68164000      -0.39669200 
H       8.33756224       3.60210983       9.24190613        1       1.07489900       0.63085500       0.07736100 
H      11.07560792       3.04004227      15.52019822        1      -0.76602600       0.74591800      -0.76045500 
H       8.99049595       4.83229386      22.12669871        1       0.17114300      -0.62271700      -0.94286300 
H       8.45433563       8.12389078       3.74748573        1       1.62718300      -0.00716300      -1.30529400 
H       9.06074390       9.62897027      11.07688771        1       1.39644400      -1.10788900      -0.03728200 
H      11.30628860      11.28011291      17.47220701        1      -1.15925600      -1.60017500      -1.10437200 
H      10.09453317       9.24158398      21.84338747        1       0.73463800      -1.23340300       0.68017800 
H      10.24099557      14.34935121       2.81380035        1      -1.66160300       1.19286800       0.22271800 
H      10.23133320      14.98921173       9.03182706        1      -0.55056600      -0.79615000      -1.27637900 
H       8.70451092      15.42345635      15.05932204        1       0.81557600      -0.31870400      -1.13793800 
H       9.63046678      17.05160569      21.02523865        1      -0.41453900       0.60313300       0.24933900 
H       9.11292835      22.67023711       3.37562386        1       0.51507100       0.00372500      -0.70622200 
H       9.60007100      20.90346226      10.31551145        1       4.01511500      -2.96245700       0.74238500 
H      10.22886343      21.87527585      16.77184585        1      -0.12822300      -0.08223100      -0.79475600 
H       8.44995154      22.62629859      23.39757444        1       0.44193100       0.55271000      -0.02715500 
H      15.45490153       3.57162326       1.63497685        1      -0.41585200       1.87842300       0.93092300 
H      16.52419110       3.83550530       8.85683927        1      -0.22796700      -0.95034300      -0.05755200 
H      16.89759633       4.10570722      15.93157255        1      -0.42744500      -0.55385600      -0.88735700 
H      15.89136406       1.94474590      22.61154048        1      -0.79973200       1.32648800      -1.82635500 
H      17.52968145       9.11110970       3.08193371        1       0.36954600      -0.01597000       2.54745600 
H      15.10773934       9.11401583       8.04367978        1       1.17666300       0.04105700      -0.04406900 
H      16.37608283       9.70920372      14.90000413        1       0.42846000      -0.79997800      -0.06808900 
H      17.78336128      10.46004782      22.07679563        1      -1.46460900      -1.09664100       0.65392700 
H      13.63712538      15.26929372       3.71875729        1      -0.64335600       2.65429600       0.00562900 
H      14.49194886      13.49356423      10.75597931        1      -0.23617100      -1.36354800       0.51797300 
H      16.21872902      15.64877088      16.88001116        1      -0.91057700      -1.31617100      -2.04360500 
H      17.18756717      16.14105418      22.46496288        1      -0.28245100       0.03991100      -0.21905700 
H      15.49442571      23.60465366       4.44818660        1      -0.92269200       0.55121900       0.46144300 
H      16.37955515      23.31585425       9.82805543        1       3.09857200       0.64835600       1.66871900 
H      15.20932608      22.16828168      15.14380486        1       0.47662400      -0.42483500      -0.69381700 
H      15.43692198      22.45734173      21.76135782        1      -1.02678900      -1.43794400       0.30077900 
H      22.84584088       2.85858133       3.70728993        1       2.53642700      -1.55651200      -0.58013600 
H      21.72673708       4.65026282       9.14221517        1      -0.20645000      -1.79255900      -0.49335600 
H      20.09174851       2.86728216      16.50256253        1       0.14614000       0.36418900       0.58993900 
H      22.06631521       4.50179824      20.90289509        1       0.47344300      -1.00120400       1.05538100 
H      23.05149583       8.55960066       2.18080834        1      -0.07437400       0.49506500       0.26715300 
H      22.24718067       9.04056303       9.85278537        1       0.29815600       0.55223400      -0.89544600 
H      23.57082949      10.60488583      18.02488553        1       1.05213900      -0.15863400      -0.10134000 
H      22.87318508       9.44188743      21.38515775        1       0.11354000      -0.37928500       1.26638900 
H      22.13395672      15.29337547       3.34335476        1      -1.73949100      -0.19499800      -0.07182600 
H      22.83434424      15.84509243      10.17906480        1      -0.69525200       1.24419100       0.29704400 
H      21.43220155      16.51588954      14.82632387        1      -0.90260800       0.64870000      -0.55780800 
H      20.69777802      17.48260446      23.03458912        1      -0.04174400      -1.09527900      -1.17938900 
H      20.22314432      21.60542536       3.14428327        1       0.33254200      -0.65098800       0.42143900 
H      21.29460202      24.06863024       9.77931696        1       1.42577400      -0.38094600      -0.26273700 
H      21.84470728      23.58976669      15.31524321        1       0.34033700       0.39167400       0.26607100 
H      21.88166114      21.32548394      22.42752191        1      -0.00191300       0.55859200       0.47140500 
H       3.42409388       2.11101725       2.34077249        1      -0.35875100       0.23861100       1.41289900 
H       2.51953718       4.07754303       8.59901550        1       0.72640000      -0.46845300       0.72928000 
H       2.55903500       4.89627757      15.26090625        1       1.01908700      -0.01675600       0.36939400 
H       1.53131278       2.31887254      22.07127330        1       1.43057300      -0.32688300      -0.21634800 