768
Lattice="25.6002641586 -0.213676275612 0.0500423061158 -0.237774060246 25.1775904039 -0.164765009079 0.0290025908194 -0.166279670326 25.679875071" Properties=species:S:1:pos:R:3:Z:I:1:forces:R:3 energy=-99798.6549891 stress="1218.797492 9.783125 25.218788 9.783125 2086.273999 1824.164216 25.218788 1824.164216 -1568.060862" pbc="T T T"
I      -1.78489248      -0.01766147       3.06111948       53       0.05782200       0.02151300      -0.06811200 
I      -0.33357638       0.05523557       9.30753785       53       0.19791900      -0.01682600       0.00802300 
I      -0.56144270       0.46733743      15.43734417       53       0.06437900      -0.08972800       0.64655700 
I       0.10909130       0.27888403      22.35647535       53      -0.12857700       0.04846300      -0.50958200 
I       0.76941718       6.16385249       3.32243819       53      -0.10018100      -0.11603700       0.07283500 
I      -0.04393410       5.56373736       9.53784666       53      -0.02213400       0.00365800       0.03996600 
I       0.66133203       7.39658452      16.73621079       53       0.15278400      -0.11781500      -0.68118300 
I      -0.46401469       5.86817634      22.70224138       53       0.08247600       0.17204600       0.11125700 
I      -0.39332422      13.17545731       3.44545188       53      -0.37536000      -0.21297800       0.35502100 
I       0.64046777      12.60760605       9.82721436       53      -0.05421300      -0.01790800       0.00967700 
I       0.26584981      13.36153265      16.41652508       53      -0.24584300      -0.05954000      -0.49589700 
I      -0.11895543      12.34427505      22.81092031       53       0.16000000      -0.07037400       0.13129000 
I       0.21594827      18.46726340       3.35712076       53       0.00966700      -0.14924600       0.01953200 
I      -0.14432699      19.82871488       9.58768179       53      -0.24014800       0.28032200       0.14426300 
I      -0.03478467      18.89642304      15.77843240       53      -0.07051400      -0.11690800       0.38460900 
I       0.10472971      19.52281675      22.57616467       53      -0.09250700      -0.01698000      -0.22417700 
I       5.89658912      -0.37913319       3.82878409       53       0.24998800       0.23542000      -0.44386900 
I       6.35503089      -1.09920989      10.20776705       53      -0.05192900       0.10615900      -0.58788400 
I       6.24192792      -0.27027286      16.15659910       53      -0.05108300       0.06557700       0.28214200 
I       6.65236642       0.15248119      22.21116798       53      -0.65336100      -0.94383100      -0.01053500 
I       6.55306690       5.33421463       3.01028515       53      -0.13472700       0.15661800       0.11117400 
I       6.89945744       6.80494971       9.62186674       53       0.27036300       0.22954700       0.26034300 
I       6.74738565       5.12885710      16.27649425       53      -0.03255100      -0.18005100      -1.77960300 
I       6.59411243       6.28356525      22.37353908       53       0.05961100      -0.09187700       0.02557300 
I       5.95596820      12.72610846       3.49069049       53      -0.01475900      -0.11092500      -0.34263500 
I       6.68758329      13.00667369       9.63550761       53      -0.45443000      -0.49799200       0.08236400 
I       6.91891707      13.10427517      16.09104143       53       0.04927700      -0.07180900       0.06779700 
I       6.77026020      11.98476406      22.40954499       53      -0.16365200      -0.20063600      -0.12717300 
I       5.62843064      18.18258342       3.32547743       53      -0.06828200      -0.35686300      -1.30171800 
I       6.08365772      19.27109056       9.84740456       53       0.09592900      -0.20841100       0.08311800 
I       5.75900574      18.30838456      16.30880769       53      -0.19954600       0.32700900      -0.46218100 
I       6.20100729      18.76959296      22.27620127       53       0.11055200      -0.32455900       0.98661300 
I      11.40751060      -0.93123911       3.53378498       53       0.54823900       0.44242100      -0.71417600 
I      13.44719427       0.04072734       9.46416354       53      -0.08387400       0.16245300       0.04240800 
I      12.74159706      -1.03628503      15.70340512       53      -0.32056800       0.29571100       0.09486400 
I      13.62339359      -0.07687699      23.01602705       53      -0.10026000       0.10478300       0.25982000 
I      12.84536524       6.71888761       3.00003244       53       0.21093100      -0.11217400      -0.30651600 
I      13.08239882       6.03429542       9.72749751       53       0.14637100      -0.15536700       0.02603800 
I      13.39699931       6.96394354      16.01656232       53      -0.02872800      -0.54761600       0.35975300 
I      12.61556694       5.67469026      22.24267948       53       0.07409700      -0.09606000       0.17435500 
I      12.49472909      11.12864937       2.70542289       53      -0.04086100       0.23746900      -0.12134400 
I      12.69569827      12.13272208       9.45755375       53      -0.19555000      -0.13321100      -0.34316600 
I      13.27568763      10.65273448      16.26033853       53       0.05258300       1.03383200      -0.42565100 
I      12.98764625      13.26038044      22.36892273       53      -0.28889900      -0.31438800      -0.58571100 
I      11.67011896      18.81879269       3.06110956       53       0.44161700       0.18305400       0.23538900 
I      12.26559792      18.19935869       9.69094937       53      -0.14789200       0.00374100      -0.14831300 
I      12.41215527      19.68431552      15.74433567       53       0.18255800      -0.37959400      -0.32145600 
I      12.67990733      18.76308230      21.89715234       53      -0.41077400      -0.43613700       0.13653500 
I      19.66029803      -0.15014774       2.83393218       53       0.09026400       0.10251000       0.00467400 
I      18.80642461       0.10165280       9.30384141       53      -0.12263200      -0.02334300      -0.02762700 
I      18.73494013       0.00175356      16.15443119       53       0.38229900       0.26626800      -0.26919700 
I      18.87389444      -1.40792422      22.43667507       53      -0.19554800       0.14362500       0.16889900 
I      19.07781067       6.50716711       2.89360567       53      -0.03806300      -0.28706200      -0.21129600 
I      18.73664511       5.80048446       9.58774820       53       0.34723900       0.17522300      -0.84207700 
I      19.37655678       5.51192167      16.27233984       53      -0.19595800       0.08727300       0.62214200 
I      19.50041007       6.81085372      22.36364818       53       0.17652700      -0.03243700       0.38119800 
I      19.22318543      12.65355738       3.16126555       53      -0.14293300       0.25487300      -0.37132000 
I      19.12169817      10.59691703       9.68857726       53       0.15983300       0.03090800       0.11057700 
I      20.21934185      12.21852446      16.11867012       53      -0.04275900       0.05653500       0.57004400 
I      19.12580699      12.26090128      22.31814787       53      -0.09206700       0.07390800       0.29741700 
I      17.62599993      17.97782560       3.44720247       53       0.23168400       0.15412900      -0.07466000 
I      18.72898953      19.51372978       9.49907906       53       0.53856800      -0.32616500      -0.09415300 
I      18.38812434      17.95113961      15.97719303       53       0.18299600       0.02180700      -0.41910400 
I      18.92367604      18.91583311      22.29780304       53      -0.22833300      -0.22808800       0.32510400 
I       3.68071605      -1.20480894       0.47409095       53       0.08888300       0.11066200      -0.12099200 
I       2.78502389      -0.24174013       6.35510722       53       0.11801200       0.21139400      -0.05385900 
I       3.54610251      -0.48474909      12.96752742       53      -0.13235300      -0.13010300      -0.04793900 
I       2.75649909       0.22770573      19.86618292       53       0.15110100      -0.11648400      -0.41385700 
I       2.89529777       6.49403080      -0.10469105       53       0.36077800      -0.17022900      -0.14159200 
I       3.26271316       6.70011295       7.03859910       53       0.25093800      -0.06865400      -0.11352300 
I       3.61311834       7.39472589      12.74362322       53      -0.24726400       0.08082900      -0.00240200 
I       3.53886624       5.94203887      19.54383763       53      -0.31718100       0.02843200      -0.12916100 
I       2.95001194      12.00935847       0.68483802       53       0.01530600       0.30750600      -0.69223100 
I       2.64721747      12.57388203       6.05818008       53       0.41821800       0.17160200       0.35113200 
I       3.88203613      13.07714508      13.00932831       53      -0.87643000      -0.39346000       0.10746100 
I       3.09054336      13.69460348      19.11682410       53       0.10085600      -0.20754700       0.58537300 
I       2.83392525      18.58735285      -0.09796131       53       0.50509700       0.21951000       0.20167900 
I       2.91260932      18.48741296       6.83330005       53       0.09261300      -0.23130200       0.28672200 
I       2.95931005      19.63013665      12.85587072       53      -0.17324800      -0.03861100      -0.00587900 
I       2.69898459      18.77721583      19.19380517       53       0.45401100      -0.12514500       0.08682800 
I       9.55672045       0.01531414      -0.99137751       53       0.17060000       0.05622500      -0.01770300 
I       9.81790732      -0.44257450       6.86504548       53      -0.22095600       0.06969800       0.39633400 
I       9.82015552      -0.35573624      12.05952468       53       0.12939200      -0.00908600      -0.15625900 
I       9.75778875      -0.36469236      19.51970714       53      -0.58169000      -0.10097000       0.17145200 
I       9.79264975       7.10499142      -0.33924249       53      -0.40398300      -0.00324900      -0.03671200 
I      10.22696796       5.58334369       6.55720050       53      -0.87605800       0.03920600       0.19060800 
I       9.79207382       6.32208701      12.78333054       53       0.01907700       0.02056100       0.27339100 
I       9.84415418       6.19185489      18.63485552       53      -0.06933600       0.06236800       0.25541200 
I       9.49919405      11.81925857      -0.54466247       53      -0.21029000       0.02035700       0.13142300 
I       9.54553495      12.63710824       5.98235186       53      -0.53616700       0.07871500       0.05643700 
I      10.17301212      11.84130046      13.10321748       53      -0.68026900      -0.14741800       0.15707700 
I       9.52081167      12.64122300      19.38471593       53       0.19224900      -0.12852400      -0.14520300 
I       9.53949316      17.69067041       0.13282330       53      -0.82217000      -0.17443400      -0.20195900 
I       9.29236646      18.50414858       6.39456672       53      -0.13824100       0.11436400       0.19535000 
I       9.13812775      18.39394607      13.46015613       53       1.09533100       0.17148900      -0.48578300 
I       9.26978730      18.84248405      18.49244366       53      -0.07781200       0.29746700       0.39251000 
I      15.60832047      -0.15980172       1.65411218       53      -0.08516400      -0.10148900      -0.30266000 
I      16.02839809       0.51933055       5.91668812       53      -0.03628700      -0.09069900      -0.10205900 
I      16.00129180       0.39915190      13.17010246       53       0.03514400      -0.26126700      -0.21176500 
I      15.98943720      -0.11960074      18.98012294       53      -0.61507400      -0.04837700       0.31345700 
I      15.82611151       6.09038646      -0.43019254       53       0.63774800      -0.04342400       0.03585900 
I      16.23319556       6.85278743       5.57862921       53       0.09595000      -0.13057600       0.11240300 
I      16.81583261       6.55440809      12.43955696       53      -0.79849100       0.03854900       0.23262800 
I      16.33331685       5.97415504      18.99148786       53       0.18002000       0.46690600       0.00689700 
I      15.74079188      11.95506956      -0.67919076       53       0.80569400       0.77062000       0.31316500 
I      15.59873885      11.60452659       5.86271146       53       0.48286600       0.07990700       0.16785200 
I      16.41659645      11.68777745      13.39342479       53       0.38915600      -0.19648100      -0.12678300 
I      16.18462727      11.99012088      18.80292542       53       0.24834000       0.43746500      -0.01166100 
I      15.60942971      18.79482773      -0.60369857       53      -0.24621900      -0.26722900      -0.06049000 
I      15.41396604      18.39263363       7.31188839       53       0.41196200      -0.25988700      -0.07487300 
I      15.69394840      18.01464040      12.59151773       53      -0.31074400       0.02502300       0.08752900 
I      15.61385969      17.92620321      19.03992034       53       0.24115600       0.26956500      -0.03854700 
I      22.21885330      -0.11540073      -0.71313186       53       0.35977200      -0.51853900       0.37676800 
I      22.06707592       0.10929351       7.11379985       53       0.16550800      -0.05054200      -0.28893800 
I      22.19461872      -0.51913329      12.65629031       53      -0.15354900      -0.13809300      -0.09626500 
I      22.20863628      -0.44041452      19.57845676       53       0.19362500       0.01700300       0.02365400 
I      22.17669259       5.47233726       0.52195742       53       0.09290900       0.13635000      -0.14671400 
I      22.38488119       5.97852555       6.31648435       53       0.47131900       0.21526500       0.11621600 
I      23.15085272       4.57127143      13.01833103       53      -0.04230000       0.05284700       0.08553500 
I      22.91511969       5.95316687      18.46574874       53      -0.56247000       0.05997700       0.04335800 
I      22.25960245      12.46861506       0.24221793       53       0.12180800       0.06627000       0.18172900 
I      21.94479577      13.12953571       6.94589747       53      -0.07267900      -0.22181400       0.09082200 
I      22.85492578      12.81934835      13.07347937       53       0.07180200      -0.06897900      -0.34258000 
I      22.42166823      12.50577581      19.67126049       53       0.02601400       0.17822900       0.09315400 
I      21.98396186      19.10127602      -0.13107173       53      -0.19472000      -0.03427600      -0.12292800 
I      21.96792707      18.83281520       6.17726735       53      -0.04508800      -0.19625000       0.14077500 
I      22.13226187      18.81254868      13.17938670       53       0.08755500       0.16327400      -0.16282800 
I      22.02816756      19.92226504      19.04961199       53      -0.11072500       0.09999000      -0.00031000 
I       0.66715277       2.84393609       0.12371848       53       0.12173800       0.50863500      -0.14771600 
I      -0.20607521       2.77350929       5.28433093       53       0.35839600       0.89342500       0.26956200 
I       1.29045768       3.05613735      12.73716212       53       0.17850100      -0.16509500       0.18880600 
I      -0.11993183       3.12189823      18.32895243       53       0.41152800       0.21288900       0.28330700 
I       0.04332447       9.29443921       0.22257888       53      -0.29655400      -0.01151400      -0.29186200 
I       0.01900365       9.33099924       6.00431346       53      -0.13134600       0.11142300      -0.01022600 
I       0.22893688       9.73505793      13.16791374       53       0.19202200       0.31339500      -0.21179900 
I      -0.77365090       9.54609502      19.92373509       53       0.33154400      -0.13146100       0.15962300 
I       0.07630106      15.78123274       0.24386542       53      -0.13210100       0.00608900      -0.18324800 
I      -0.09873351      15.65943732       6.65509242       53      -0.08693200       0.19091500       0.14409800 
I      -0.39122471      16.08583726      11.79062771       53       0.53540100      -0.05196600       0.30084500 
I      -0.58449271      16.05395899      20.18578239       53       0.01623400      -0.05517800      -0.61714800 
I      -0.36134583      22.16054975       0.91951040       53       0.06856300      -0.59526300      -0.08370900 
I      -0.68980726      22.01080546       5.69365822       53       0.04114100      -0.80933800       0.06125400 
I      -0.22018793      22.18215647      13.13490344       53      -0.09209500       0.43429300      -0.21175000 
I       0.09127024      22.23437363      18.58528406       53      -0.10306300      -0.01279800      -0.10530900 
I       6.57930979       2.88185218      -0.17641244       53       0.01861100      -0.35131000      -0.22307700 
I       6.24389361       3.05616015       6.75935127       53       0.04904000      -0.19097500       0.12577800 
I       7.09820716       2.88838366      11.84200327       53      -0.18538300      -0.00743600       0.27774500 
I       6.60346011       2.96619938      19.59334069       53       0.00577100      -0.20480300      -0.14622200 
I       6.04827729       9.25821025       0.28354696       53       0.13463000      -0.47382100       0.02101800 
I       7.03158883       9.68016732       5.81891416       53      -0.28731200      -0.25347900       0.11643700 
I       7.14651177       9.11438583      13.61319639       53      -0.11761000       0.42695000       0.18695900 
I       6.75545756       9.09149244      18.24445951       53      -0.03089000      -0.00799600       0.04175200 
I       5.93809262      15.31953861      -0.91820192       53      -0.01991900       0.20676600      -0.07795100 
I       6.33258060      15.80013329       6.67851217       53       0.17239200      -0.06199400      -0.11641800 
I       6.77797625      15.46975970      12.76065027       53       0.11875500       0.28806800      -0.01911600 
I       6.68489298      15.72894520      19.07021258       53      -0.00442400      -0.22673700       0.49001200 
I       7.06052302      21.68626748      -0.12807611       53      -0.16845700       0.07886900      -0.04688200 
I       6.56275657      22.06183607       6.13208524       53      -0.12370700      -0.45024300       0.16121300 
I       7.31068003      21.75517862      13.07908401       53      -0.42175500      -0.01403100      -0.16303800 
I       6.08713311      21.98139645      18.78322095       53       0.13145500       0.01834500       0.36822800 
I      12.56368087       3.56803536       0.42269755       53      -0.05766400      -0.39642000      -0.07012000 
I      12.66328472       2.75903377       5.53383965       53       0.15133000      -0.45884700       0.13485100 
I      12.75882634       3.38362734      13.09795086       53       0.19069300      -0.46066000      -0.11100200 
I      12.77691900       3.03611071      19.22396755       53       0.16577500      -0.30562900      -0.12647600 
I      13.28833625       9.46690837      -1.52723353       53      -0.23401400      -0.43904000      -0.31192900 
I      12.04225279       8.88410082       6.10832548       53       0.04399700       1.07923800       0.27672600 
I      12.82163521       9.30413680      11.86542600       53       0.18973800       0.02118200       0.33790300 
I      13.84363009       9.29463746      19.54321412       53      -0.32814500      -0.90286700       0.46972900 
I      13.03341618      15.32016410       0.18558367       53       0.14450800      -0.03332300       0.10056300 
I      12.37759958      15.48369696       5.68756884       53       0.21258700      -0.09432500       0.11197800 
I      12.28285891      15.00618712      12.78376571       53      -0.22736800       1.15128100       0.13144300 
I      12.87561088      15.51544636      18.67644625       53      -0.26482200      -0.13306500      -0.13145000 
I      11.91752817      21.24081632      -0.63908891       53      -0.13583000       0.81301800      -0.06012300 
I      12.77027254      21.56484280       6.32988930       53      -0.02726700       0.45337200       0.08753000 
I      12.78862492      21.63165542      11.86313418       53       0.09229500       0.02111500       0.17243200 
I      12.71828635      21.83195153      18.87367239       53       0.18854400       0.34568600       0.43907900 
I      18.53785574       2.95224130      -0.66830661       53       0.01632900      -0.06556600       0.04745200 
I      19.05764129       3.14171274       6.08047078       53      -0.89449800      -0.09109700       0.19121200 
I      18.83497617       3.00910752      12.16070465       53       0.23795600      -0.37476900       0.19046900 
I      19.46381931       3.05592324      19.98878920       53       0.09559400      -0.07727800      -0.10923400 
I      19.52294958       9.54893897       0.04229751       53      -0.33621000      -0.31409400       0.26398500 
I      19.33473607       9.26323203       5.19175023       53       0.23282700       0.25926700       0.39222500 
I      20.45192067       8.96513718      13.06048381       53       0.10275000       0.24932600       0.29801400 
I      19.57230791       9.51233433      19.22486861       53       0.06155900      -0.48485200      -0.38396700 
I      18.55767619      15.74652935      -0.69484589       53       0.05233900       0.09346100      -0.10078000 
I      18.05652455      14.99390924       7.14284903       53       0.19291300       0.42957400       0.37873000 
I      18.90735477      15.46829460      12.43707383       53       0.09347700      -0.20965200      -0.09161200 
I      19.25747249      15.85820687      19.50296953       53       0.04667300      -0.31461100      -0.23431500 
I      17.82738049      21.74520049       0.44614506       53       0.37763400       0.45070100      -0.28524100 
I      18.27690974      22.02098779       6.11182764       53       0.24171600      -0.56500800      -0.20597600 
I      17.91631430      21.57345099      12.60841790       53       0.25139500       0.37035100       0.04127300 
I      18.17889292      21.78155732      18.21328901       53      -0.13431300       0.22176900      -0.17324300 
H       3.34367418       1.63213770       3.03442258        1      -1.84793800       1.65814100      -0.83259400 
H       1.85634920       2.60993183       9.10712874        1       0.32239100       0.02881300      -0.66361300 
H       3.92186142       2.16007744      17.66847091        1      -0.29656600       1.34768500      -1.25980000 
H       3.63230339       2.79523794      21.46620247        1       0.40132600      -0.39332300      -0.44709100 
H       3.98163106       9.48743461       4.25507500        1      -0.60458000       1.62180200      -2.16956300 
H       2.83176824      10.74497616       8.52497543        1       0.15452100      -0.87710100       0.37860100 
H       3.89647300      10.42404046      17.35298323        1      -1.15065600       0.43406300      -1.03534900 
H       3.53844792       7.77065530      22.99754878        1       0.96683300      -1.60871200       0.36496100 
H       2.97404430      13.83585952       3.20907254        1       0.00610400      -1.80640600       1.23507900 
H       4.72267907      15.32057945      10.42397999        1      -1.61166100       0.69957500       0.01528900 
H       2.92439652      14.99941674      14.68852360        1       0.10396200       1.45764100       2.22350200 
H       2.60748141      16.28149125      21.43863821        1      -0.16273200      -0.04532200      -1.85612500 
H       2.38186429      20.16532356       4.68111411        1       1.44446600       0.68335700      -0.30296000 
H       2.18821366      21.67940492       8.31464767        1       2.42962600       2.49947900       1.50910600 
H       3.84463550      20.80844397      16.51830179        1       0.45182500      -2.10974500      -0.52293600 
H       2.66528437      21.13686971      22.45707344        1       1.27969300       0.22615400       0.16493400 
H      10.66020965       2.51644016       3.36799103        1       0.53054000       0.39945800       0.00454000 
H       9.63557601       2.72088671       8.65872557        1       1.39441100       0.87696000       1.49502600 
H      10.31709823       2.92095384      17.23661898        1       0.78934900       1.62270600       0.08562500 
H      10.65663909       2.60732974      22.31679182        1      -0.92984400       0.76054600       0.43449900 
H       8.58463108       7.76309587       3.58699043        1      -1.36242700      -0.33511900      -0.27462800 
H       9.51066404      11.38078991       8.94275231        1      -0.90839300      -0.67201700       0.32197000 
H       9.88355223       7.85498763      16.56338180        1       1.38083400       2.47790100      -2.42636400 
H      10.58540541       8.70674469      20.75793676        1       1.98745100      -1.82595500      -1.88417300 
H       9.34197261      14.07778106       3.31718049        1       0.38366500      -1.12949600       0.10002300 
H       8.30806068      15.36684303       8.82359268        1       1.04665300      -0.39587400       2.01242900 
H      10.83453645      16.52387571      15.64561901        1      -2.03958900      -0.15296200       0.53769700 
H      10.19516007      16.61361443      22.76913330        1      -0.84104900       0.38554600      -0.78341000 
H       9.27704142      21.23898147       2.33407712        1      -1.07572000      -0.22064500      -0.40891800 
H      10.32002446      20.41396889      10.10075941        1      -0.59603900      -0.50235400       0.02214200 
H       9.55253034      20.80073288      15.32032370        1      -0.07779700      -1.71767200      -0.07583800 
H       8.21797203      21.86608989      21.88246469        1      -2.05259400       0.89312900      -1.10931200 
H      15.36084584       4.46981193       2.52369625        1       0.76631700      -0.10144200       1.12323100 
H      16.47978102       4.41420166       7.55144773        1      -1.30065700      -1.05570900       1.68625200 
H      16.90325473       3.42986614      15.54792931        1       1.64242900       0.36815200       0.31849500 
H      17.00310640       3.16300820      21.55895763        1       0.80257500      -0.12033100      -0.23045400 
H      17.21449978       8.72069286       1.77031287        1      -0.53705400      -0.83163600       1.28114900 
H      15.37811476       7.65550734       9.01917827        1      -2.90575600      -5.26332500       1.10236200 
H      15.49689573       8.70281728      15.43584933        1       1.23449700       0.55978400      -0.14147200 
H      15.89500184       7.73756867      22.93254126        1       0.59903900       0.98631600      -1.02341400 
H      14.92387301      15.70859343       3.11512885        1      -2.22200000      -0.13337600       0.82864800 
H      15.84092209      15.42093170      10.89234437        1      -2.09072400      -1.09685100       0.39404900 
H      14.69099087      13.82711156      16.84946146        1       0.35349300       0.76228400      -3.74098600 
H      16.81084454      16.03252773      21.19028234        1      -0.78954700      -0.55972200       0.24470600 
H      15.24252483      21.04107433       3.81521459        1      -0.98782000       0.28533900       0.11324400 
H      16.50587126      23.12943533       8.96852336        1      -1.43919300      -0.94286100       0.86201100 
H      15.73840390      21.23161039      14.42262720        1      -0.46423800       0.71478300       1.26665900 
H      14.57618787      22.31126053      21.80699431        1       0.48269200      -0.81270200       0.36435900 
H      21.23588474       3.01224588       3.06458099        1       1.19054600      -0.48536800       0.15060900 
H      21.14775188       3.13615568       9.31852311        1      -0.38718700      -0.52882800      -0.16001000 
H      20.70611710       3.17029503      16.53952192        1       0.20173000      -0.81275500      -1.36235600 
H      23.71421551       2.47941125      22.71765762        1       2.80614200      -0.24801000      -1.32059200 
H      23.26149040       9.16268251       1.89475795        1       0.60255500       0.18700200       0.27345600 
H      22.23296602       9.00146229       9.28302373        1      -1.63621200      -0.61439700      -1.59571000 
H      23.92869372       9.69867236      17.24206304        1       0.39144100      -0.88578100      -0.22594500 
H      22.58926332       9.61438562      21.98171366        1      -0.22394700      -0.54382900       0.34672800 
H      22.85441032      16.21243538       1.84889187        1      -0.33992900       0.16084100       0.34370400 
H      22.00335012      16.36569571       8.17368207        1       0.91982100      -0.53507400      -3.68277600 
H      21.78098833      16.57472094      15.57836428        1       0.43280900      -1.35432600       0.99449200 
H      22.29479850      17.06375034      23.43966333        1      -0.08721300      -0.92323400      -1.32690600 
H      22.08063353      20.23837326       3.38040372        1       4.17224200      -3.38592900       1.59082900 
H      21.94394526      23.57963865       9.55330354        1       0.80506100       0.74393400       0.01102300 
H      21.45721165      22.51139010      14.89822587        1      -0.18335000      -1.01593200       1.65594400 
H      22.87373811      20.80651694      22.95065277        1       0.93830800      -0.74140800      -0.89933400 
H       3.52193930       3.28070967       2.43618690        1       2.22871200       1.59184200      -1.36443200 
H       3.61104460       3.07245763       8.79886742        1       0.38172300       2.19442600      -0.77156700 
H       3.65794359       3.73904438      16.44806929        1       0.19853400      -2.13658900       0.78550800 
H       2.98283092       1.52713539      22.54403264        1      -0.16596700       0.94432600       0.06911100 