768
Lattice="26.2283689698 0.191193922859 0.0632135179418 0.158257439517 25.7588862017 0.492860213079 0.0259620081772 0.460039093952 26.0604158764" Properties=species:S:1:pos:R:3:Z:I:1:forces:R:3 energy=-99799.6154824 stress="224.499074 61.231201 1347.988351 61.231201 -504.52784 -950.240949 1347.988351 -950.240949 2935.007842" pbc="T T T"
I      -0.05073091       1.15300157       3.40756544       53      -0.15443700      -0.21993300       0.25318100 
I       0.51315420       0.43116363       9.86679568       53       0.01093200      -0.39738300      -0.14661900 
I       0.06674427       0.37264058      16.48587620       53       0.10763000      -0.16479900      -0.00678100 
I       0.45051041       0.03313989      22.98758983       53      -0.28180800       0.31599600      -0.23057200 
I       1.31130759       6.29642604       3.47483391       53      -0.13391000       0.16202800       0.43377700 
I      -0.01130367       5.59839664      10.16129219       53      -0.27487200      -0.14244200      -0.07234300 
I       0.43220090       7.85079793      16.42933560       53       0.14796500      -0.13767500      -0.35233400 
I       0.04006073       6.93760011      22.61521236       53      -0.18125100      -0.04534300       0.11230200 
I       0.64482423      12.92557766       3.57327500       53       0.02387900      -0.01367900      -0.63728400 
I      -0.29321232      13.39814591      10.12688633       53       0.05867500      -0.04389500       0.12764700 
I      -0.23312173      12.48335727      16.42213039       53       0.11911600      -0.01031000      -0.06301500 
I      -0.43022554      13.02702935      22.99543864       53       1.11230700       0.81022900      -0.07339600 
I      -0.31693282      18.92919920       3.59160071       53       0.22837000       0.01625500      -0.19832600 
I      -0.95251476      19.07837120      10.02115503       53       0.36898900      -0.11302200       0.36619700 
I       1.47265760      19.72506453      16.72311259       53       0.04670400      -0.22589100      -0.07854200 
I      -0.54991187      19.98062056      23.09018707       53       0.05522000      -0.22638300      -0.10116200 
I       6.49233978       0.77945528       2.81044532       53       0.08484800       0.15373700       0.18408800 
I       6.26804037      -0.29270431       9.67877023       53       0.06401400      -0.44038000      -0.68600500 
I       6.47738594       1.52033237      15.71995901       53      -0.00438700      -0.34859000       0.56017800 
I       6.13984745      -0.91224961      22.18350024       53       0.05953500       0.39732400       0.41088600 
I       5.88537626       5.73598668       3.98057241       53       0.25682900       0.02873900       0.43010200 
I       7.71121735       7.44340034      10.35122722       53      -0.54235100      -0.38386800      -0.47888700 
I       7.78398282       7.03339896      16.60997875       53      -0.22578300      -0.17510700       0.24251300 
I       6.24047338       7.75105444      22.83000231       53      -0.00602100       0.12878200       0.13670800 
I       7.10440968      13.77381126       3.60674681       53      -0.38218200      -0.28173500      -0.03081700 
I       6.74635255      13.02469070       9.98738266       53      -0.56404400      -0.27320400       0.40411600 
I       6.16670708      13.42194332      16.64992614       53       0.53113100       0.56369100      -0.89737400 
I       7.42085271      13.07211045      23.34575018       53      -0.44970300      -0.28199100      -0.30536300 
I       6.27525569      18.63768091       3.32424313       53      -0.04774400       0.10638700       0.39246700 
I       7.03490173      20.17205533      10.25609830       53      -0.12414700      -0.07924600       0.12909400 
I       6.50932665      19.18702810      16.78434873       53      -0.21745800      -0.08511700      -0.27930900 
I       6.97445897      20.22401274      23.07982655       53       0.08150700       0.04716300       0.53409600 
I      13.34156988       0.22433786       2.69116277       53      -0.42331700      -0.39559500       0.35853500 
I      13.49865648       0.21150713       9.97666087       53       0.17011200       0.17099700       0.06815500 
I      12.34150179       0.18680097      16.53957622       53      -0.25603400      -0.00658100      -0.77978400 
I      14.07252160       0.21942881      22.44432456       53       0.05330100       0.35707000       0.58617200 
I      13.91724136       6.79558878       3.44826067       53      -0.02769600      -0.14115500      -0.02991300 
I      12.85022964       5.43395609       9.52022337       53      -0.03769100       0.33422200       0.45349900 
I      13.27262863       6.83665035      16.30005785       53       0.10410200      -0.05541300      -0.11774500 
I      13.40499389       6.27071095      22.95318802       53       0.19982000       0.01852300       0.10190200 
I      13.73038473      12.59328824       4.11344770       53      -0.46526800       0.15000100      -1.01927200 
I      13.52829496      14.45663990      10.09111229       53      -0.00996100       0.00783500       0.13860700 
I      13.11351507      12.94163858      16.40303357       53       0.16419500      -0.39048600       0.53354800 
I      12.29207430      13.03697901      23.13049776       53       0.31310600       0.09016300       0.49546400 
I      12.98366657      20.18030893       3.49863233       53      -0.02162900      -0.13703500      -0.12715100 
I      13.12738509      19.30733375      10.11126055       53      -0.05539400      -0.09236200       0.56181100 
I      13.20506062      19.97116980      16.54807877       53      -0.13115900       0.18935900       0.29696300 
I      12.28555723      20.17357227      23.18053243       53       0.33031700      -0.64649100      -0.22292400 
I      20.31911029      -0.26527799       3.54543579       53      -0.50150400       0.58730400      -0.28248100 
I      18.71461265      -0.05477371      10.03869342       53      -0.07752500       0.17596000       1.20159700 
I      20.88836591       0.37934587      16.50987803       53       0.10749100       0.08850700      -0.42211700 
I      19.52427413       0.49156490      23.03528888       53      -0.01115800       0.17365900       0.05122600 
I      19.01547139       6.65361490       3.25153129       53       0.14639700      -0.28457200       0.17125800 
I      21.11633976       7.07482078       9.95326926       53      -0.03241300      -0.08733700      -0.30404700 
I      19.89969863       6.78340673      16.09479253       53      -0.26255000      -0.08229600       0.36140800 
I      19.54876879       7.71175471      22.58425832       53       0.09772700      -0.07324800       0.30600300 
I      19.39999854      12.62172653       3.32528849       53      -0.11080500       0.16671200       0.47302500 
I      19.70644738      13.86723705      10.25423122       53      -0.13817700       0.13388600      -0.81737300 
I      19.25679107      13.20312878      16.71664612       53      -0.07506900      -0.08418800      -0.18293400 
I      19.71864360      13.06729146      23.05133159       53       0.05848000       0.05360900       0.16681800 
I      19.68135465      19.74224368       3.73671169       53      -0.18615800       0.15163900      -0.43792800 
I      20.65536257      19.71232691      10.26560471       53      -0.34124100      -0.22987600       0.08170700 
I      19.97494342      19.95658331      17.06697486       53      -0.22745900       0.09913700      -0.18636100 
I      19.25812889      19.78061240      23.22277395       53      -0.24946500       0.04631200       0.28733900 
I       3.01231853      -0.22675646       0.10088803       53      -0.25585100       0.26075400       0.23696500 
I       3.09737839      -0.16123971       5.65873719       53       0.38082300      -0.01909500       0.06737800 
I       3.12613140       0.19584189      12.57621939       53      -0.16121500       0.09080000       0.17375200 
I       3.85269624       0.24450231      19.33831815       53      -1.74797100       0.05424500      -0.11647600 
I       3.11700245       6.23675339       0.02268627       53       0.04706300       0.54702800      -0.67889400 
I       3.42953928       6.84342951       7.87979281       53       0.32979100      -0.17405100      -0.16861400 
I       3.74491368       6.49860284      12.07721452       53      -0.11378700       0.33726100       0.25238600 
I       3.53849370       7.64656381      19.33575180       53       0.44792700       0.05386200       0.03825800 
I       3.33727726      12.76813788      -0.18816207       53      -0.17634800      -0.13451600      -0.03452200 
I       3.43047131      13.58217511       6.72906714       53       0.10568800      -0.46508000       0.24014300 
I       3.23266418      12.65920168      13.21026314       53       0.12103600       0.24753300      -0.19726600 
I       3.24854295      14.16783268      20.04509802       53       0.16763300      -0.56720400       0.23467300 
I       2.58699091      19.50126504       0.06370938       53       0.70737300      -0.43295700      -0.42266200 
I       3.12279596      19.87068048       7.67705032       53       0.11529200      -0.13825200      -0.24838000 
I       3.08597858      20.01163228      12.38286189       53      -0.37764500      -0.17767800      -0.31177500 
I       3.30737465      19.07572997      20.94693450       53       0.83014300      -0.11139600       0.20495700 
I       9.26657288       0.05115593      -0.57075737       53       0.46094400       0.08013700      -0.35820900 
I       9.69309259      -0.10213882       6.28135178       53       0.07257700      -0.13774800      -0.15907800 
I       9.91715722       0.54637403      13.18420905       53      -0.17914200      -0.29862200      -0.14824900 
I      10.17725090       0.73141115      20.27947662       53       0.24995300      -0.30532500      -0.08553000 
I       9.69675288       6.73055980       0.70991090       53       0.17684200      -0.13069100      -0.20147400 
I       9.97568027       6.74043659       6.08489462       53      -0.29927500      -0.02686200      -0.05420200 
I       9.99627481       6.20175857      13.50036265       53       0.27224600       0.39167100      -0.42505100 
I       9.94721972       6.63890495      20.99238395       53      -0.19592100       0.07478700      -0.40860100 
I       9.70540519      13.57697967       0.46386736       53       0.38168500      -0.20677400       0.35835300 
I       9.81834878      13.85095653       7.93186153       53       0.63671100      -0.24763300      -0.40481900 
I       9.58475143      13.56139133      13.23291197       53       0.02087500      -0.04884400       0.16047400 
I      10.05906431      13.53651213      18.91924448       53      -0.58797700       0.01826800       0.15518200 
I       9.69762317      18.16153434       0.60013477       53      -0.18688500       0.54870700      -0.52692100 
I       9.68812586      19.04329238       6.97748880       53       0.02305300       0.15640500      -0.27474200 
I      10.42888151      20.15777142      13.26103554       53      -0.60298800      -0.16909800       0.14852500 
I       9.82936910      19.48698619      19.24795255       53      -0.07038000      -0.02084000       0.27098600 
I      16.55327016      -0.13570475       0.07304781       53       0.06945400      -0.08112400      -0.15092000 
I      16.05122230       0.04257951       5.97740857       53       0.15803700      -0.13409900      -0.04588200 
I      16.85190459       0.13543556      14.28904505       53       0.08988000       0.14738400      -0.27247700 
I      17.36198140       0.24712128      18.31929389       53      -0.45138700       0.35368400       0.80311200 
I      16.55871353       7.07943029       0.03447063       53      -0.30443700       0.16770600      -0.04128400 
I      16.42028153       6.67951923       7.06469504       53       0.10308200       0.03357900      -0.06635100 
I      17.04521049       7.35827976      12.20039213       53      -0.51032600      -0.44647900       0.24967700 
I      16.79460703       6.47726855      19.72337758       53      -0.23944200       0.19131400      -0.36706300 
I      16.16895451      12.36943511       0.23126680       53      -0.42399200      -0.09636300      -0.02379600 
I      16.57052217      12.99643861       7.06440157       53      -0.21275300       0.01814900       0.16237000 
I      16.13246299      13.57595758      13.58985290       53       1.02483900      -0.19779000       0.01810800 
I      16.25899527      13.29600709      20.25980803       53      -0.13262600      -0.02555200       0.08818100 
I      16.39315171      20.23864578       0.37272154       53      -0.19369300      -0.14268800       0.10763400 
I      16.67647509      19.70650405       7.02583754       53      -0.44622300      -0.05320600       0.20880600 
I      16.71234122      20.32001904      13.30053260       53       0.21739700      -0.18340500      -0.05699700 
I      16.11681191      19.59208096      20.16529235       53       1.56333900       0.08017000       0.16127300 
I      22.94086732       1.10324317       0.36053341       53      -0.06490300      -0.15152200      -0.24675800 
I      22.83510161      -0.06337746       6.96638550       53       0.39402500       0.01211000      -0.39068400 
I      23.34564392       2.03836626      13.08442912       53      -0.52230400       0.01753200      -0.00208600 
I      23.34348540       0.33148490      19.71493879       53       0.44666900       0.02159600       0.29399500 
I      22.82875658       6.29428168       0.35692170       53      -0.28781200       0.12937400       0.00655400 
I      23.03761438       6.50549028       5.53600282       53      -0.43242500      -0.03182800       0.09994600 
I      23.37838408       6.84435040      13.40505157       53       0.54012400      -0.46623300      -0.28224200 
I      23.48775948       6.99000177      19.01491785       53      -0.30817100       0.06497400       0.30529000 
I      22.79355329      13.47938863       0.09347133       53       0.13313200       0.16599500       0.19315600 
I      23.24358808      13.07801123       6.00508282       53      -0.05366400       0.23106600       0.22497100 
I      22.66168997      12.90670650      13.51245667       53       0.40418500       0.25617600      -0.30500300 
I      22.65292431      12.79531021      19.63923862       53       0.18212800       0.17681600       0.10420000 
I      22.56708221      18.59875662      -0.18486002       53       0.10018100       0.14506000      -0.15618100 
I      22.92578294      19.49066266       6.05880510       53       0.22129800      -0.06593500       0.26599600 
I      23.14099286      19.74222547      13.97376780       53       0.60052000      -0.27398600       0.12019100 
I      23.31011174      19.77947394      19.54728119       53      -0.32534000      -0.13876000       0.31008800 
I      -0.23741449       3.62589727       0.39111606       53       0.30365600      -0.31536100      -0.16746400 
I       0.25275288       2.98253230       6.57087346       53       0.17155700       0.91030800       0.35854300 
I       1.22916624       3.39262881      14.38449477       53      -0.28387000       0.19097000      -0.41922600 
I       0.20423817       3.47701166      19.93354184       53       0.15398800       0.06918500      -0.23202000 
I      -0.49071687       9.64347080       0.19423590       53      -0.17213600       0.60421300       0.28120400 
I       0.04847625       9.50488903       7.07803884       53      -0.24249700       0.21912500       0.21787700 
I       0.47192869       9.33062127      12.75777332       53      -0.09038500       0.14379600      -0.37937300 
I      -0.61478096       9.96877158      20.09663749       53       0.39716300      -0.02528200      -0.00038100 
I      -0.21509961      15.93606149       0.77165099       53      -0.03042800       0.32517900       0.06778800 
I       0.28654245      16.33641782       7.07182435       53      -0.07753800      -0.17353500      -0.09801400 
I      -0.48940738      16.45021854      13.69223156       53       0.60277200      -0.08999900       0.16521700 
I       0.03404459      16.13814316      20.14355935       53      -0.30517200       0.62138000      -0.16736500 
I      -0.05109218      22.76661372       0.83326156       53      -0.31486400      -0.29032900       0.12651700 
I      -0.30325204      22.83301392       6.19626561       53       0.04247500      -1.35084100      -0.32808400 
I      -0.19723132      22.87085136      13.83247295       53      -0.21498800       0.08527100      -0.16320200 
I       0.94373392      22.68929035      20.41446287       53      -0.07894200       0.22470700      -0.34707600 
I       6.76193077       3.20044316      -0.92899463       53      -0.01620500       0.35212200      -0.01329900 
I       7.70357093       3.22211139       7.45581920       53      -0.16789200      -0.23447600      -0.12943600 
I       6.64533398       3.45709008      12.00472228       53      -0.31850100      -0.08906200      -0.04218000 
I       6.71877747       3.19184144      20.07406355       53      -0.06803100       0.60493600       0.12050600 
I       6.45087140       9.53618917       1.55515212       53       0.33724600       0.43558900      -0.47154600 
I       7.02576873      10.21113459       6.30662869       53      -0.29433800      -0.63550900       0.27490300 
I       7.01177019      10.14334091      13.76760892       53      -0.09577700       0.12903500      -0.05764000 
I       6.81742197      10.08428961      19.61518214       53       0.10979800       0.26045300      -0.15590100 
I       5.88309225      16.37811085      -0.44435968       53       0.07878400      -0.39716400       0.08829500 
I       6.14176412      16.41271910       7.18080609       53      -0.03304700       0.29174600      -0.01847100 
I       6.39225930      16.64581351      12.55690803       53      -0.07903600       0.20157100      -0.06788900 
I       6.40721009      16.43006320      21.32194106       53       0.19877400      -0.09683900      -0.40237400 
I       5.76454844      22.75687759       0.87733575       53       0.53957500      -0.17163100      -0.27264600 
I       6.74223789      22.49263687       5.55319715       53       0.14477300       0.08498000      -0.17369300 
I       5.91484271      22.85431987      13.99711590       53       0.58084500       0.87139800      -0.04286000 
I       6.82749407      22.67522401      19.47201515       53      -0.08019500       0.11146600      -0.23101500 
I      13.36472469       3.53190074       0.31881812       53      -0.01259100      -0.20197100      -0.10739400 
I      13.42045371       3.24695922       6.28367627       53      -0.00190500       0.06930200      -0.30160700 
I      13.28705321       3.52674881      13.10673489       53       0.09251200      -0.04075400       0.18383600 
I      13.14827714       3.59912063      18.96696985       53       0.11560700       0.18796600       0.13507100 
I      12.46340432       9.86887123       0.67798739       53      -0.14759900      -0.21855500       0.17597600 
I      13.01229613       9.29234565       8.49645906       53       0.18855100       0.54760800      -0.29593900 
I      12.59199090      10.07294445      13.28870777       53       0.58716300      -0.16072500       0.00748400 
I      13.18374658       9.90006207      20.14473931       53       0.04050100      -0.06592500      -0.07335800 
I      13.52545943      16.02202908       0.25037678       53       0.15460600       0.14895200      -0.18881000 
I      13.19760243      16.69995879       6.80760791       53       0.26143700      -0.77720000      -0.25853400 
I      13.41215153      16.36100456      14.61946637       53      -0.13587300       0.83040200       0.04855100 
I      13.46782792      16.49231434      19.72903752       53      -0.04793500      -0.25494100       0.08663500 
I      13.07860019      22.41617266      -0.25473937       53       0.05915700       0.96386700       0.29318300 
I      13.07047511      22.76309613       7.60532211       53      -0.03855100       0.19548800      -0.01784800 
I      13.48370871      22.75596075      12.68031738       53      -0.05999200       0.07926400       0.14181900 
I      12.78090182      23.12521023      19.95899989       53       0.00436100      -0.43653500      -0.06422300 
I      19.19978394       3.45412805       0.17117924       53      -0.23588100      -0.56465800      -0.10685100 
I      19.40685562       3.15106424       6.57133593       53       0.13495800       0.50487800      -0.23355300 
I      18.90321391       3.51403446      12.89424008       53       0.04428200       0.38826900      -0.17736700 
I      20.82718037       4.03126688      19.33209657       53      -0.33808900      -0.59657400       0.33652400 
I      20.32564456      10.06213361       0.45318707       53      -0.28175300      -0.28638900      -0.51269600 
I      19.39737046      10.03735155       7.03965898       53       0.45736100       0.01205600      -0.44197800 
I      20.00223010      10.08906407      13.16424598       53       0.11987300      -0.45742600       0.09949700 
I      18.85582047      10.05226390      19.39153647       53      -0.06010400       0.50223600       0.03062500 
I      19.15263337      16.31369107       0.82472966       53      -0.23949600       0.09099400      -0.06687300 
I      19.66935171      16.36174937       6.16659576       53       0.02930900      -0.13020900       0.34242300 
I      19.90468662      16.47647706      14.03841831       53       0.18760400      -0.31739500      -0.08158500 
I      19.55210220      16.40957391      19.59143331       53       0.32399700       0.24507500       0.53360700 
I      20.85891565      22.81462345       0.72477163       53      -0.12697900      -0.27812900      -0.28354400 
I      20.45466730      22.93253681       7.70093779       53      -0.18079700      -0.17403800      -0.20418400 
I      20.69595256      22.70660308      13.90634046       53      -0.21520200       0.60457000      -0.06525700 
I      20.33095638      23.09293861      20.55762176       53      -0.05488700      -0.07778900      -0.14817400 
H       4.67474216       3.54181498       1.80959498        1      -1.73406800      -1.06085200       1.39054600 
H       3.69201210       3.16830208       8.05965068        1       0.63260800       0.72435700       0.46833700 
H       4.64238655       4.94296194      17.86458179        1       0.08900400      -0.31820200      -1.55533600 
H       3.97698802       5.25553622      22.26669403        1      -0.20238600      -0.14069300      -0.09884700 
H       4.05155985      10.22521813       5.25587219        1       0.43295200      -1.49332200      -0.02506700 
H       2.70833585      10.33937507      10.71566986        1      -0.57550800       0.19248300       0.68684700 
H       4.18318536      11.97986534      18.18542991        1      -1.40948900      -1.07860700      -1.84349600 
H       1.45930368       9.52139826      23.35846250        1       2.51344700       0.52479300       0.93442000 
H       2.29049982      16.42978592       2.43068252        1       2.64365300      -1.04160100       0.25433500 
H       3.04959230      17.75252772      10.11452414        1      -0.51162600       2.38617300       0.17684200 
H       2.25055749      15.55527457      16.98735331        1      -0.02505800      -1.20730900      -0.05052900 
H       1.73652389      17.32252684      22.75604980        1       0.09192000      -1.55759500       2.44496600 
H       2.30933657      21.98796498       4.48967570        1       0.57292700      -0.85331300       0.63376800 
H       2.84377242      23.06863319       8.68764590        1      -1.05856500      -0.61086300       1.79134800 
H       2.03091111      22.74820706      16.18103436        1       1.22264300       0.60698700      -0.85681300 
H       2.85683894      23.88460327      22.92372865        1       0.38660700      -0.07352000      -0.05493700 
H       9.88122734       1.95508342       4.18075766        1       1.30306400       2.33739800      -0.72103500 
H      10.45150706       3.53058720       8.88096698        1       0.00611000      -0.86401600       1.29402100 
H       8.70878993       3.80473609      17.36150577        1      -4.30960200      -0.35726900      -1.05217800 
H       9.79124528       3.47686189      22.35481610        1      -2.25415600       0.46325500      -2.29148400 
H       9.20882803      10.14035460       5.07148577        1       1.82714200      -1.03760200      -0.04848500 
H      10.19326528      11.47967848      10.50990868        1       0.64328800       0.58848400       0.64858500 
H      11.62527925       9.44319853      15.94052224        1      -2.00415600       0.87935300       0.68433500 
H      11.24194826       9.84267545      24.09681574        1      -0.53458700       0.70284300      -0.20498000 
H       9.94600637      15.02690141       4.94328678        1       0.89693600       0.65091200      -1.66748500 
H       9.61438586      17.38384494      11.94466711        1       0.23871900      -0.29465300      -2.24494500 
H       9.90582623      15.89764520      15.62296301        1      -0.16972800       1.18306000       0.74246700 
H      11.03107563      17.44514787      23.30288731        1      -1.04393100      -1.02464600      -0.71072300 
H      10.83348506      23.14364826       3.42758821        1       0.58453200      -1.48959500       0.16496300 
H       9.32472555      21.82567586       9.67034864        1       1.13244900       0.82739700       0.51886400 
H       9.77127108      24.55263089      16.47990459        1       1.02720200      -0.71770700      -0.85324200 
H       9.36446650      22.09736163      23.99381473        1      -0.95786800      -0.26282300       0.95500300 
H      16.26363716       1.90644425       2.87220869        1      -0.38831300       2.24758200       0.67725700 
H      15.08973139       2.93778009       8.86357127        1      -2.08606800      -0.95504400      -1.01010700 
H      15.31267780       3.51124042      16.37178504        1       2.31796400      -0.92514000       0.52891500 
H      17.27336650       3.26971026      21.38268537        1       0.93329200      -0.38587500      -1.52074400 
H      15.43999536       9.21015775       3.07293028        1       1.85803800      -0.22748800      -0.78117000 
H      17.23273300      11.81968010      10.39255494        1      -0.88355700      -2.22747800       0.22273500 
H      15.81443016      10.33446197      15.05312046        1       0.71608400       0.51183100      -0.04761700 
H      15.49706017      11.01133823      22.85079722        1      -0.38365400       0.58915200      -0.16886500 
H      15.23036239      15.98848036       4.06785050        1       0.65246800       0.70726900      -1.13548600 
H      15.55256250      17.79035706      10.20603326        1       0.68760200      -0.12159400      -0.02315200 
H      18.21855867      16.75367703      17.36639054        1      -2.24733100      -0.17600900      -1.15022800 
H      16.94141508      16.24995740      24.18184524        1       0.29756400      -0.83593000       0.05320300 
H      17.32469953      21.47121628       4.04789249        1       1.23190300      -0.22248000      -0.26497700 
H      18.17820548      22.46598369       9.50805345        1      -2.63285800       0.02431700       0.08122600 
H      16.41516401      23.47548027      16.40284939        1      -0.65517500       0.14962800       0.14946400 
H      17.53664889      22.79923852      21.92609434        1      -0.62287700       0.03310400      -0.47578700 
H      23.38997211       3.25826390       2.64228680        1       0.47657300      -0.10762500       0.00895900 
H      22.69981582       1.97258336       8.45289085        1      -0.16293400       0.53299400       0.42351500 
H      22.68683532       4.53097002      17.20034905        1       0.38987300      -1.80262600      -1.75115400 
H      25.17365771       3.36410551      23.52242136        1      -1.91863500       0.60080200      -0.03533100 
H      22.30885965      11.10442804       4.26063017        1      -1.18901300       1.22344500       1.39775300 
H      21.59512756      11.39196727      10.37984160        1       1.42587400      -1.27940300      -1.11456300 
H      22.11488282      10.54686368      15.73329674        1       0.23159900      -0.09873400       0.70873900 
H      24.24003536       9.94658319      23.01900634        1       0.29714000      -1.02888300       0.09995600 
H      22.63199684      18.02234236       3.25991139        1      -0.10910400       0.40391800      -0.17050500 
H      22.49013023      15.16103761       9.77893875        1       0.50220400       3.12985100       1.37343300 
H      23.49289116      16.42733696      15.83882362        1       0.22926100       1.28301700      -2.25797000 
H      22.77205304      15.88615027      21.59374522        1       0.65294700       0.90825100       0.36492000 
H      21.68542334      22.99538602       4.19685501        1       0.53744400       0.81153500       0.08412300 
H      23.25203902      22.88285531       9.08292215        1       0.46514700       0.43526200       1.15771900 
H      24.03971349      21.55998702      16.58324259        1       1.07441800       1.57156600       0.77744200 
H      23.85516516      23.66050626      23.80486737        1      -0.46454800       0.61886400       0.62154200 
H       3.56224456       4.65704185       1.96289985        1      -1.02126200       2.13387000       0.56981800 
H       2.81140568       1.94936480       8.74217775        1       0.65762300      -1.24410900       0.73337400 
H       3.68294285       5.12494190      16.24470529        1       2.38597700      -0.08849600      -0.24884800 
H       2.95129693       3.95976536      21.38428934        1      -0.27994700       0.43132900       0.15510100 