768
Lattice="25.1433036006 0.317190825255 -0.0304270652578 0.315217832451 24.9770125393 0.123486884742 -0.029687681321 0.118756585659 25.1636840302" Properties=species:S:1:pos:R:3:Z:I:1:forces:R:3 energy=-99802.6644756 stress="-3456.763167 -58.142594 141.764658 -58.142594 -2192.760531 -1026.977162 141.764658 -1026.977162 -4095.197261" pbc="T T T"
I      -0.15832388      -0.02184455       2.96408667       53      -0.03223300       0.03848700       0.00884500 
I       0.80366248      -0.34651809       9.18879887       53       0.06352900      -0.04005300       0.75440900 
I      -0.29393002      -0.16152560      15.58967296       53      -0.00169900       0.11514100      -0.02947000 
I      -0.14266203      -0.32965096      21.89316130       53       0.13449500      -0.13241800       0.07974600 
I      -0.38071826       6.84480138       3.29843765       53       0.28272400      -0.13884700      -0.01798700 
I      -0.12168970       6.93181622       9.67411408       53       0.09917500      -0.09147900      -0.21563000 
I       0.12578122       7.04206940      15.62912501       53       0.22627600      -0.22774100       0.81631900 
I       0.48180484       6.21594508      22.06871957       53      -0.15404300      -0.01237900       0.10505200 
I      -0.50258866      12.71310025       3.29719623       53       0.11091400       0.03887900       0.41065300 
I       0.38557261      11.54911751       9.59357104       53       0.43937600       0.35583700      -0.07777400 
I       0.23262855      13.83567748      15.83858261       53      -0.13448900      -0.00898500      -0.34106100 
I       1.21426768      12.75746035      22.18942570       53      -0.17223900       0.13299400       0.11152900 
I      -0.37905196      18.37156351       3.51514942       53      -0.10473900      -0.19205400      -0.03729600 
I       0.11270087      19.59231863       9.60784692       53      -0.05778600      -0.04133500       0.01902700 
I       0.15972451      19.01189442      15.71133043       53       0.02970400      -0.12178200       0.50986900 
I       0.20557804      19.22708543      22.41370517       53      -0.11713100       0.10670700      -0.24900500 
I       6.61103396      -0.25024777       2.88531542       53      -0.09154000      -0.01981000       0.17067500 
I       5.42125484      -0.25055153       9.48181761       53       0.04310800       0.07524400       0.02191200 
I       7.00021265       0.26128187      15.42904302       53       0.31333700      -0.28627900       0.93716000 
I       4.80638823      -0.07856321      22.30397942       53      -0.26558900      -0.20009900       0.12422100 
I       5.74110627       6.08529975       3.31428606       53       0.07322000       0.24565800       0.04175300 
I       7.18910034       6.92736722       9.70822341       53      -0.15774400      -0.10656100      -0.79072900 
I       6.52335885       4.97301822      15.39223596       53      -0.17424800      -0.10171400       0.37977500 
I       6.46946489       6.27788045      22.11038585       53       0.07726500       0.01562700       0.51958200 
I       6.23145359      12.56870257       2.76732557       53       0.13464900       0.19235100       0.52356800 
I       6.02912513      12.20772888       9.23940126       53      -0.21191800       0.17041300       0.37729500 
I       6.54305655      13.33217460      15.83368334       53       0.02443600      -0.32891600      -0.25965100 
I       5.22572246      12.94561354      21.93148522       53       0.17242000       0.07532000       0.53381600 
I       7.10898902      19.29552776       3.51019643       53       0.09594900      -0.26771200      -0.17864400 
I       5.99154450      17.68736966       9.37559832       53       0.36098800       0.38273500       0.45149100 
I       6.99245840      19.56720008      16.01768250       53       0.02026500      -0.43421600       0.06200600 
I       5.79829376      18.65123524      22.35112516       53      -0.21346200      -0.23745000      -0.59459000 
I      11.06075784       0.50005210       3.11291967       53       0.20604100      -0.33352700      -0.23011100 
I      12.99801994       1.50440311       9.15578348       53      -0.36952200      -0.35780300      -0.23655600 
I      12.00411993       0.16102356      15.79027456       53       0.10155800      -0.31436500       0.32107500 
I      12.50924614       0.15936898      22.12050477       53       0.11347600       0.06505000       0.02038000 
I      12.53850113       6.69014414       2.58228228       53       0.20577600       0.12235400       0.42795400 
I      12.75637325       5.94055533       9.22148023       53      -0.09647000       0.10086700      -0.12495400 
I      12.39980462       6.53970734      15.54042042       53       0.11714300       0.10136300      -0.03847000 
I      13.14469535       5.89481120      21.50982443       53      -0.07278000       0.15058400       0.32025700 
I      12.00641232      11.20547198       2.54905884       53       0.19333600       0.24422800       0.04488900 
I      12.25925134      12.52791436       8.79662455       53      -0.03134300       0.08883300       0.59479800 
I      13.73212661      12.79581553      15.56889403       53       0.04886300      -0.01259300      -0.16418200 
I      12.69220020      13.67159871      21.94993563       53       0.43829800      -0.25473800      -0.01813800 
I      11.76963462      18.60820056       3.13219835       53       0.12212700      -0.35337200      -0.02155800 
I      12.23419433      18.64107042       9.44944685       53       0.19526600      -0.03883000      -0.40523300 
I      12.88817210      18.72399277      15.31592900       53      -0.13840100      -0.04533800       0.65628400 
I      13.16285665      17.92347634      22.19530366       53       0.00373400       0.32176300      -0.41439900 
I      19.36950132       1.23162415       2.51815513       53       0.14279100       0.19709900      -0.06753000 
I      18.52286178      -0.17047928       8.99620157       53       0.08306800       0.41114900      -0.05826800 
I      18.31098384       0.66894712      15.36430933       53      -0.01573400      -0.03134100       0.51486900 
I      18.09951027      -0.50756803      21.79915112       53       0.08971700       0.06639300       0.56019900 
I      19.82485146       5.71925977       2.89989213       53      -0.34574600       0.02891100       0.46241000 
I      19.08106735       6.67267143       9.34551701       53      -0.04841700       0.00004300       0.01240400 
I      18.76445280       5.80535356      15.46119988       53       0.26620400       0.28934600       0.06138100 
I      20.18314695       6.61370629      22.15470591       53      -0.10502100       0.21170300      -0.03653000 
I      18.99453209      13.47364892       3.52120221       53       0.10546800      -0.35819200       0.27821700 
I      19.28360386      11.24841485       9.69643527       53       0.03108000      -0.10569700      -0.83849800 
I      19.34189993      12.88608776      15.61729193       53       0.12187300      -0.22167200       0.39607900 
I      19.10469736      12.62788161      22.46681775       53       0.00763200      -0.02359600      -0.28703900 
I      18.22083468      18.14136897       3.63350750       53       0.17491900      -0.00090400       0.38686700 
I      19.71911565      19.31095227       9.44254821       53      -0.07970500       0.17055900       0.42351300 
I      19.20783898      18.74902341      15.51508700       53      -0.26230100       0.26365700       0.33627700 
I      19.22303395      19.80803120      21.97653197       53      -0.14148100      -0.12213400       0.18155800 
I       2.94908997      -0.78541718       0.38002772       53       0.05051400       0.28822800      -0.24905000 
I       3.36622167       0.74541817       6.09145607       53      -0.27031400      -0.29773100      -0.06066500 
I       3.43975179       0.68019611      13.05175372       53      -0.54131300       0.06269700       0.14643300 
I       2.92061246       0.34510965      18.10955398       53       0.65756300      -0.05347200       0.08788800 
I       3.51045233       5.59610498      -0.35444034       53       0.24319900       0.28330900       0.29345400 
I       3.38064308       6.37968395       7.00108292       53      -0.73529000      -0.05789800      -0.47494400 
I       3.36609860       6.03529024      12.64834897       53      -0.44719900       0.50316100       0.00614100 
I       3.05710058       5.22380221      19.30846943       53       0.43779300      -0.10931500      -0.37429800 
I       3.04502333      11.80467185       0.44347116       53       0.54899700       0.25858800      -0.28265800 
I       3.52139072      12.29869948       5.72298502       53      -0.43853500      -0.02887500      -0.25457700 
I       3.28465014      12.03182876      12.59374785       53       0.57707800       0.21958900      -0.56133000 
I       3.47404768      13.73715970      18.36154813       53       0.01075200       0.20084800      -0.12235600 
I       3.52884414      19.98191243       0.85939464       53       0.38786400      -1.06377300      -0.60821900 
I       3.10324322      18.50347859       5.43497300       53       0.26636900       0.17757600       0.28142400 
I       3.53152331      18.86296863      12.59800639       53      -0.36300100       0.12590000      -0.04595900 
I       3.24361189      19.12998879      18.73220706       53       0.10357200      -0.42928700       0.42390600 
I       9.13070791       0.41892009      -1.11834116       53       0.03756400      -0.01442000      -0.07926100 
I       9.18275097       0.23727973       7.15777859       53       0.68824300      -0.18363600       0.16637600 
I       9.59638305       0.82000023      12.23438675       53      -0.19738300       0.00144700      -0.17007100 
I       9.16121604      -0.31116343      19.39214776       53       0.23653200       0.49519600      -0.22732300 
I       9.64060153       7.27989220      -0.55303867       53       0.19888300      -0.19272400       0.03293300 
I       9.41198441       6.04151201       5.65192504       53       0.36914500       0.58570200       0.43419300 
I       9.56787232       6.65129962      12.87412967       53       0.34476800       0.03550000      -0.36256800 
I       9.78573566       6.35893236      19.11757847       53      -0.05022100       0.25622200      -0.22005600 
I       9.22586184      12.49425823      -0.86782772       53      -0.07737400      -0.14068000      -0.22840100 
I       9.41106921      12.76288413       5.74341135       53       0.14728600       0.23282800      -0.15994400 
I      10.23911769      12.33636801      13.06926745       53      -0.24485200      -0.01714100      -0.05727300 
I       9.40402602      12.51313059      18.96857942       53       0.30308500      -0.05262000      -0.04275600 
I       9.54549155      18.73257724      -1.22277694       53      -0.61294000       0.13653600      -0.23848600 
I       9.53229790      18.77509524       6.86391792       53      -0.23128800      -0.02785100      -0.13664300 
I       9.54748603      19.16600762      11.99008922       53      -0.59290300      -0.18849700       0.31069400 
I       9.64876698      19.02587044      19.39493730       53      -0.11156100      -0.00589500      -0.27048700 
I      15.17913907       0.69552782       0.18199296       53       0.28009600      -0.10183000       0.10040100 
I      15.52163011       0.47148277       5.72134411       53       0.17380400      -0.14059700      -0.25787000 
I      15.66844128       0.28675009      11.90643432       53      -0.35712900       0.06312300      -0.02735200 
I      15.51039381       0.08593751      19.26762652       53      -0.43044800      -0.07493000      -0.41964100 
I      16.20324345       7.19614354      -0.53914666       53      -0.25631000      -0.33136900       0.05655300 
I      15.76245146       6.51765573       6.52664457       53       0.12255300      -0.06177200      -0.20630400 
I      16.00151275       6.33983829      13.10376454       53      -0.31047200       0.38872000      -0.51250700 
I      16.19348104       7.40034341      19.10119872       53      -0.70610900       0.08991900      -0.12407100 
I      16.21580809      13.04894074       0.67226018       53      -0.42799900      -0.32110000      -0.14071100 
I      15.58416616      12.19450788       6.29251576       53       0.10640600      -0.18677600      -0.28439500 
I      16.60328336      11.67909476      12.19612534       53      -0.51055900       0.25230100       0.39610700 
I      15.86405082      13.50657739      19.18286109       53       0.02151300      -0.10484900      -0.09793500 
I      16.22945690      18.11903802       0.54829470       53       0.05626800       0.30991400      -0.58458100 
I      15.72904049      19.13407444       7.47399074       53       0.06572700      -0.33831000      -0.44393800 
I      15.57953256      18.48047565      11.69703532       53       0.62748100       0.14574600       0.09862000 
I      15.75373904      18.91440904      19.05562942       53       0.23738300      -0.07185000      -0.13078400 
I      21.74589301       0.16980729      -0.74513394       53      -0.39673900      -0.20156600       0.10654600 
I      22.15390109       1.07379059       5.84078148       53      -0.13097400      -0.59952900       0.19886300 
I      22.07939424       0.25649102      11.60267645       53       0.23831200       0.01630700       0.10164200 
I      21.73172361       0.85250382      19.06536253       53      -0.54131400      -0.03318800      -0.28735400 
I      22.47724140       5.56116054      -0.06152710       53      -0.13576800       0.26924600      -0.20181400 
I      22.15194177       6.79747592       6.23010473       53       0.01491900      -0.14994000       0.10756100 
I      22.32895829       5.32295682      13.11545306       53      -0.23860400       0.51927100      -0.33799400 
I      22.30248014       7.08184670      18.87364135       53       0.14299200       0.18453600      -0.24544900 
I      22.28645202      12.82511838      -0.25573601       53       0.44036500      -0.04549900      -0.02490100 
I      22.58873308      12.84673632       6.75930144       53      -0.51927000      -0.05342400      -0.25712900 
I      22.58814997      13.46983870      11.83281630       53      -0.32818600       0.02971800       0.09240100 
I      22.42631377      12.99308844      19.30416303       53       0.06800000       0.18107500      -0.21628500 
I      22.46140276      18.61204008       0.35691342       53       0.01604200       0.18616800       0.08020900 
I      22.14511639      18.59641828       6.63667017       53       0.07636400      -0.08517400      -0.06026100 
I      22.13062856      19.76978640      12.67375076       53       0.17788400       0.00566500       0.07240900 
I      22.08269754      18.82177605      19.04806368       53       0.12619500       0.30774100      -0.14577700 
I       0.41450821       3.00012211       0.15947642       53       0.35828800      -0.22797400      -0.33789300 
I       0.70100727       3.34721745       6.46119493       53      -0.17290700       0.44844400      -0.04447700 
I       0.32546665       3.18361044      11.74575555       53      -0.04413400       0.07314100       0.11901100 
I      -0.85049566       3.28725410      18.88191815       53       0.43047100       0.15997500      -0.02150700 
I      -0.47852889       9.14773718      -0.03492295       53       0.10418700       0.19652700      -0.23852600 
I       0.16741235       9.76028210       5.98828809       53       0.07220700      -0.28295500      -0.12723200 
I       0.06517713       9.64210178      13.01638342       53      -0.08612000      -0.07536000      -0.14348300 
I       1.71200590       9.49965561      19.64398662       53      -0.55119400      -0.24106300      -0.46465900 
I       1.22855722      15.84476335       0.54453820       53      -0.88394600      -0.32808400       0.71522600 
I       0.37918187      15.87650802       7.15221807       53      -0.42071300      -0.16591400      -0.37278800 
I       1.00099106      15.67434073      11.74917703       53      -0.65147500       0.02050900       0.42814700 
I       0.29358231      16.08165142      19.23525870       53       0.01532200      -0.07452600       0.02515500 
I      -0.04819767      21.75507818       0.40129502       53      -0.31273900       0.98378900      -0.01395600 
I       0.13927766      22.10916885       6.29205182       53      -0.15913000       0.03021400      -0.17799100 
I       0.62023080      22.12237325      13.14947742       53      -0.02820500      -0.47191300      -0.33153100 
I      -0.38352538      22.18239032      19.08599691       53      -0.13625500      -0.27905100      -0.21365600 
I       6.86372843       3.30879684       0.89047905       53      -0.03388600      -0.32745900      -0.23430800 
I       6.30765018       3.20342437       6.56352879       53       0.01972200      -0.29944700      -0.07349800 
I       6.21438915       3.29364093      11.17169376       53       0.59840600      -0.29796700       0.29353100 
I       6.98996481       3.17140231      19.08219352       53       0.02367000      -0.32477200       0.10144200 
I       6.51188424       9.44799250       0.57153988       53      -0.27058700      -0.08387700      -0.31566700 
I       6.03081780       9.15423145       6.03292851       53       0.08748900       0.41159400      -0.19015900 
I       5.99969530       8.94134846      14.46095797       53      -0.30429500       0.54372400      -0.31939100 
I       5.61727460       9.93172052      19.32853828       53       0.40251800      -0.22846900      -0.07113500 
I       6.58846566      15.63498147       0.25719036       53      -0.33165800       0.19436300      -0.21797900 
I       6.07785805      15.09087889       5.98270901       53       0.06815700       1.10972100      -0.07571700 
I       6.54462810      15.49814758      12.66550424       53       0.10640400      -0.08258600      -0.13843500 
I       7.10250159      15.92043544      19.17361732       53       0.00223700       0.45582100       0.00524300 
I       7.71900030      21.86371878       0.39787256       53      -0.15794200       0.03621100      -0.37766800 
I       6.18048005      21.79187156       6.94410933       53       0.09633500      -0.46617100      -0.44447300 
I       5.91697612      22.06718708      12.46265909       53       0.41809000      -0.39640800       0.13024600 
I       6.32640436      21.99934836      19.56116683       53      -0.11569600      -0.70612600      -0.15373700 
I      11.99630610       3.43958282      -0.30173116       53       0.12115100      -0.23195200      -0.09245700 
I      12.63657938       3.35266565       5.41632919       53       0.11904000       0.64437600      -0.13747500 
I      13.13053571       3.47756488      12.46816882       53      -0.25615400      -0.06022800       0.27259500 
I      12.61050169       3.44224734      18.39699656       53       0.16072100      -0.16199000      -0.13237200 
I      13.21689321       9.57088846      -1.47033089       53      -0.38432600       0.42617300       0.18615300 
I      11.50772178       9.46995328       6.60123249       53       0.08095500      -0.58454600      -0.08917400 
I      13.00002126       9.57639917      11.44856325       53       0.15675200      -0.09937100       0.13535900 
I      12.37202839       9.90841284      19.40578974       53       0.24517000      -0.39315600      -0.24842600 
I      12.34521132      15.67386018       0.20184888       53      -0.01877400      -0.53095400       0.22554600 
I      12.68966363      15.67029804       6.78425980       53      -0.02341200       0.35456300      -0.52917900 
I      12.84055753      15.73255866      12.52862932       53       0.29502700      -0.20561700      -0.12687800 
I      12.35469536      15.79445790      18.24709404       53      -0.16675600       1.00942100      -0.27345800 
I      13.31741329      21.79024433       0.54872641       53       0.00560800       0.17977700      -0.11374400 
I      12.70886124      22.15349868       7.18603146       53      -0.23884300       0.03864700      -0.42959900 
I      12.52608495      22.25631407      11.90597331       53       0.01001300       0.68270900      -0.09736100 
I      12.80044229      22.11584968      19.38061357       53      -0.03537500      -0.28559800      -0.28495800 
I      18.51288254       3.28415885      -0.67663007       53      -0.21291500      -0.11710900      -0.11308700 
I      19.15776891       3.35996377       6.69015488       53      -0.24679300       0.56945500      -0.11716000 
I      19.12126562       3.12357188      12.43079721       53      -0.28005400       0.00897900      -0.34211700 
I      18.31574247       3.80333627      19.35922906       53       0.11497800      -0.24628600      -0.16335800 
I      19.49943950       9.41356866       0.27127870       53      -0.33643300       0.27245800      -0.49365500 
I      19.05095382       9.81634635       5.23595174       53      -0.03482200      -0.41110600       0.21640100 
I      21.02154289       9.38281244      13.82761848       53      -0.11989500      -0.19852100      -0.23311300 
I      19.28515099       9.99763704      19.16395259       53       0.06736800      -0.10274900      -0.09188100 
I      19.85825754      15.87101685       0.05298658       53      -0.41085400      -0.02501100      -0.16604400 
I      18.85823247      15.64683115       7.27460126       53      -0.25664400      -0.03483600      -0.28565900 
I      19.36717671      15.02875502      12.08163120       53      -0.52744800       0.40285700      -0.22177600 
I      19.64496726      15.98357902      18.79505665       53      -0.15920100       0.32336100      -0.04695000 
I      18.38611092      21.92575768       1.17988681       53       0.23109000       0.19530300      -0.68231300 
I      19.43825914      22.28693257       5.01818413       53      -0.10327200       0.42498400       0.29065400 
I      18.02703892      22.11213908      13.16072738       53       0.17621500      -0.63412400      -0.28891700 
I      18.94645748      22.21465364      18.01168670       53      -0.08179300      -0.18619500      -0.02151100 
H       1.82847889       2.56758153       3.02853028        1       1.64735700      -1.68501600       1.03195400 
H       4.50425369       4.27813504       9.06489004        1      -1.80568900      -1.42739900       1.14425400 
H       1.69717818       2.75449428      16.83293777        1       0.62374900       0.45115000       0.68172800 
H       2.14688672       2.21111057      20.66286843        1       0.27943300       0.23960200       1.68177300 
H       2.76112529       7.68797939       3.03974020        1      -0.74807900      -1.86447800       2.52419500 
H       4.12680551       8.47738260       8.98410673        1      -1.47146300       1.64320300       0.28046600 
H       3.20985223      10.93524620      14.77311278        1      -0.43645600       0.95933100       1.08210300 
H       3.77579837       8.48703952      21.64698747        1      -1.18722100       1.21119300       1.99265300 
H       4.75718844      16.50260506       3.18743141        1       1.04867400      -0.66830500       0.97919200 
H       3.30682287      15.25725884       8.10908149        1       0.48226200      -1.06008600      -0.99965900 
H       4.93619651      16.49027483      15.90613906        1       2.24141800      -2.88608200       1.49560100 
H       2.77212521      16.08928944      21.55073668        1       1.17170600      -0.03574800      -1.45916400 
H       2.45077255      21.61194536       4.34766057        1       0.68389200       2.04485500      -2.41722400 
H       3.15274190      19.95057993       8.83405379        1       0.34793800       2.45996400       1.38034100 
H       3.96843182      20.61024031      16.96243936        1       0.39869500      -0.33997200      -0.53362800 
H       3.62066547      20.38265071      23.30414710        1      -0.45878400       0.35935400       0.54045600 
H      10.81246451       4.14100716       3.06208483        1       0.79892400      -0.21228200      -0.27069500 
H      10.86381214       3.68436969       8.12281235        1      -0.94837100       0.09943800       0.24492300 
H      10.87280488       2.86634343      15.37713769        1      -1.23924200       0.58315500       0.13076400 
H       9.39554801       2.79407036      22.74405742        1       0.66212900       1.00591500      -2.43179600 
H      10.34431922       9.30639413       2.95656390        1      -1.91099000      -0.89852800       0.33402800 
H       8.19710041       9.99590921      11.09839512        1      -0.42277600       0.23104300      -0.24413700 
H      10.29414856       8.86563535      15.41728125        1      -0.87009200       0.77533600       0.71513900 
H      10.02520717       9.24209605      22.16660736        1       0.51221200      -0.22310300      -0.29616700 
H       9.48903270      14.59877054       3.09317607        1       1.18228100      -3.36744900       0.65197700 
H      10.61428617      15.96896716       9.05813205        1       0.99344000       0.51165300       0.17696900 
H      10.75965667      15.95096018      14.85236262        1       1.47879500       1.07411900      -0.64299700 
H      10.34294008      16.67369284      21.77235651        1      -0.64200500       0.62750400      -0.73015100 
H      11.49417943      21.77027999       3.83691720        1      -0.80232300       0.34040300       0.26263200 
H       9.10053968      20.83481377      10.03982002        1      -0.47409800       0.39439400      -0.25115300 
H       9.61900898      20.56432623      14.73363534        1      -0.69320800       1.82382400       0.50343900 
H      10.04340657      22.56752731      20.74955509        1      -0.15288100      -1.41305500       0.36270300 
H      16.64009335       2.97903551       2.19285160        1      -0.64347300      -0.63057400       0.50253300 
H      16.57576305       4.15273377       8.71717252        1       1.53133100       1.97533200      -0.64432100 
H      16.20884010       3.88000756      15.18646844        1       0.38818000       0.92690200      -0.39825300 
H      16.26681874       2.43708271      21.14346799        1      -1.55625200       0.80903000       1.25286900 
H      16.75940570       9.99712816       3.03120456        1      -0.65245300      -0.47374500      -0.27670600 
H      15.54119985      10.37299599       9.26332428        1       0.85118800      -2.60640800       0.19753100 
H      16.70737339       8.44639880      16.11027544        1      -0.88490700       0.56078800      -0.39565500 
H      17.13061257       9.71534768      21.11481857        1      -0.86877500       0.30269100       0.08927800 
H      14.62779111      15.24313045       3.04016019        1       1.45357100      -0.75730900       0.05493900 
H      16.42238141      15.73059739       8.37795255        1      -0.02310400      -0.58880600       0.70342100 
H      17.56097798      16.48813384      15.55624246        1      -2.07958300      -2.30695300      -0.18782800 
H      16.66370871      15.15211395      21.73787895        1       0.46178100       0.17592900      -0.12548100 
H      16.24615702      20.75809170       4.63140428        1      -0.80378400       0.58763600      -1.93708900 
H      17.24012637      21.96687700       8.44518570        1      -2.67548600       0.96405100       0.38903100 
H      15.05776680      22.39186551      14.73358357        1       0.23891800      -0.84582100       0.94455400 
H      14.46443707      22.42556559      21.84467647        1      -0.88331000       0.42030000      -0.33403300 
H      23.30765454       2.76400176       2.18975243        1       0.00295000       2.47610300       0.95118000 
H      23.25207963       3.61853522       9.37567841        1       1.34547000       0.45562900       0.62265000 
H      22.74566414       3.30843545      14.93613082        1      -1.21646900      -0.96673200       1.54540800 
H      22.94797697       2.11208880      22.75846418        1      -0.69033000       0.50110000      -0.51145100 
H      20.91280950       8.54864280       2.77160169        1      -0.34097100       0.51228500      -0.01844700 
H      22.83406106       9.96488243       8.07925805        1       0.81268200       1.10620300       0.40485400 
H      24.37378171      10.13516636      17.22660160        1      -1.14434400       0.46296400      -0.69149300 
H      23.77710962       9.43304757      21.12026676        1      -1.08428100      -0.27229300       0.30608200 
H      21.77336352      16.34470996       2.29217420        1      -0.27791800       0.32721000       1.60822600 
H      21.08778661      16.13353820       8.46896808        1      -0.54198400       1.44304600      -1.41634700 
H      20.59598104      16.47237139      15.71736955        1      -1.30888000       0.31468900       0.62447400 
H      21.90856041      15.93533251      21.44353577        1      -0.90500800      -0.37022100      -0.53292900 
H      23.32273328      21.26118045       3.04571387        1      -0.76597700       1.16041400       1.13917300 
H      22.25125070      22.72565292       7.70645812        1       0.10358500       0.99093800       0.40596200 
H      21.78493483      23.67363982      15.70910349        1      -0.05943100      -0.26038700       0.02740200 
H      21.75127186      21.76124720      20.14769657        1       0.34157600      -0.07479400      -0.20721600 
H       3.73219035       2.09942746       2.41998897        1      -2.12297200       0.05806100       0.65784800 
H       3.39774170       4.45123488      10.61006963        1       0.38633600      -0.54624600      -2.22159600 
H       1.46248385       2.44552751      15.23728668        1      -1.14923400      -0.86134800      -1.37253600 
H       1.33970900       2.01062129      22.26212658        1      -0.27422700       0.38234100       0.05988500 