768
Lattice="26.5702763654 0.167650752586 -0.160223233062 0.165954470495 26.3553431605 -0.207283003421 -0.196018582059 -0.237026945588 26.4225058747" Properties=species:S:1:pos:R:3:Z:I:1:forces:R:3 energy=-99797.5509147 stress="-663.110311 664.212624 -1875.267109 664.212624 1225.772709 -1255.45777 -1875.267109 -1255.45777 1079.452458" pbc="T T T"
I      -0.49912972      -0.50015283       3.13876015       53       0.16274400      -0.11492300       0.20345500 
I      -0.28445101      -0.11294283      10.06132021       53       0.18072400      -0.13744700       0.29237000 
I      -1.63159145      -0.53196658      16.72961650       53       0.17585000      -0.32804100      -0.10777500 
I       0.42448100      -0.65685215      22.97330455       53      -0.10634200       0.57153500      -0.00850400 
I       0.32956103       6.66345989       3.32527627       53       0.06903700      -0.07088200      -0.00964700 
I      -0.65025789       6.58145958       9.95253650       53      -0.02339500      -0.29633400       0.21037000 
I      -0.39344714       6.49564392      16.81305757       53       0.06179000      -0.06420300      -0.63126700 
I      -0.50173726       5.68202268      23.14097582       53      -0.17824400      -0.12490400       0.48495400 
I       0.14493412      12.00193567       2.99628375       53       0.37602500       0.12889400      -0.18314900 
I      -0.31838589      13.00556206       9.53344604       53       0.03134400       0.30057200      -0.40016800 
I      -0.26587298      11.59887832      15.81121469       53      -0.15647900       0.02533500       0.59391800 
I      -0.48739839      13.51752113      22.93965290       53       0.10953700      -0.56326600      -0.28213800 
I       0.26519467      20.52373980       3.13600690       53       0.04586700       0.25158900      -0.16627000 
I      -0.45271645      19.01420165       9.43193490       53       0.22420000       0.19095400       0.66108900 
I       0.12102916      19.15120541      16.10943914       53       0.24550100       0.15393900       0.16162700 
I       0.68628823      19.40590633      22.92083268       53      -0.30351000       0.01139100      -0.16173500 
I       7.22226836       1.17481337       3.25516328       53      -0.35817800      -0.57005800      -0.35409400 
I       6.60455590      -0.40047753       9.84502731       53      -0.24870500       0.05368300      -1.46021300 
I       7.56732580      -0.05966028      16.19703215       53      -0.40605900      -0.25399300       0.03133300 
I       5.52419148      -0.82786365      22.97589464       53       0.30056500       0.14446800      -0.11827200 
I       6.25789249       6.43675122       2.85088579       53       0.14672100      -0.07478900       0.33785500 
I       7.02508404       7.01713830      10.23552006       53       0.19092300      -0.08800300      -0.59059200 
I       6.40169370       5.78812086      16.47997159       53       0.25716600      -0.22248900       0.41146200 
I       6.97204880       7.58729124      22.94034455       53      -0.09835800       0.03883900      -0.48930300 
I       6.35797518      14.22694058       3.01465860       53       0.05795300      -0.19298500       0.00504600 
I       6.36478699      12.48298095      10.09607295       53       0.21878300      -0.04925700      -0.34128200 
I       6.46705957      13.51091969      16.60494643       53       0.12065200      -0.02520000      -0.19455100 
I       6.82368928      12.48304971      22.90457177       53      -0.66262600       0.48476200       0.10667400 
I       6.72824288      19.61464035       2.95467404       53       0.10813500      -0.02695100      -0.20232800 
I       7.74292537      19.66611785       9.49177579       53      -0.43081200      -0.02675900       0.26864700 
I       5.88373145      19.59207662      16.17813087       53       0.27997200      -0.02228900       0.23412000 
I       5.68803406      20.13855755      22.78831436       53       0.21202000       0.01556300      -0.09690700 
I      13.08856187      -0.44621968       3.32169079       53       0.48242200       0.41908000      -0.41038700 
I      13.49088037       1.05023566       9.83603178       53       0.18916400      -0.23892200       0.10626500 
I      13.40028167       0.04532962      16.54192335       53      -0.11082700      -0.27055400       0.02600300 
I      13.38936204       0.56655104      23.07405939       53       0.24442100      -0.27292400       0.33611000 
I      14.49743754       7.08099259       3.72646187       53       0.04385300      -0.38797700      -0.69497400 
I      11.49145328       6.96707078       9.68703294       53       0.33480600      -0.36369500      -0.13472300 
I      13.38256050       6.79513571      16.28558259       53       0.08048900      -0.01332400       0.24788300 
I      13.02466242       6.88886017      23.16642621       53       0.21129300       0.31888500      -0.03322200 
I      13.56577230      13.43159157       3.41854305       53      -0.00066400       0.10974000       0.06551400 
I      12.68263941      14.68135639      10.07245430       53       0.58166400      -0.28281700       0.03464900 
I      13.84249307      13.47047676      16.73253394       53       0.00112900      -0.02729600      -0.15649000 
I      12.90153369      12.70159405      23.24691290       53      -0.02704100       0.04912700       0.32455000 
I      14.12143039      20.09210323       3.02898002       53      -0.03516600      -0.09010700       0.10655200 
I      13.11155557      19.78206535       9.50954417       53      -0.04578300      -0.23504100       0.72225700 
I      12.40134494      19.83183424      16.61402714       53       0.32145300       0.27368800       0.21920200 
I      14.33541233      19.46361378      23.06729479       53      -0.18499900      -0.01155900      -0.28400300 
I      19.77262240      -0.30369093       3.10652464       53       0.11036200      -0.16895000       0.19097300 
I      20.22275389       0.46572436       9.86939199       53       0.16156700      -0.19312600      -0.31230600 
I      20.15186716      -0.15461514      16.85766271       53      -0.06584900       0.03761400      -0.69579100 
I      20.28259170      -0.35580671      23.05296003       53      -0.24784800      -0.23746800       0.52673400 
I      19.31996650       7.35463994       3.69508424       53      -0.10312300      -0.20104400      -0.19033600 
I      20.41037316       6.83385363       9.84847015       53       0.26867000       0.06647600       0.29811700 
I      19.18597663       6.28774110      16.47498229       53       0.04657300       0.05184800      -0.37869000 
I      19.39868199       7.18668236      23.08663425       53      -0.10680400      -0.13440600      -0.11992500 
I      19.51985482      12.82288592       3.17384128       53       0.15029000       0.00062000       0.16429600 
I      20.21083169      13.85646456       9.60253798       53       0.35401700       0.08712800      -0.23889900 
I      18.99962470      12.87915569      15.92267263       53      -0.18037300       0.16733100       0.24785100 
I      19.70444890      12.32905336      23.11180962       53      -0.00536300       0.02477900      -0.59100700 
I      19.88270013      19.79781111       3.36297725       53      -0.11110000       0.36164800      -0.66111200 
I      20.76192531      18.99101810       9.76701372       53       0.15863700       0.02160700      -0.15403700 
I      19.68043311      20.60855801      15.66954178       53      -0.21121000      -0.37464400       0.57519900 
I      19.52677848      19.22716150      22.96858821       53      -0.02118700      -0.07791900      -0.28221200 
I       3.39322607      -0.85183633       0.31418880       53      -0.21087200       0.39541800      -0.16016600 
I       3.53735258       0.54463175       6.50296779       53       0.46255000      -0.68588000      -0.23216800 
I       3.68092701       0.49844423      13.85862058       53      -0.24588100      -0.37343500       0.05471500 
I       3.28387488      -0.49859405      19.11595497       53       0.20708200       0.07167300      -0.31450100 
I       3.45041838       6.98614138      -0.54341572       53      -0.10477300      -0.23091400      -0.21995900 
I       3.47536799       5.74205752       6.91012578       53      -0.01376700       0.49565800       0.01887800 
I       2.99883176       6.87165722      13.59999554       53       0.02823600      -0.36781800      -0.40702200 
I       3.31127194       6.55363665      19.94605878       53      -0.04699100      -0.27474300       0.51786900 
I       3.27841250      12.77592364      -0.61559031       53      -0.18628400      -0.22308100      -0.08168900 
I       3.03772106      12.35714309       6.69716285       53       0.18542100       0.08436700       0.08257500 
I       3.12116213      12.04169209      12.78008584       53      -0.23631700       0.18714200      -0.00811000 
I       3.07150816      12.37417877      19.64238426       53      -0.35558500       0.19824100      -0.08095600 
I       3.55115886      20.38717524       0.05541496       53      -0.19397700      -0.24917400      -0.07264900 
I       3.62644895      19.52902377       6.07436975       53      -0.47488800      -0.01120900       0.22575900 
I       3.38359944      19.90684418      12.57947303       53       0.16220800       0.27661100      -0.13611700 
I       2.77710317      19.82648988      19.73063403       53       0.85801100       0.45493000      -0.06275100 
I      10.54885713       0.65944531      -0.85985494       53      -0.13195500       0.02403300       0.11542900 
I      10.34270293       0.02535598       6.38333629       53      -0.34991100      -0.18968400       0.00051200 
I       9.86586295       0.14788029      12.00945863       53       0.43802100      -0.19894800       0.31313000 
I       9.99251354      -0.75469776      20.67029222       53      -0.08180400       0.07250800      -0.09516900 
I      10.00669130       6.48287409      -0.37122718       53      -0.22316900      -0.01504500       0.22599900 
I      10.03463532       6.47392576       5.26254227       53       0.15436000      -0.11463300      -0.10444000 
I      10.14560069       6.00946259      13.75813459       53      -0.33405200       0.37486000      -0.15604300 
I       9.82569503       5.92607796      19.40010223       53       0.21583700       0.64840200       0.34889000 
I      10.03072556      13.30280548      -0.14832873       53       0.15382400      -0.01547200       0.05853200 
I       9.86903078      13.72375743       6.05219186       53       0.04173800      -0.07026100       0.08944900 
I       9.66979511      12.85087201      13.16868323       53       0.16620300       0.00388700       0.12302200 
I       9.53052655      13.27905548      19.55036224       53       0.24634000       0.06509200      -0.07559900 
I      10.19056089      20.24312364      -0.09578298       53       0.08594900      -0.24839000      -0.13614400 
I      10.13797615      18.96652411       6.30307229       53       0.01838900       0.02281500      -0.28488000 
I      10.09663633      19.13343396      13.45997376       53      -0.64802100       0.12962100      -0.14721200 
I       9.78679855      20.44275337      20.22814033       53      -0.14760800      -0.20088800      -0.01262900 
I      16.99480193      -1.00002140       0.50072031       53      -0.58903000       0.12551000      -0.34756600 
I      16.79622610       0.65016450       7.06367574       53       0.25325400      -0.13176100      -0.15962700 
I      16.96951265      -0.67327417      13.73916558       53      -0.10275800       0.14836100      -0.18958400 
I      16.66876379      -0.61463083      19.84809926       53       0.47688700       0.44686000      -0.20379800 
I      16.28389862       7.33655242      -0.08260165       53      -0.09516500       0.00492100      -0.10928400 
I      16.99041294       6.87094197       7.26556717       53      -0.44611400      -0.10863200      -0.17098200 
I      16.59962054       6.63581860      12.03911124       53      -0.56822900       0.01515900      -0.14156700 
I      16.31979146       5.99822177      19.26712521       53      -0.10565800      -0.03063800       0.31175700 
I      16.73897119      12.86805135      -0.10421103       53      -0.67206800      -0.03482200      -0.06382100 
I      16.58844642      13.55088340       7.42200994       53       0.46896100      -0.31138600      -0.47664400 
I      16.57752885      14.00635413      11.84099821       53      -0.27184900      -0.43514000       0.34055500 
I      16.20816112      13.73272935      20.50628852       53       0.06292000      -0.30361400      -0.14327000 
I      16.83350428      20.11416413      -0.20766269       53       1.54270600      -0.07791200       0.32829400 
I      16.79544209      20.78543621       6.88884375       53       0.89522100      -0.00970800       0.08053000 
I      16.59901099      21.01361437      12.66555858       53      -0.17330600      -0.39873900       0.03799500 
I      16.38235687      19.74808121      19.26144938       53       0.25340800      -0.24299300      -0.00817100 
I      23.01467823       0.61885461       0.03831360       53       0.21350200       0.09153300       0.35915900 
I      23.39645664      -0.30570739       6.38705724       53      -0.03304100       0.52919900       0.45462500 
I      23.22280989       0.24489367      13.16209308       53       0.06161900       0.48165100      -0.03043300 
I      23.69078159       0.68999276      20.64691267       53      -0.56025700      -0.20826600      -0.11917600 
I      22.78745340       6.57420138       0.27638623       53       0.13240000      -0.30685600       0.23341500 
I      23.44412288       7.13382054       6.22113971       53      -0.20420500      -0.32560500      -0.08222200 
I      22.78817993       6.26610196      14.08306959       53       0.31052100       0.27853000      -0.23376800 
I      22.92882666       7.02025482      19.59702591       53      -0.03842200      -0.11208600       0.17329100 
I      23.06010432      13.37525920       0.09135500       53       0.81742100      -0.06802500       0.12079100 
I      23.45604919      13.02342484       5.25660785       53      -0.43397700       0.38366100       0.24736600 
I      23.25438249      14.13921827      13.00375700       53      -0.41259900       0.08938400       0.13254600 
I      22.70218469      12.93961435      19.81663235       53       0.02001700      -0.08179700      -0.24139200 
I      23.59529928      19.25135892       0.37093472       53      -0.42926500      -0.37348700      -0.08063000 
I      23.52250384      19.95583729       6.36229337       53      -0.43352500       0.13713000      -0.19586700 
I      23.50468210      18.99645482      13.65364546       53       0.78500700      -0.72546500       0.08962400 
I      23.23811029      19.12817887      20.20349755       53      -1.09820800      -0.14142700       0.25758200 
I       0.30814765       3.14175866       0.51972113       53      -0.16262900      -0.34988300      -0.35653300 
I       0.74995884       2.75206736       6.97892628       53      -0.79581100       0.79102900      -0.04639000 
I      -0.13709305       3.01588181      13.18667532       53       0.10650400      -0.10589700       0.19400900 
I       0.37922320       2.82510497      18.56778802       53      -0.05264700      -0.00320300       0.24320300 
I       0.24229435       9.54489826      -0.57847837       53       0.06216000       0.21379000       0.07517500 
I       0.31372188       9.62033201       6.56347468       53       0.08291000       0.10401300       0.08645500 
I      -1.40923176       9.99561365      12.01134680       53       0.39556900       0.14240400       0.79042900 
I      -0.13402168       9.21129816      19.76022405       53      -0.11945200       0.49118500       0.43847200 
I       0.74954221      16.00629637      -0.06193328       53      -0.26625300       0.51867900       0.06974600 
I      -0.08397571      16.79535282       4.94949254       53      -0.18177100      -0.70413200       0.02559200 
I       1.12627487      16.25591767      12.84462255       53      -0.43495500      -0.15869100       0.00470400 
I      -0.42204278      15.64784312      18.29214988       53       0.14681900       0.02028300       0.10098600 
I      -1.01483334      22.56942214      -0.18228516       53       0.10501900       0.84946800      -0.26944400 
I       0.39621271      22.82662694       7.30874694       53       0.14677600       0.40614100       0.03292200 
I      -0.10221100      22.65591919      12.30769642       53       0.03051800       0.17609000       0.20809200 
I      -0.76442393      22.23862251      19.07603231       53       0.23367100       0.66439200      -0.23677600 
I       6.49109998       3.39157391      -1.36934604       53      -0.03042900       0.64574300       0.07243700 
I       6.33204659       3.28480358       6.42586546       53       0.30593200       0.02719600       0.23069600 
I       6.76794902       3.26733690      12.41682698       53      -0.09344100       0.00439200       0.04670500 
I       7.33841597       3.11859667      20.64610916       53      -0.37126000      -0.06189800      -0.13073900 
I       6.78748653      10.11855562       0.36602956       53       0.01874300      -0.09841700      -0.05930300 
I       7.24470382       9.76221426       6.05179062       53      -0.27187700      -0.07663200       0.26902500 
I       6.81395695       9.57372889      13.38525833       53       0.11965600       0.60669000       0.24699800 
I       6.57699876       9.46483744      18.63870759       53       0.02363800       0.15141700       0.26946300 
I       6.88536088      16.82820404      -1.10468396       53      -0.12208700       0.12631500      -0.06901500 
I       6.48375455      15.98559823       7.25240841       53      -0.13968000       0.11457000       0.05545800 
I       6.15276097      16.19992086      13.38383296       53      -0.10685800      -1.00019800      -0.17392100 
I       6.13543488      16.53582474      19.84532138       53      -0.24540200      -0.04920700      -0.00503100 
I       7.67683092      23.95440722       0.25739772       53      -0.01300800      -0.84137500       0.48138300 
I       5.98637345      23.34888685       6.38267543       53       0.05067800      -0.48293400      -0.06698800 
I       7.30463092      22.65423112      12.82675976       53       0.17492800      -0.00030500       0.34592600 
I       6.80436726      23.10148416      18.60370959       53      -0.24734500      -0.19197900       0.05302600 
I      13.78433820       3.40488762      -0.02159091       53       0.01655700       0.05259600       0.06921600 
I      13.07390181       3.42586488       6.82921836       53       0.42538400       0.27585400      -0.25182200 
I      13.24882307       3.28231919      13.67211062       53       0.26044000       0.23390400      -0.20774600 
I      12.76231131       3.12871792      19.86319340       53       0.19890300       0.26564100      -0.39565800 
I      12.66319938       9.88440712       0.41502779       53       0.01247200       0.84723000      -0.11730600 
I      13.50741117       9.95866179       6.08311899       53      -0.17985100       0.54847500       0.46267800 
I      13.10822048       9.76363347      12.03120962       53       0.12000000       0.63007500       0.47118000 
I      12.98675826      10.00255373      19.83072904       53       0.20551600      -0.17098500      -0.19457700 
I      13.57759599      16.52385327      -0.04580577       53       0.13613800      -0.08346500       0.16576400 
I      14.57734135      16.67406608       6.17824214       53      -0.15840400      -0.41027900      -0.05677400 
I      13.49508362      16.86166688      14.04170001       53       0.24466400      -0.42091700      -0.07902500 
I      13.15169579      16.71466397      20.38283859       53      -0.13726600      -0.61624900      -0.01323900 
I      13.80911746      23.17646537      -0.01438402       53      -0.45620900      -0.75074800      -0.16872300 
I      13.47452300      22.87044602       6.75526231       53      -0.17919900       1.03634800      -0.08584400 
I      13.15603962      23.30193073      12.40844408       53      -0.46816900      -0.24771600       0.17909300 
I      14.20815628      22.96479543      20.46012050       53      -0.62589400       0.07642600      -0.12352100 
I      19.51146679       3.70275291      -0.63783696       53      -0.08206500      -0.29405900       0.18839300 
I      20.34944759       3.25474049       6.01548834       53      -0.32437800       0.24843200       0.12512600 
I      19.01592563       3.19673750      12.67773425       53       0.32184100       0.14288000       0.87450100 
I      19.67038369       3.10313720      19.92874911       53      -0.02270400       0.04709100       0.00036600 
I      20.52089830       9.83023794      -0.22223963       53      -0.03529900       0.40324000       0.14827000 
I      19.94864887      10.03704480       6.36045752       53      -0.17683400       0.30331800       0.67484600 
I      20.24271727       9.87398109      12.69036042       53      -0.09120400      -0.00030400       0.01382900 
I      19.24932810       9.77225958      18.98539974       53      -0.11520500      -0.58575300      -0.01093400 
I      20.29551341      16.26704561      -0.30306804       53      -0.25360600       0.65196600      -0.19795600 
I      19.31511778      16.89954538       5.82880803       53       0.22102400      -0.24280800       0.27721200 
I      19.03806145      16.72782478      13.02095790       53       0.44127300       0.35110500       0.00353300 
I      19.29803900      16.13668433      19.61213236       53       0.05829200      -0.35361800      -0.08159400 
I      20.62493283      23.05667379      -0.97807133       53      -0.16550500      -0.49277300       0.37860200 
I      20.17649557      23.33174342       6.55476853       53       0.06206000      -0.69272900      -0.00396000 
I      21.45186163      23.25761087      12.27927523       53      -0.19018200      -0.73464700       0.28398900 
I      19.91552981      22.41281723      19.75937642       53       0.26702200       0.55598400       0.00778400 
H       3.88665637       4.72001626       2.66328192        1      -0.81149600      -0.16060100      -0.99444100 
H       3.04749443       2.48456993       9.58811189        1      -0.81471100       1.70724800       0.66377000 
H       4.08087605       4.01109759      15.57817242        1      -0.19601100      -0.41730200      -0.30266600 
H       4.22660956       2.70721696      22.58224431        1      -0.15195400       1.08123000       0.13798400 
H       4.42207914       9.71350952       3.72941728        1       2.70981800       0.08007000       0.88397100 
H       3.37559418       9.31903927      11.09497684        1       0.90563500      -0.07416000       2.30770900 
H       3.57943023       9.85663447      17.09317295        1      -1.99139800      -0.60444200      -0.14826600 
H       1.98508720      10.66849478      22.56075499        1       0.62774700       1.11440900       0.05929500 
H       4.52116028      16.54010084       2.49920024        1      -1.55830000      -0.35042900       0.28294100 
H       1.90363282      16.62940450       9.58969016        1       0.48746200      -0.09323900       0.02718300 
H       2.63191148      16.47496382      15.45801551        1       2.95946400      -0.08485900       1.70925500 
H       1.51268444      15.88766129      22.66746068        1       0.17201600      -0.13110400       0.04543100 
H       4.51092615      22.05738713       3.27723650        1      -0.95359800      -0.11083300       0.36841200 
H       4.25047963      24.27551455      11.88237600        1       1.46794600       1.56108300       2.21265100 
H       3.80880800      21.46362375      16.03074520        1      -0.59907700       1.83236900       0.62224000 
H       1.40028856      22.88630775      23.21288156        1       0.70826500       0.23752000       0.65047800 
H      11.65514296       2.71232838       2.42298247        1      -0.24392900      -0.25134200       0.62139200 
H       8.46637378       3.17406396       9.29310452        1      -0.96455300       0.55400200      -0.52320700 
H       9.32202341       1.93355327      15.86711811        1       1.15750000       1.71731700       0.65814500 
H       9.67776445       4.54227812      22.50884445        1       0.22339000      -1.05553100       0.83994700 
H       9.23658334      10.76808286       4.12103986        1       1.45525500      -2.22217600      -1.49974600 
H      10.77784803      11.98292151       9.54393262        1       0.34912700      -1.82210800      -0.44086700 
H      11.17263947       9.05621509      16.26378747        1       0.17499800       0.10959900       0.20471600 
H      10.45741387      11.20482675      22.36556659        1      -0.69419600      -0.59366800      -2.09624400 
H       9.53772831      15.77714128       3.38549788        1      -0.19142800      -0.67208100       0.16800900 
H       8.48505854      16.27796626      10.58760173        1       0.30851600      -1.01266400      -0.20664700 
H      10.57212072      16.42971013      17.63742706        1      -0.43751200       0.26624100       1.92141200 
H       9.83729911      18.04643936      22.18439484        1       0.05697000       0.58429600       0.19186200 
H      10.00981090      22.43128855       4.65121062        1      -2.51527500       0.30250500       3.65865200 
H       9.04819854      22.62374422       8.52753332        1       2.60727900       0.33845300       0.52561200 
H       9.64199476      23.97108682      17.55286540        1      -0.17367500       0.31818800      -0.47751700 
H       8.71868779      23.46637363      22.37787054        1       0.48150200      -0.12334400       1.30033300 
H      16.72375288       2.45947973       3.94930490        1       2.94534300      -1.86788700      -1.19958700 
H      17.78462084       2.46616429      10.18620269        1      -0.06738900       0.59184300      -0.56458300 
H      16.16070729       1.83760712      17.90370949        1      -0.05282100      -0.66410300       1.40068000 
H      16.76359550       2.37317458      23.78641988        1      -1.22323500       1.27763600      -1.46206700 
H      15.22466435      10.86661089       3.12549467        1      -0.99686000       0.24600800       0.77730400 
H      16.42370388      11.34747453       9.22611318        1       0.19272400       1.21475300      -2.31218400 
H      16.64335753       8.38950029      15.20665688        1      -0.24915200       1.72295700      -0.97329700 
H      16.14975688      11.27236710      22.23927105        1      -0.39458800      -2.44026500       0.64328800 
H      16.99292196      15.26106515       1.95328576        1      -0.46531800      -0.33519500       0.67282700 
H      18.18136613      16.51453552       8.96251218        1      -0.83887000      -0.45276100       0.01205200 
H      16.61236267      17.22896993      15.08799717        1       1.67905200       0.33987700       1.73933800 
H      16.86866853      16.91532501      24.42086530        1       0.45199400      -0.86078700      -0.09286400 
H      15.68532141      24.31023651       3.12163622        1      -0.41400700      -0.57052100      -0.48307600 
H      17.07396792      24.65840534      10.26380888        1      -0.03689200       0.29598700      -0.71357400 
H      15.44150010      23.36301125      16.55124212        1       1.53081600      -0.54450400       0.84908200 
H      15.54785381      22.62655493      22.98520726        1       0.34536700      -0.30357800      -0.49269000 
H      22.73980460       3.40606568       4.56689319        1      -0.05332300       0.09079100      -1.52733500 
H      23.80994412       3.94529662      11.81201160        1      -0.26481900       0.41338200       1.15043900 
H      22.12946219       2.58705903      16.58760187        1      -1.93574700      -1.10350900      -1.17960800 
H      21.27931700       2.27421966      22.52643222        1      -0.92344900      -2.09788500       0.01696300 
H      23.59120070       9.18046441       2.65190462        1       1.04491200      -0.08735400       1.19707700 
H      24.53740901      10.84154737       8.30560359        1      -0.84270600      -0.63427300      -0.25795800 
H      22.44812822      10.70911217      15.63571466        1      -0.31071900      -0.60998600      -0.06787600 
H      22.62288325      11.16051100      23.44237324        1      -0.76256100       0.05009700       1.65702100 
H      21.99403977      15.80135819       4.01775753        1      -0.81496800       0.33377800       0.49588300 
H      23.20268334      15.40387815       9.05783030        1      -0.86681100      -0.80993300       0.08217000 
H      21.48990945      16.37224691      17.78174239        1      -0.46850100       0.63945600       0.63859700 
H      23.66110845      15.50807687      24.17732927        1      -0.13528500      -3.16138300       4.89397200 
H      22.51277781      21.95909718       2.92875776        1      -0.86754400      -1.32420100       0.68591700 
H      24.69952556      23.69727426       8.95240221        1      -0.73112000       0.67830900       0.31110600 
H      23.02510118      23.68874872      16.65400316        1      -1.04801600      -0.00560400      -1.17422600 
H      23.53351684      23.72667032      23.25740153        1       1.84048500       3.84885500       1.71369300 
H       2.69037523       3.34199486       1.81371448        1      -0.54930300       0.08671300      -0.79699200 
H       2.28894232       4.40863921       9.95993426        1       0.81610100      -1.79047800      -0.63564500 
H       2.89656842       4.31043135      16.81353987        1      -0.77281400      -0.02249300       0.28646000 
H       3.77567149       4.51089946      22.12698806        1       0.14773600      -0.56058400      -0.39930000 