768
Lattice="26.3360434905 0.038384678165 0.183216553149 0.0128084058364 25.7285269575 0.190815653241 0.14454404564 0.148820946465 26.1980009422" Properties=species:S:1:pos:R:3:Z:I:1:forces:R:3 energy=-99800.9250851 stress="-630.818773 2010.467694 -1045.051443 2010.467694 -317.371118 -520.313929 -1045.051443 -520.313929 -5319.097461" pbc="T T T"
I       0.00293708       1.01825914       3.22414371       53      -0.19002900      -0.31823100       0.24195800 
I       0.56531204       0.14396433       9.75014101       53      -0.27737700       0.33490600       0.05956800 
I      -0.04220348      -0.18901469      16.35755043       53      -0.43678200       0.56054600       0.07266800 
I       0.87004629      -0.19061397      22.96722398       53      -0.07519700       0.21243400       0.51310700 
I       1.27624342       6.00189959       3.57796098       53      -0.25758700       0.04401500       0.19939700 
I      -0.16908555       5.50319268      10.07603984       53      -0.08260600      -0.15794900      -0.43982900 
I       0.65494047       7.19991322      16.20805653       53      -0.11495300      -0.17377000       0.48547000 
I       0.00688155       6.57395331      22.87153187       53      -0.06051400      -0.31947500      -0.30676900 
I       1.06474054      12.99029675       3.04696955       53      -0.35996700      -0.25686400       0.41234000 
I      -0.18854646      13.64375044      10.03873148       53      -0.27877900      -0.70309200       0.14563200 
I      -0.28988570      12.05297238      16.28295196       53      -0.15902600      -0.03157300       0.23712000 
I      -0.32702785      12.89095914      22.93397462       53       0.04693900      -0.18831000      -0.13392300 
I      -0.24875651      19.19010739       3.20464429       53       0.26561300      -0.09762100       0.46466100 
I      -0.90034945      18.87692575      10.03121447       53       0.29974200       0.31387700      -0.17374500 
I       1.33955878      19.51870817      16.50532344       53      -0.10921500      -0.06579300      -0.19382900 
I      -0.80595561      19.32477099      22.86604588       53       0.11376800       0.19615800       0.16364800 
I       6.49004093       0.59923029       2.75914223       53       0.36898000       0.25338400       0.25389400 
I       6.31979088      -0.81793904       9.69626625       53       0.12071500       0.25313400      -0.07480300 
I       6.66914780       1.17893683      16.13476241       53      -0.03863100      -0.11563400      -0.07480000 
I       6.40378232      -1.33357619      22.18546529       53       0.13147000       0.68312300       0.54237600 
I       6.17602012       5.58282614       4.23068496       53      -0.65793300      -0.19856600      -1.29871400 
I       7.50833959       6.96878423       9.99937589       53       0.09755900       0.22086300       0.86264100 
I       7.76338477       6.53876618      16.71145587       53      -0.06930100      -0.18607700       0.11633700 
I       6.23381200       7.77126461      22.90786526       53       0.09459000      -0.17605700       0.13129200 
I       7.00832225      13.58000233       3.31563595       53      -0.07182400       0.25643700       0.68465800 
I       6.77741420      12.86560077      10.07669658       53      -0.26732300      -0.06352600      -0.33183500 
I       6.29946547      13.46037477      16.52228510       53      -0.01391600       0.01160800       0.16463900 
I       7.16273256      12.85256433      23.33830897       53       0.11371400      -0.22841800      -0.11386100 
I       6.20663949      18.45225585       3.46166779       53      -0.07904900       0.03948500       0.01862000 
I       6.88660085      20.05369475      10.05570835       53      -0.08211600      -0.10766700       0.13194900 
I       6.51698945      18.86691862      16.75156246       53      -0.23295900      -0.11132700      -0.51801600 
I       6.81165069      20.07816835      23.12792093       53       0.13212800      -0.00219100      -0.02227600 
I      13.28346209       0.17030883       3.17147196       53      -0.39812900      -0.45426700      -0.49701100 
I      13.31813336      -0.16106281      10.32988100       53       0.18538900       0.39256700      -0.46661500 
I      12.30815945      -0.14642710      16.76240268       53       0.02486500       0.26260000      -0.38731300 
I      14.50656046      -0.12438991      22.76195808       53      -0.37390900       0.00093800      -0.44607000 
I      14.20235930       6.17213240       3.56037906       53      -0.08038000       0.24443000       0.08452200 
I      12.83377232       5.42397576       9.63624471       53      -0.19236500      -0.00883900       0.48422600 
I      13.30668607       6.69211334      16.57894998       53       0.15552300       0.21661900      -0.25060600 
I      13.51698290       5.85990445      23.44494975       53       0.28068600       0.11777100      -0.45427500 
I      13.53647726      12.58178178       3.67145281       53       0.37125400       0.13722200       0.33650500 
I      13.21759174      14.37469104      10.03552178       53       0.06119100      -0.01008500       0.30600500 
I      13.20676874      12.72765045      16.40859859       53      -0.21598000      -0.22015200      -0.03505300 
I      12.36082310      12.44460779      23.05346333       53      -0.07549700       0.12148200       0.32000700 
I      12.77720676      20.06421673       3.16863319       53       0.26198700      -0.07225600       0.37666700 
I      13.27770246      18.93436392      10.18220833       53       0.20128800       0.14060500      -0.48430700 
I      13.13222702      19.91657751      16.50459069       53       0.01278700       0.19353700       0.33354900 
I      12.54242923      19.44544648      23.12752972       53       0.46278000       0.21108800      -0.24087300 
I      20.18211528      -0.30709263       3.45357715       53      -0.09868100      -0.00432600       0.43726000 
I      19.09018906      -0.07125601      10.46340949       53       0.06472100      -0.17529900      -0.85218800 
I      21.18846194       0.03511822      16.62722930       53      -0.37693900       0.01546300       0.08797600 
I      20.03557265      -0.10473745      23.16237734       53       0.05416300       0.19702700       0.10258000 
I      19.48635372       6.57120272       3.36511016       53      -0.27126800      -0.19880200       0.08548400 
I      21.27463338       6.59588915       9.75272033       53      -0.48237500       0.87793600       0.34622700 
I      19.76098142       6.49032470      16.45289289       53      -0.05219700      -0.06967100      -0.24712300 
I      19.65060090       7.39728510      22.80680574       53      -0.20994200      -0.07558200      -0.25670100 
I      19.47103187      12.33042264       3.53126168       53       0.07029300       0.08553000      -0.06720200 
I      20.27091773      13.57329104      10.18164686       53      -0.30939100       0.07436600      -0.04085100 
I      19.18885473      12.81810690      16.63488414       53       0.29659200       0.14248200       0.19553400 
I      19.84055610      12.58473203      23.25285812       53      -0.16678300       0.20565500      -0.24172900 
I      19.89107117      19.72291802       3.45130086       53      -0.14533700      -0.01897700       0.14721500 
I      20.71375128      19.45450094      10.24044817       53       0.04935300      -0.19290500       0.44408300 
I      19.71159842      19.66704366      17.11370853       53       0.35850000      -0.54169200      -0.45525400 
I      19.44663124      19.04837576      23.33897686       53      -0.01204900      -0.07961100       0.02139300 
I       2.98806082      -0.38223636       0.37729360       53      -0.22465600       0.11200800      -0.06381100 
I       3.35486891      -0.33455094       5.53143036       53      -0.86590700      -0.04884800       0.13659900 
I       3.31024523       0.19044472      13.07820024       53       0.32459300       0.15872000      -0.24290200 
I       3.67531013       0.02903631      19.19012158       53       0.34110300       0.20447500      -0.13260900 
I       3.08564003       6.31982027      -0.26323108       53      -0.10255700      -0.02448200      -0.03037600 
I       3.33033349       6.55570960       7.97873788       53       0.18847500      -0.07744100      -0.19656600 
I       3.57015918       6.48809402      12.31574841       53       0.49992700       0.08841000       0.05216400 
I       3.74649317       7.06550604      19.33632267       53      -0.26518000      -0.19917200      -0.03836800 
I       3.24550795      12.56013377      -0.48330702       53       0.04555200       0.00815100      -0.18715100 
I       3.39843452      12.85506966       6.56932980       53       0.36228100       0.01304200       0.09629400 
I       3.07546466      12.39268804      13.04444414       53       0.12335700       0.09831300       0.23165900 
I       3.48450968      14.13195462      19.94936168       53      -0.04924900      -0.72087300      -0.08393100 
I       2.67219243      19.16642127      -0.18752994       53       0.10303000       0.13004900       0.09353000 
I       3.12076940      19.54344122       7.22790260       53       0.19738700      -0.17904700       0.23095400 
I       3.08389684      19.91118882      12.05675673       53       0.23736000      -0.11413700      -0.17537800 
I       3.51192441      18.73498636      20.52989421       53      -0.56823900       0.19188300       0.02209000 
I       9.18632691      -0.19026432      -0.64572487       53       0.21049900       0.23846600       0.53024100 
I       9.62449742      -0.21651253       6.03683335       53       0.53403300       0.13593300       0.52011000 
I      10.06839615       0.12770907      13.36385972       53      -0.30704300      -0.02081000       0.04524600 
I      10.23090723       0.21538756      20.36313359       53       0.27672600       0.36848400       0.13582200 
I       9.59934276       6.75125619       0.60759660       53       0.25892800      -0.37356000      -0.05101100 
I       9.80040169       6.70894325       5.71164194       53       0.75511700       0.16464400      -0.03888700 
I      10.11134860       6.09942407      13.55716246       53       0.06610100       0.10109000      -0.13933300 
I      10.23948232       6.45826619      21.30110253       53      -0.18485300       0.11943700      -0.63970000 
I       9.82407059      13.81950776       0.47562887       53      -0.08169400      -0.15526900      -0.19204500 
I       9.97322801      13.39802628       7.64456294       53      -0.05637100       0.10385100      -0.21399500 
I       9.69135491      13.33044719      13.24324605       53       0.41031500       0.13826300       0.19839400 
I       9.86939661      13.75879097      19.07685871       53       0.09319100       0.02152100       0.30157600 
I       9.67650129      18.58422155       0.61301874       53      -0.17071900       0.10094000      -0.00696200 
I       9.88288000      19.11998142       6.66802892       53      -0.03933900      -0.11625900       0.00681000 
I      10.31085284      19.80753377      13.31818404       53      -0.24417800      -0.20224200       0.35077000 
I       9.78618860      19.24616722      19.34547646       53       0.27299500       0.06929900       0.15098700 
I      16.52124527      -0.32909637      -0.12905092       53       0.24032300      -0.16665100       0.43602900 
I      16.15597057      -0.30340051       5.97250147       53       0.20523200       0.62503700       0.77144000 
I      17.05884156      -0.17550698      14.41605637       53       0.22349700      -0.21684000      -0.14304500 
I      17.38870717      -0.15441538      18.72524070       53      -0.44950400       0.31484900       0.08788600 
I      16.72322748       7.03974329      -0.06869696       53      -0.51970900       0.15362800       0.05495700 
I      16.63654524       6.42400436       7.10728386       53      -0.59543000       0.03247800       0.10938000 
I      16.78744079       6.97882887      12.08982569       53      -0.22879900       0.29161800       0.17546000 
I      16.81333834       6.16927235      19.67681567       53      -0.33356600      -0.26095300       0.06938700 
I      15.99861305      12.11467327       0.03765801       53       0.28002100      -0.06200000      -0.12785400 
I      16.73414270      12.81417459       7.18417382       53      -0.69088100       0.11726300      -0.09326100 
I      16.31480676      13.44927916      13.34619470       53      -0.19680000      -0.14241000      -0.18974200 
I      16.25751757      12.67851271      20.40672859       53      -0.32489600       0.13441500      -0.22895900 
I      16.27868722      19.87028259       0.43200955       53       0.51325900       0.25367400       0.01911200 
I      16.58489001      19.73267280       6.89080174       53      -0.22031100      -0.11653300       0.04354200 
I      16.76483706      20.07207427      13.25521529       53       0.30174100      -0.03727400       0.00651400 
I      16.37111186      18.86321535      19.85258818       53      -0.48209000       0.28320900       0.15658900 
I      23.07289890       1.04532422       0.78676226       53      -0.50418600      -0.05340800      -0.31133000 
I      22.93832551      -0.02217299       7.21290101       53       0.07689400       0.16890200      -0.01061000 
I      23.42242811       1.91535733      13.34264244       53      -0.48607800      -0.30465100      -0.53899000 
I      23.63264995       0.35672900      20.17908497       53       0.00000200      -0.24620000       0.01097300 
I      22.65233563       6.05484194       0.51260582       53       1.09346700      -0.15127500       0.24045200 
I      22.96930162       6.68329299       5.76813453       53       0.17932400      -0.25679200       0.16967700 
I      23.39779033       6.49234660      13.67161922       53      -0.39658200       0.08589800       0.14696000 
I      23.31468771       6.62436703      19.32966408       53       0.00378200      -0.21353200       0.02871900 
I      22.87935799      13.27036079       0.13094107       53       0.06154200      -0.21716900      -0.13263500 
I      23.17271994      13.14799582       5.85251109       53       0.44176800      -0.04899500      -0.05124500 
I      22.84534751      12.82729818      13.38244194       53       0.20029200       0.24680200       0.23649300 
I      22.71742054      12.29477842      19.64941310       53       0.23747300       0.49544900       0.09574300 
I      22.78350980      18.58948255      -0.11725093       53      -0.37250800      -0.08914600       0.06046800 
I      23.13854527      19.19937469       6.21857833       53      -0.42619200      -0.02717800      -0.00400700 
I      23.37636224      19.24573244      13.91279082       53      -0.21297400      -0.26915000       0.04575400 
I      23.09819140      19.15867521      19.54144365       53       0.96112800      -0.30482400       0.07903900 
I      -0.06560887       3.49906128       0.15636430       53       0.12713000      -0.06897400      -0.12460400 
I      -0.16095741       3.19049504       6.57153312       53      -0.01814400      -0.14274600       0.03281700 
I       0.62991655       3.16889467      14.11230925       53       0.33870400      -0.08850100       0.10443800 
I       0.30072694       3.29590443      19.80675643       53       0.18325900       0.07648700      -0.09258300 
I      -0.57169597       9.62049315       0.17739105       53       0.02133000       0.05501500      -0.06644200 
I       0.09765117       9.55575384       7.00340787       53      -0.01742700       0.24281900      -0.16982600 
I       0.35713034       9.26707013      12.47865678       53      -0.32344400       0.33173100      -0.23244800 
I      -0.58082847       9.46781590      20.31240063       53       0.08675000       0.77571700      -0.35847600 
I      -0.04192680      16.00979178       0.67064339       53      -0.07615200       0.11446500      -0.31053500 
I       0.12252510      16.22544386       6.30641695       53      -0.00705000      -0.18812500       0.01999100 
I      -0.18364931      16.08068090      13.72613146       53       0.13559300      -0.18809500      -0.08729500 
I       0.14327314      16.02756017      20.04589700       53      -0.31517600       0.04352200      -0.29202900 
I      -0.39716092      22.71883840       0.75116770       53       0.05697600       0.13318600      -0.15730200 
I      -0.37220591      22.59715044       5.98382816       53       0.29918600       0.22515800       0.27250100 
I      -0.31893214      22.61786402      13.76079260       53      -0.03791800       0.10911900      -0.48402100 
I       0.96698599      22.57217313      20.26072816       53      -0.57719400      -0.19501200      -0.34453500 
I       6.88518704       3.42419930      -1.17565720       53      -0.08183900      -0.29838900      -0.03330500 
I       7.83368506       3.12294434       7.28939470       53      -0.10271800       0.00881900      -0.09316900 
I       6.30662269       3.39889363      12.10951666       53       0.31090500      -0.30855700       0.13054800 
I       6.50331148       2.99226171      20.35852731       53       0.13039000       0.20707700      -0.13564400 
I       6.59674960       9.55398025       1.30164436       53       0.10168000       0.48725200      -0.22346800 
I       6.99319804       9.94668183       6.36806311       53      -0.13032500      -0.09711000       0.19216000 
I       7.22000553       9.81922918      14.10839214       53      -0.09111600      -0.04706500      -0.28009700 
I       7.07587296       9.71938786      19.59550489       53       0.00946900       0.39678100      -0.39475600 
I       6.01909739      16.54016599      -0.51013191       53       0.08385200      -0.98724900      -0.04244900 
I       5.86322057      16.38481517       6.91525912       53       0.08541800      -0.56336800       0.33481600 
I       6.00798150      16.57054313      12.48776800       53       0.13166200      -0.61270400      -0.16994100 
I       6.36221632      16.23680805      21.00382651       53       0.80967000      -0.05207800      -0.12170900 
I       5.90537034      22.79197341       0.57611172       53       0.05332300       0.01499800      -0.04570500 
I       6.98371994      22.67283435       4.92447530       53      -0.34541200      -0.33272900       0.29711800 
I       5.84727847      22.72143900      13.63356899       53       0.42418100      -0.14473900      -0.09422500 
I       6.73252093      22.48816649      19.05011085       53      -0.12650900      -0.06669900      -0.13250700 
I      13.47870160       3.36133291       0.45851823       53      -0.01360800       0.04577400       0.06112700 
I      13.48269574       3.06606561       6.28727934       53       0.08683100       0.42982000      -0.02019300 
I      13.63758137       3.49816130      13.32672365       53      -0.15265900      -0.09959000      -0.05294700 
I      13.29968796       3.43407671      19.11432010       53       0.14035700      -0.68154700       0.03568300 
I      12.29501457       9.82753366       0.98516586       53      -0.01804600      -0.29866100      -0.21752300 
I      13.13426615       9.23843516       8.32644485       53       0.39781800       0.92001600      -0.30030300 
I      12.96544005       9.96937475      13.24479972       53      -0.07028700       0.44066100      -0.21622000 
I      13.47238253       9.54613994      19.74908211       53      -0.09263300       0.11843400      -0.13698900 
I      13.68545732      15.99882386       0.13081134       53       0.05999800       0.17964900       0.29578400 
I      13.38596075      16.31998972       6.66030212       53       0.28195200      -0.04326400      -0.27321300 
I      13.24119273      16.37170272      14.70605558       53      -0.10713200      -0.52841200      -0.38284800 
I      13.44669781      16.00254537      19.97432276       53      -0.30349600       0.14224000       0.20368600 
I      12.70125224      22.75781293      -0.71160637       53       0.30437300      -0.14556200       0.29706000 
I      13.08359805      22.63584220       7.42622107       53      -0.06167800      -0.24658800      -0.04593000 
I      13.08937998      22.58495924      12.72168711       53      -0.02623200      -0.12705000       0.70794000 
I      12.55823856      22.79577802      19.58100194       53       0.63944900      -0.37930000       0.28703000 
I      19.11152998       3.27810564       0.04641654       53       0.19814500      -0.18812400      -0.10218700 
I      19.77992242       3.19155616       6.54635210       53      -0.31881200      -0.27727500      -0.00824800 
I      19.00092345       3.09178681      13.07247507       53       0.23403800       0.62660400       0.13830900 
I      20.49058118       3.45619802      19.81776590       53      -0.09096300       0.39995700       0.10700700 
I      20.19789826       9.68411458       0.48594715       53      -0.19733500      -0.03521400      -0.40276400 
I      19.36638158       9.74584181       6.95884196       53       0.54664900      -0.20099000       0.45729700 
I      20.00473031      10.01208497      13.24518788       53      -0.13466100      -0.48218100      -0.00090600 
I      18.62067251       9.61813477      19.65166607       53       0.25274100       0.21543200      -0.05123100 
I      19.08373013      16.22231118       0.94474814       53       0.13351500      -0.27498900      -0.55269100 
I      19.51510827      15.92323724       6.06647978       53       0.17386500       0.69086400      -0.07372400 
I      19.96626962      16.23432198      14.00418271       53       0.05258200      -0.15010400       0.24500800 
I      19.31061059      16.15013899      19.65637877       53       0.09745300      -0.24455100      -0.00078300 
I      20.71494922      22.40003700       0.52339030       53       0.28242300       0.87414000      -0.11846500 
I      20.32464047      22.55816983       7.80119278       53      -0.03022700       0.31320800       0.08868800 
I      21.00808010      22.40884822      13.77169059       53      -0.19960600       0.61668500       0.04465100 
I      20.36824155      22.72173190      20.63142094       53      -0.04873800      -0.22600500      -0.39279400 
H       4.23042652       1.96912568       2.25793912        1      -1.34217200       1.28106400      -0.02482200 
H       4.49154652       3.66344933       9.18372225        1      -0.09777600       1.12207900      -0.73237500 
H       3.28704253       5.17674860      16.31950325        1       0.59084100       1.26348700       1.31666800 
H       4.54774723       2.60098508      23.59728444        1      -0.37904100      -0.46958500      -0.20048700 
H       3.21635915       9.68123527       4.83201316        1       0.16446400      -1.05430900      -2.33897600 
H       3.47988819      10.28995887      11.08539046        1      -0.04242700      -1.49280500      -0.97856000 
H       3.67471015      10.50406032      17.97606349        1      -1.33250600      -0.62966400      -0.23348100 
H       1.20230168       9.60582095      22.37494213        1      -0.92868500      -0.66704300      -0.84158600 
H       2.74472644      16.85014299       1.64816353        1       1.16159000      -2.21505300       1.17392200 
H       3.14343799      16.43975510       9.39813890        1       0.42193000       0.91652400      -0.22993500 
H       2.58466292      14.81767864      16.81573016        1      -0.41608000      -0.09607300      -0.25280900 
H       1.75851973      17.04427071      22.85754174        1       0.23251700      -1.60484400       0.86177700 
H       2.77657314      22.31183555       4.99002539        1      -0.34124900      -1.02330200      -0.01400400 
H       2.77838423      24.24774531       9.37765031        1      -1.31923700      -2.99170100      -0.28663900 
H       1.93255818      24.04569520      16.20979669        1       0.96461800      -0.31465600      -0.51970500 
H       3.64525426      23.11065725      23.85726021        1      -0.81311200      -0.16955400      -0.32029300 
H      10.21214157       1.81993887       4.01021478        1      -0.13818600       1.39689300      -1.42247600 
H       9.58209529       2.41792663       9.40226884        1       0.38777600      -0.21492500       0.35096500 
H       8.90310384       3.13631624      17.52235627        1      -3.02159000      -0.30470400      -1.83826200 
H      10.56267413       2.31466683      22.48062719        1       0.99416600       2.00292500       3.26437900 
H      10.55920396       9.54825305       4.67422694        1       0.00420000       1.42784500       0.01929400 
H      10.82494849      10.93978125       9.76221768        1       0.76671500       2.06835200      -0.11770800 
H      11.46617044      10.18722406      15.98444050        1      -1.89738000      -1.23302100       1.48640700 
H      10.84053485       8.95635329      23.89733640        1       0.11821400      -0.28264400       0.78425300 
H      11.58764659      15.60731413       4.62623545        1       0.09161200      -1.40038600      -0.44882900 
H       9.72517384      17.87876095      11.33603205        1       0.41299600      -0.29670200      -1.56605100 
H       9.88322864      15.29412742      16.40411291        1      -0.46190400       0.66979600      -0.18435800 
H      10.72865335      17.44882094      23.60492813        1      -1.05361000      -0.64673000       0.26002900 
H      10.92544147      22.70226794       3.44549563        1      -0.08263200      -1.27887400      -0.06335700 
H       9.65146622      22.58532410       9.48404988        1      -0.15160100      -1.13310800       0.62972300 
H       9.30840607      23.05068942      15.30932258        1      -0.05393800      -1.64509900      -0.29967800 
H       8.85569409      22.76083210      23.23894299        1      -2.62988900      -0.23765400      -0.44541800 
H      17.11097415       2.76009491       2.10505309        1       0.62421700       0.63889800       2.69511400 
H      16.28918691       2.29810651       8.92644538        1       0.17456200       0.58068200       0.14975800 
H      16.80303932       4.24439233      15.28339260        1       0.70814800      -1.87557200       1.40371100 
H      17.88951705       2.62416142      22.40358520        1      -0.87249000       0.55128400       0.50522300 
H      15.62702334       9.23181002       3.27363212        1       2.14897100       0.70185400      -0.35912200 
H      16.54691072      11.94069462       9.83962351        1      -1.13748600      -0.51568000       0.71199700 
H      17.84805949      10.51141821      15.98453374        1       0.46226900       1.32390700       0.38863500 
H      14.64679821       9.81420331      23.32756098        1      -2.52486400       1.34528600       2.58007800 
H      16.27705754      15.11913731       2.84768219        1      -0.31411200       0.87128300      -0.24724200 
H      16.15116666      15.66601307      10.11081956        1      -0.98184100       0.24214100       0.12767100 
H      17.13626664      16.16936984      16.79836006        1       1.72668300       1.86155400       1.46462300 
H      17.21400996      15.56037565      24.04846403        1       0.13443400       0.29381900       0.34713800 
H      16.34038608      23.39210874       4.85270444        1      -0.59399500       0.02450200      -0.36565600 
H      17.18033088      23.08737347      11.00394692        1      -0.79413000      -0.42852000      -1.92427800 
H      16.42199279      22.81016746      17.36681795        1       0.85273100      -0.47699300      -0.98788000 
H      15.69078666      21.27572997      22.54001327        1      -0.70096100      -1.50026800       1.09692300 
H      23.06864430       3.73498202       5.04313599        1       0.07892900      -1.99266800      -0.68881800 
H      21.74095442       2.71887247       9.47881827        1      -1.86326300      -2.58748800      -1.07136400 
H      22.64961646       3.22692573      17.83868376        1       0.02174100       0.05831700      -2.34654200 
H      23.72247602       3.59306796      22.41470515        1      -0.40580600       0.09553900       0.27009100 
H      22.90713149      10.74580150       2.64524188        1       0.41459400      -0.15885400      -0.35937900 
H      22.31417771      10.93390203       9.11706645        1       1.12120000      -0.06761600       2.56005500 
H      22.62085987      10.89340930      16.60780386        1      -0.76192300       0.13443400      -0.35456400 
H      23.93902199       8.87241455      22.96683581        1      -0.24926000       0.57466200      -0.55556300 
H      22.33272243      16.15657663       4.39037754        1      -0.92479200      -0.47298200       0.69394600 
H      22.99793557      14.78373404       9.95518192        1       0.77806300       3.26599000       0.15802500 
H      22.57288460      16.80960770      16.80121200        1      -2.74360800       2.29159200      -1.39209300 
H      24.13819382      15.60563073      22.17262344        1      -0.88450500       1.18183900       0.99656800 
H      23.31302357      22.67765245       4.82835246        1       1.06758600      -0.58180000      -0.46841600 
H      23.15768491      22.82007427       9.18588097        1       0.31609900      -0.60855300       1.03122700 
H      24.83027644      21.64857133      16.44563128        1      -0.89033900       0.47823300       0.63925500 
H      22.49347917      23.20709021      23.71273441        1      -0.14163800       1.83953700       0.47864100 
H       3.83848505       3.65482661       1.89583865        1       1.80666800       3.83877800      -0.47371500 
H       3.23330155       2.40378853       8.55663130        1       1.44535100       0.17125300       0.76373000 
H       3.30930370       4.32267583      15.07078502        1       1.34994500      -1.85033400      -0.01973800 
H       4.11264959       3.83195416      22.42377076        1       0.18514900      -0.74816800      -0.50187000 