768
Lattice="26.5141198832 -0.16809856842 0.011335670489 -0.167227148407 26.3834964955 0.0857916092105 -0.0218905651279 0.0604112438447 26.661818365" Properties=species:S:1:pos:R:3:Z:I:1:forces:R:3 energy=-99800.4003196 stress="418.262983 2027.297645 1793.626527 2027.297645 -2526.019358 2277.529457 1793.626527 2277.529457 -4671.305592" pbc="T T T"
I      -0.18366979      -0.72898198       3.40966153       53       0.22615200      -0.04066500      -0.16212700 
I      -0.05084107      -0.17160485      10.10477015       53      -0.01341900       0.49342900       0.02884300 
I      -1.34680023      -0.44284411      16.80259089       53       0.16711100       0.10299900      -0.37295200 
I       0.28004617      -0.19938626      23.16497775       53       0.28664700       0.06108100       0.35904200 
I       0.07455894       6.73307926       3.32072003       53       0.20246800       0.07533700       0.07388600 
I      -0.49505515       7.25155150      10.13273800       53      -0.29164200      -0.34720700       0.07906700 
I      -0.63702245       7.11964159      16.81652022       53       0.09745300      -0.09299700      -0.09384800 
I      -0.28410146       5.95091799      23.56968746       53       0.21147400       0.14417900      -0.10471900 
I      -0.20334370      12.14202138       3.28817363       53       0.49612300      -0.14933400      -0.56045200 
I      -0.21835252      13.35952390       9.74014577       53       0.32882400      -0.51240400       0.14511400 
I      -0.31078999      12.01452522      16.44090832       53      -0.23523700       0.09818900      -0.24175700 
I      -0.46327407      13.45715796      22.97971036       53       0.37874100       0.44832900       0.27747800 
I      -0.02858999      20.74169261       3.30251395       53       0.14118400       0.01980600       0.09762000 
I      -0.69617395      19.12108005       9.80335359       53       0.10984200       0.23458900      -0.09261900 
I      -0.06554088      19.41334361      16.30693934       53       0.02250500       0.32273900       0.50612400 
I       0.83700510      19.95430282      23.25905815       53      -0.35160900      -0.36676400      -0.24617500 
I       7.23574131       1.02109927       3.34179480       53       0.17465500       0.07168000      -0.45673300 
I       6.36035870      -0.09902772       9.80366879       53       0.13071600      -0.09294500       0.78566500 
I       7.63828173      -0.31944445      16.54543752       53      -0.28286800       0.11662500      -0.37496500 
I       5.55557760      -0.48281922      23.55073459       53       0.33681200       0.22757900      -0.39445500 
I       6.16502465       6.51914873       3.00808729       53       0.19686000      -0.09127700       0.32107100 
I       7.05492474       6.90587484      10.15511989       53      -0.13554900       0.16813900      -0.12104800 
I       6.23496486       5.81725597      16.62286206       53       0.05612200      -0.25843000      -0.31069700 
I       7.22870917       7.65911547      22.90364033       53      -0.05641200       0.04351800       0.48765700 
I       6.05387843      13.73310042       3.26417559       53      -0.12814600      -0.02879300       0.41274300 
I       6.35257979      12.26502551      10.27560349       53      -0.35361800       0.13009100      -0.23744500 
I       6.38316498      13.35430877      16.88403467       53      -0.18584800      -0.36461300      -0.16043200 
I       6.58822680      12.90429655      23.33558140       53      -0.08654700      -0.12454300       0.09799400 
I       6.82649734      19.78282055       3.00489002       53      -0.06242100      -0.21769500       0.47725100 
I       7.20033858      19.54290502       9.90632536       53      -0.12874600       0.13058500      -0.11009300 
I       5.92469093      20.12335418      16.62315356       53       0.05537100      -0.43228100      -0.02855400 
I       5.99903459      20.60098197      23.29566088       53       0.00731600       0.17147900      -0.59457400 
I      13.51691718      -0.35900341       3.48864452       53      -0.05539500       0.02712000       0.04460800 
I      13.81789803       1.08733235       9.97782300       53       0.16724600      -0.18704100       0.17294000 
I      13.74307231      -0.09900403      16.62930397       53      -0.03291500       0.04276400       0.06699100 
I      13.43029536       0.58632043      23.45446225       53       0.31709800      -0.06769000      -0.16460200 
I      14.31630187       6.93153744       3.72883816       53      -0.17311300      -0.14550400       0.14039900 
I      11.57496490       6.88985760       9.82001667       53       0.24669900       0.07093900      -0.02816700 
I      13.23060215       6.66651760      16.64924363       53       0.05420400      -0.06627800      -0.58405900 
I      12.78284883       7.33182000      23.54675242       53       0.14247100      -0.35838300       0.46278900 
I      13.36282108      13.35926329       3.46467017       53       0.07875100       0.11941500       0.53447800 
I      12.68798456      14.38572706      10.15306907       53       0.04358500       0.12954500       0.06020800 
I      13.74931439      13.66005874      17.15185933       53       0.06753000      -0.02083500      -0.03600900 
I      13.11028129      12.95666931      23.81808748       53      -0.17510000       0.29186400      -0.14134100 
I      14.06036911      19.85811907       3.32500812       53      -0.04026100       0.22069900       0.82302800 
I      12.45881655      19.82868031      10.11725741       53       0.34361800      -0.20111600       0.25460500 
I      12.04132499      19.78073985      17.30488624       53       0.15838800       0.18790200      -0.34460100 
I      14.11389654      19.69047578      23.38104047       53      -0.33144600       0.18916300       0.86894800 
I      19.98209968      -0.60677923       3.24733740       53      -0.41738600       0.28425600       0.38387900 
I      20.38320525       0.31219188      10.12905146       53      -0.04149000      -0.04060800      -0.29096500 
I      19.99901203      -0.19690693      17.08835691       53      -0.13804900       0.12674100      -0.29914700 
I      19.93551579      -0.37812212      23.55638131       53       0.10449500       0.17493500       0.05626800 
I      18.90095380       7.21588508       3.98306826       53       0.06298700      -0.27436600      -0.44480700 
I      20.35971090       6.45130055      10.27669019       53       0.02751100      -0.13278100      -0.21399200 
I      19.25656836       6.31928042      16.78089603       53       0.07830800      -0.30172900       0.07100600 
I      19.25904459       7.01716115      23.72769774       53      -0.01515800      -0.19409000      -0.22582700 
I      19.53063819      12.85042714       3.49180986       53      -0.09370600      -0.11100600      -0.16969400 
I      19.89617004      14.07231559       9.84806588       53      -0.00708400      -0.09593300       0.44948900 
I      18.98038383      13.13838407      16.61701963       53       0.23334500       0.20810300      -0.02411500 
I      19.74523721      12.23118846      23.33037451       53       0.00466800       0.20206900       0.26660700 
I      19.60394254      19.25410036       3.64349978       53       0.33816400      -0.01808400       0.63877000 
I      20.66799890      18.68265072      10.16606930       53       0.03259400       0.16127300      -0.52448000 
I      19.61572216      20.33701277      16.28554938       53       0.15864300       0.09753100       0.26683200 
I      19.12909279      19.48359387      23.24132383       53       0.14072800       0.04183300       0.51010200 
I       3.49315819      -1.12014244       0.23901938       53       0.19048300       0.13329800       0.30696200 
I       3.71748189       0.66032418       6.75910134       53      -0.30137200      -0.70431700      -0.34259500 
I       4.02844493       0.36061544      14.03779459       53      -0.31652700      -0.42391900      -0.17680300 
I       3.37349142      -0.57734151      19.35474216       53       0.07874000       0.19348700       0.13980500 
I       3.54433094       6.54769031      -0.28855745       53      -0.59632500      -0.01777200       0.03787500 
I       3.18709715       6.27636247       6.90745184       53       0.83439500       0.28193500      -0.00632200 
I       2.80146701       6.66250248      13.57351519       53       0.22206100       0.32502600       0.17920200 
I       3.24023523       6.76913503      20.43869801       53       0.12291500      -0.07709400      -0.15911700 
I       3.18061094      12.72218419      -0.22201433       53       0.13912100      -0.17747000       0.10595500 
I       2.82846764      12.93044636       6.89040559       53       0.68541800      -0.00251100       0.17655600 
I       3.00363130      11.80991147      12.95070018       53      -0.29520900       0.25327400       0.00399400 
I       3.03365718      12.72740962      19.86607721       53      -0.25669400      -0.01795800      -0.01655200 
I       3.24099128      20.50506911       0.37679645       53      -0.20873000      -0.23307900       0.04406500 
I       3.30513645      19.62380597       6.58094024       53       0.04999700      -0.20215200      -0.01769100 
I       3.57108127      20.19961992      13.06356247       53      -0.34642100      -0.08850900      -0.06723500 
I       3.13849643      20.16777188      19.95387432       53      -0.42904700       0.03669300       0.01250600 
I      10.69008011       0.77672158      -0.71435119       53      -0.80597500      -0.15661300       0.30234300 
I      10.33098296      -0.06610947       6.66549579       53      -0.06231000       0.04386500       0.11549600 
I      10.47573344       0.32621495      12.12412843       53      -1.27314600      -0.11112200      -0.13367800 
I      10.03308401      -0.80075156      20.70212231       53      -0.10384000       0.06312000       0.00052900 
I       9.92636081       6.34841118      -0.05393740       53      -0.33894300      -0.02755400       0.03402200 
I       9.91527853       6.45449369       5.63514978       53       0.39513600       0.02040000      -0.09484200 
I       9.98334509       6.30401924      13.93565716       53      -0.70499400       0.10336100       0.04948700 
I       9.85514334       6.26026592      19.38060459       53      -0.64990800      -0.03257100      -0.06426500 
I       9.79996165      12.85330406      -0.05853759       53      -0.25699100       0.29092500       0.18669900 
I       9.58495060      13.88200200       6.34088463       53       0.44740000      -0.10891100       0.24794300 
I       9.91347904      12.70007526      13.44456563       53      -0.58726500       0.25637900       0.32537400 
I       9.81513115      12.93331711      19.90110912       53      -0.01720300       0.03238600      -0.14400800 
I       9.76468459      20.04887146      -0.12455229       53       0.24519600      -0.17560300      -0.15297400 
I      10.22457598      18.77770864       6.80275784       53      -0.00701200       0.10119400      -0.27128000 
I       9.81978388      19.23106541      13.76044818       53       0.56194900      -0.08692300       0.13461100 
I       9.56887259      20.58563838      20.70291751       53      -0.37832000      -0.00451800       0.28066500 
I      16.79991792      -0.87342036       0.35253060       53       1.00958200       0.24409000       0.57623600 
I      16.79449678       0.77316071       7.18268872       53       0.29048700      -0.13231500      -0.23046700 
I      16.88633888      -0.67025178      13.51373846       53      -0.61979900      -0.23405000       0.05670200 
I      16.84483725      -0.35739139      20.39609835       53      -0.03532900       0.21984200      -0.11344300 
I      16.16661085       7.07675145       0.26920904       53       0.48598600       0.20115000      -0.37742300 
I      16.66610962       6.75259556       7.53431906       53      -0.35263100       0.10449000       0.09967300 
I      16.16337753       6.42859625      12.48907007       53       0.22054200       0.16308000      -0.23380700 
I      16.24586372       6.31812676      20.03664789       53       0.39276000       0.65606500      -0.19925400 
I      16.52200291      12.90362496       0.23022793       53       0.03448700       0.12547300      -0.38435500 
I      16.72886422      13.15606483       7.51948947       53      -1.08668300      -0.30717900      -0.07966400 
I      16.49261258      13.58782358      12.37170030       53      -0.26230900      -0.06914100       0.04451100 
I      16.44797342      13.72241368      21.11046190       53      -0.41143100      -0.30257800      -0.11821500 
I      17.03068147      19.97678772       0.33261360       53      -1.31398700      -0.04288500      -0.08135000 
I      16.78679820      20.59612632       7.62603344       53      -0.47008700      -0.37240900      -0.08778900 
I      16.41793209      20.77985071      13.10009103       53      -0.03069300      -0.15560900      -0.13191200 
I      16.38793505      19.62802298      19.68557996       53      -0.30492800       0.01720800      -0.04413300 
I      23.24229825       0.21330425       0.32784036       53       0.01836500      -0.15342600      -0.22832400 
I      23.41291220      -0.44626181       6.65889010       53      -0.23861900       0.20707900      -0.17431000 
I      23.20345517       0.10318293      13.23706569       53       0.15294900       0.08675100       0.06377200 
I      23.60942771       0.60959435      20.88611348       53      -0.19002200      -0.06175100       0.03571700 
I      22.59057600       6.31292605       0.45238853       53       0.36601700       0.07283400       0.20126900 
I      23.31375882       6.66574815       6.38459469       53      -0.57125600      -0.12744200      -0.14331400 
I      22.58842732       6.29080785      14.24996785       53       0.68473400      -0.29087100       0.04136500 
I      22.78844396       6.57913766      19.98554622       53      -0.00239700       0.11412500       0.07461100 
I      23.25148628      13.19191666       0.64735485       53      -0.36945600      -0.24298700      -0.25799700 
I      22.97049864      12.87700442       5.54785740       53       0.23094800      -0.30850400       0.59929400 
I      22.96801211      14.05970370      13.49711452       53       0.52427500      -0.01283400       0.38904800 
I      22.79809242      12.81037272      20.25035181       53       0.05398300      -0.03862600      -0.22107200 
I      23.17134963      18.98396840       0.93284997       53       0.38726800      -0.17434200      -0.22701300 
I      23.10027739      20.08440398       6.51426631       53       0.43215200       0.06021200      -0.27404200 
I      23.32489363      18.68346858      14.06938202       53      -0.33525300       0.19011600      -0.32347400 
I      22.91208672      19.08691854      20.95477128       53       0.44776000      -0.12761300      -0.13393400 
I      -0.09850548       3.27536293       0.70904542       53       0.18912200      -0.42370800      -0.25228900 
I       0.86477724       3.08934257       6.94975898       53      -0.68886300      -0.11440900      -0.11159400 
I      -0.01099781       2.92301671      13.62742375       53      -0.04484100       0.52782100       0.13883800 
I       0.29235523       3.00558221      18.78138900       53      -0.16894700       0.14928400       0.29673300 
I       0.25727182       9.51705298      -0.80325869       53      -0.29884600       0.06546100       0.06675400 
I       0.27250313       9.77782490       6.82232667       53      -0.14204700      -0.27194400      -0.05371100 
I      -1.69643330      10.21646230      12.66518962       53       0.35576300       0.00854400      -0.15854400 
I      -0.00594646       9.60433609      20.17869760       53      -0.09359100      -0.43858500       0.11726100 
I       0.46246857      15.95799125       0.17210133       53      -0.07535700       0.37204300       0.05991600 
I      -0.44123209      16.56502902       5.08181250       53       0.33941600      -0.04901300       0.10568400 
I       0.85665428      16.55592752      12.80037714       53      -0.08169400      -0.60939300       0.37737200 
I      -0.49028397      15.85378239      18.38706629       53      -0.05761300       0.20548100       0.20693500 
I      -1.03506672      22.81222879      -0.40396395       53       0.22442100       0.08748400      -0.19105500 
I       0.49462356      23.05493368       7.89469655       53      -0.08517800      -0.20682000      -0.21738600 
I      -0.20706938      22.99662373      12.73374029       53      -0.22319700      -0.49220300       0.18167100 
I      -1.08731484      22.59399885      19.44872986       53       0.21758400      -0.28287500       0.07742500 
I       6.21344924       3.19156446      -1.19045862       53      -0.05045400       0.71837100       0.12411800 
I       6.09531517       3.50826590       6.47492468       53       0.37691400      -0.28481400       0.12864300 
I       6.76783511       3.38802744      12.80392257       53       0.00880600      -0.21612500       0.03196200 
I       7.38390846       3.31657100      20.92146882       53      -0.39476800      -0.56294700      -0.25206300 
I       6.52136025      10.12329658       0.85038233       53      -0.12607800      -0.13331200      -0.70261500 
I       7.10541869       9.71827065       6.13795501       53      -0.15381500       0.51003200       0.12394500 
I       6.58783641       9.75561708      13.82870941       53       0.17793800      -0.63066100       0.22911500 
I       6.53678314       9.49114317      18.96257741       53       0.00985200       0.88114600      -0.32620200 
I       6.68300557      16.73052363      -1.24765612       53      -0.05612200       0.23696000       0.37250000 
I       6.26836724      16.01215834       7.62330072       53       0.10384300       0.13212100      -0.65162000 
I       6.10930631      15.99476909      13.82157324       53      -0.06859100       0.58512900      -0.52283400 
I       5.58667370      16.37614822      20.32459555       53       0.16479200       0.22002800      -0.31303100 
I       7.68434853      23.83908191       1.06730823       53      -0.24190300      -0.20435800      -0.82828800 
I       5.60305763      22.84639958       7.11951077       53       0.58385200       0.36737600      -0.64301100 
I       7.31868587      22.81989543      13.46367713       53       0.07581500       0.24565000      -0.17875200 
I       6.48776834      23.14393698      19.01488836       53      -0.10399100      -0.20403300       0.46770100 
I      13.80128131       3.29076420      -0.11610487       53       0.29227500       0.42870900       0.21015000 
I      13.28567260       3.48490030       7.04684505       53       0.06066600       0.25145700      -0.27899100 
I      13.39818775       3.26625937      13.92921421       53      -0.02714500       0.35343300      -0.09018700 
I      12.72050109       3.23026643      20.15963554       53      -0.06623100      -0.03315900       0.10503400 
I      12.56891212       9.89819932       0.48346300       53       0.00455000      -0.26675000       0.02443900 
I      13.11019168      10.14445993       6.39731371       53       0.14558000      -0.00517200       0.24442800 
I      12.89441634      10.05188649      12.50984200       53       0.14113600      -0.26623000       0.05262900 
I      13.02591012       9.84134277      20.29292469       53       0.23203600       0.17992800      -0.25793400 
I      13.04024323      16.63819946       0.42665177       53      -0.25709900      -0.97196400       0.02454300 
I      14.30412568      16.41224314       6.60835701       53      -0.00217800       0.48628500      -0.04273700 
I      13.64506228      16.93992400      14.36546809       53      -0.10150700      -0.05078700      -0.39619300 
I      13.02693605      16.85806306      20.65802907       53       0.01028000      -0.33641100      -0.18071400 
I      13.28469611      22.91473188       0.49067642       53      -0.15775000       0.31678900      -0.22710600 
I      13.23724904      23.01974624       7.25132489       53      -0.04182400       0.17173300      -0.08008200 
I      12.80654301      23.30100580      12.56779452       53      -0.12045100      -0.04120900       0.01258800 
I      13.87416952      23.17419977      21.45812758       53      -0.28192500      -0.00588900      -0.19271700 
I      19.46839758       3.17708200      -0.21525619       53      -0.20627600       0.81234200       0.05278500 
I      20.12375384       3.01219512       5.84891962       53       0.16793400       0.98583500      -0.15865200 
I      19.13298019       3.28157309      13.09215864       53       0.01313000      -0.56046000       0.24599000 
I      19.98029916       3.10210589      20.13913760       53      -0.28546700       0.26410700       0.05464600 
I      20.56536499       9.66874186       0.02717780       53      -0.17220600      -0.00290300       0.22950100 
I      19.79218677       9.89576325       6.73172371       53       0.16054300      -0.41676800       0.40267000 
I      20.32568328       9.64350879      13.04871640       53      -0.42174100       0.14101300      -0.22744500 
I      19.41710741       9.67524352      19.30306469       53       0.03474000      -0.30002200      -0.00858500 
I      20.13355577      15.96494922      -0.11651071       53      -0.27840500       0.46078700       0.18681000 
I      19.02077508      16.66137861       6.45512820       53       0.12580800      -0.07153200       0.06595100 
I      18.91155813      16.64988638      13.65670181       53      -0.07982000       0.00413800       0.04559100 
I      19.21528406      16.09316744      19.97799391       53       0.22242300       0.15442600       0.01881000 
I      20.01013654      22.80008659      -0.60543914       53       0.00899700      -0.34590200       0.55949200 
I      19.86937954      23.00304917       6.61351858       53       0.04432400       0.44200300      -0.18347900 
I      20.89131110      22.68117381      12.55823980       53       0.11514800       0.23146200       0.02638800 
I      19.50238811      22.71060638      20.25909073       53      -0.40740500       0.11777900      -0.27027800 
H       3.08831149       2.83822219       1.91073979        1      -0.69879000       0.83861600      -1.20005600 
H       1.73148272       3.00234581      10.23543371        1       0.53414700       1.42979100       0.71234500 
H       3.85282187       4.12860055      16.73457275        1       0.97572600       2.90913200       0.22660700 
H       4.06862296       4.09011180      23.59692294        1       0.28448900       0.11317500      -0.46777400 
H       3.38552340      11.12423577       4.13573775        1       0.87578100       0.46549600       0.05782300 
H       2.72593261       8.32685702      11.18369628        1      -0.76165200      -0.27025600      -1.78740200 
H       2.55990238       9.42334751      15.14472050        1       0.00839500      -0.24106700       1.91463600 
H       2.02898922      10.74725494      24.01466068        1      -2.58623500       1.45567100       2.05043900 
H       4.58820559      17.18547801       3.85618703        1       0.64839000       0.43230900       1.05602300 
H       2.36904183      16.30940939       9.62426133        1       0.78632200       0.38230400      -0.37316000 
H       3.74542295      17.03778777      15.40528332        1      -0.33007400      -1.48362700       1.67421500 
H       2.94714145      15.49671135      23.84033547        1       0.69329900      -1.16767400       0.95183900 
H       5.31284077      22.29680651       4.17933965        1      -0.31419000      -0.88511500       1.13875700 
H       3.63105783      24.24828055      11.46809337        1       0.75334500       1.42378000       0.49357800 
H       2.86936773      22.41931210      18.06287951        1      -0.91259400       1.17617900      -2.18245400 
H       1.80275891      22.65061437      23.85200900        1      -0.40022800       0.58946500      -0.18246400 
H      11.13891188       2.44105346       2.54270471        1      -0.67067500      -0.77508100      -0.33681600 
H       9.02900009       2.42272171      10.28590294        1      -0.06704500      -0.06384400      -0.74093900 
H      10.33396494       1.72160663      17.50366374        1       0.65205900       0.71584300      -0.37795500 
H       9.62901191       4.44194712      22.85632099        1      -1.72387700      -0.66215500       1.93583200 
H      10.84796576      10.98141044       3.11717754        1      -0.88674500      -1.80919600       1.26322200 
H      10.41538606      11.02695501       8.93541823        1       1.85467300      -0.88993500      -0.32924600 
H      10.10681685       8.68250145      16.68581031        1       0.30648500       0.13334000      -0.73833300 
H      10.95274629      10.35081755      22.65178244        1       1.15994100      -0.03694300      -1.04845100 
H       8.45953020      15.17042018       3.42909852        1       0.07187900      -0.20091700       1.12423700 
H       9.11839377      16.90088212      11.63393201        1       0.91306400       2.16147900       0.64971600 
H       9.20797389      16.96918662      18.22307555        1      -0.83566800       0.12302600       0.32557600 
H       8.97715266      16.74140402      21.81020599        1       0.37577400       0.20767300      -0.88790400 
H       9.21446010      22.01511948       3.46190244        1      -1.35399200      -0.51641100      -2.21385500 
H       9.48727019      21.86285274       8.56361854        1      -1.49869400       1.77494500       0.78150700 
H      10.20025760      24.49213086      16.44345151        1       0.46747400      -0.00525100      -0.71158400 
H       9.07008661      22.87539953      24.92154625        1       0.56207100      -0.00004500      -1.11601000 
H      15.98061109       1.96617694       3.59535021        1       0.27773500       2.00307100      -0.44317400 
H      18.42289237       2.79182886       8.82975804        1      -0.42007300      -1.86060900      -0.43178400 
H      15.44498855       2.50411193      18.39630582        1      -1.80587800      -2.74625800       0.68191000 
H      17.00539175       3.14417405      22.65140750        1      -1.86357900       0.86190200      -0.00514200 
H      16.56650920      11.62461627       2.62223054        1       0.25295200      -1.08308700       0.45966900 
H      17.73288531       9.62311901      10.05494676        1       2.84239800      -2.80067200      -0.84687300 
H      16.65914444       7.45689761      16.14519513        1      -0.78859300       1.63954100      -0.85279500 
H      15.56706358      11.57891822      23.82520717        1       0.66508600      -2.15106600      -0.07722700 
H      17.71231836      16.75523343       1.96458449        1      -1.29926100      -0.19932700       0.66163400 
H      17.51356661      17.47824011      10.13732892        1       2.05631100      -0.76900300       0.42182700 
H      16.59527636      17.62521550      15.23221580        1      -0.47181800       0.17215700       0.29227900 
H      16.11235208      16.83083891      25.06428093        1       0.13213500      -0.37647800      -0.15532200 
H      16.26274001      22.99329565       5.32996119        1       0.20347200       0.68367200      -0.31749700 
H      16.56619709      25.24295294       9.60974178        1      -0.04311800      -2.02217600       0.20256500 
H      14.74039912      23.73139149      16.25873210        1      -0.62168800      -0.35868200       0.32050200 
H      16.37952471      21.97241063      24.78117552        1      -0.12428600       0.63381400      -0.03939500 
H      23.82661627       2.13804342       3.68914735        1      -0.12395700       0.62995200      -1.24545700 
H      24.28170353       4.81284552      10.40313571        1       2.10433200       1.97520800      -1.13136000 
H      21.52509920       3.58864564      17.29712175        1       0.74746600       0.43633900      -0.40240600 
H      21.75944114       3.21600028      24.06345814        1      -0.40370400      -0.72930700      -0.05733700 
H      24.47954677       8.44873530       3.51748997        1      -2.31233600       0.80053300      -0.95287300 
H      23.48442117      10.51541705      10.16653900        1       0.00178000       0.94768800      -0.44338700 
H      23.77327115       9.56765508      15.13038945        1      -1.05167600       0.55969600      -0.30337600 
H      23.02674232       9.22652608      23.84101530        1      -1.03299200       0.12124100      -0.21064000 
H      22.79167831      16.27443105       5.33017132        1       0.26438300       0.41858300      -1.12539800 
H      23.19396741      14.68584473       9.03276491        1       0.61133100       0.71817100      -0.00397600 
H      22.26439092      17.27585848      17.17827901        1      -0.77161600      -0.56512500       0.27311500 
H      24.27381440      16.54871101      25.00795074        1       1.44584700       0.26400600       2.66234700 
H      21.70614958      22.64741504       1.83827391        1       1.76410900      -0.00390300       0.91116700 
H      22.11420076      22.62623624       8.46669624        1       1.14442200       1.00756500      -0.04748800 
H      21.04570180      23.38551397      17.06879940        1       0.53212800      -0.85933000      -0.98284900 
H      23.59191588      22.21215001      23.39084962        1       2.05260200      -0.43971900       0.78259000 
H       4.33298871       2.20104523       2.75953379        1       1.75944800      -1.53798100       0.70611900 
H       3.39302111       3.11837033       9.81235517        1      -0.74144200       2.20228900       0.99080800 
H       2.39202630       3.07285460      17.06705038        1       0.31436200      -0.43902400       0.67603500 
H       2.53019685       4.55391738      22.65075754        1      -0.35136000      -0.05179500       0.12285500 