768
Lattice="25.9079949233 0.316169572537 0.0123765195131 0.275773778641 26.0257140656 0.621564588379 -0.0229048523121 0.599352177963 25.8973399611" Properties=species:S:1:pos:R:3:Z:I:1:forces:R:3 energy=-99794.6931036 stress="-1406.229797 340.847904 -630.053597 340.847904 -3688.139107 -3140.029006 -630.053597 -3140.029006 1039.119662" pbc="T T T"
I      -0.30738893       1.03930403       3.70610681       53       0.00918000      -0.10220200      -0.70433400 
I       0.32848780       0.51948418       9.82350936       53      -0.74298900       0.11417600      -0.47840900 
I       0.21485296       0.76323478      16.55680732       53      -0.41335400      -0.20089900      -0.49267400 
I      -0.13393072       0.35658949      22.92598636       53       0.02780800       0.27870900      -0.02207300 
I       1.24388493       6.64902406       3.50479616       53       0.14595400       0.07064400      -0.63637700 
I       0.12919519       5.66449530      10.16022003       53       0.16616600      -0.18656500       0.18270000 
I       0.34044021       8.36152231      16.35220933       53       0.15482800      -0.24490500      -0.57134100 
I       0.00639780       7.14889676      22.37838944       53      -0.01756000       0.02894900       0.87113000 
I       0.22091509      12.89247515       3.73598633       53       0.11138000       0.09355500      -0.26477300 
I      -0.41843892      13.11968152      10.16928308       53      -0.08257500       0.15608700      -0.36595200 
I      -0.08365683      12.92933135      16.41851692       53      -0.03354500       0.28491800       0.03506500 
I      -0.17047739      13.36067542      22.99064777       53       0.02071700       0.03001200       0.11544000 
I      -0.17278285      18.88666425       3.73371002       53       0.51144100       0.42308900      -0.13917600 
I      -0.75161804      19.41773201      10.01609765       53      -0.23389900       0.30458500       0.20138600 
I       1.51453725      19.87374269      16.76562830       53      -0.43590200      -0.35300000       0.07531000 
I      -0.19504651      20.52876759      23.09524469       53      -0.03157700      -0.06189000      -0.11343900 
I       6.59043785       0.99442696       2.93977865       53      -0.00798800      -0.55956700      -0.27870700 
I       6.32265579      -0.05958116       9.39249594       53       0.04532900      -0.42173300       0.42184700 
I       6.21911010       1.58178251      15.71531755       53       0.09637700      -0.20597300       0.38368500 
I       5.87473935      -0.44815362      22.25248260       53       0.08255200      -0.27953000      -0.87396300 
I       5.75695790       5.96199909       3.85928219       53       0.24997900      -0.22789800       0.20594800 
I       7.49141329       7.71472932      10.39634272       53      -0.21687700      -0.17011900      -0.65823800 
I       7.60448031       7.30706798      16.61867785       53      -0.05912000      -0.13021100      -0.16102500 
I       6.26584943       7.71433536      22.82453307       53       0.17458900       0.05782900       0.30375600 
I       6.95656575      13.94748526       3.83197848       53       0.06419400       0.18822400      -0.43935500 
I       6.30953357      13.04479026      10.00236941       53      -0.13447800      -0.18490200      -0.28227600 
I       6.22786462      13.60709228      16.29017196       53      -0.17777800      -0.01997400       0.49921700 
I       7.41251110      13.01424342      23.11173968       53      -0.21083900      -0.21380300       0.14378300 
I       6.20580899      19.05481206       3.33602425       53       0.10581700       0.36145000       0.28415900 
I       6.97456421      20.34055003      10.35693484       53      -0.10261100       0.17207400      -0.30160600 
I       6.28294239      19.50821477      16.49699602       53       0.12474200      -0.21028300       0.31862600 
I       7.19882594      20.41414484      23.14575878       53       0.17048000       0.23771400      -0.44561200 
I      12.97860930      -0.04175053       2.47082564       53      -0.20593600      -0.07148900       0.62489600 
I      13.68681354       0.59425484       9.63506567       53      -0.18963400      -0.33676500       0.05684500 
I      12.14358367       0.42614321      15.97513200       53       0.01330700      -0.18773600       1.30400600 
I      13.61653421       0.59983860      22.44251921       53       0.26751600      -0.03326600      -0.32729300 
I      13.51007403       7.37071937       3.34256376       53       0.15043200      -0.38040100       0.23516300 
I      12.73204973       5.63135256       9.68564508       53       0.53100400       0.37453300      -0.06029700 
I      13.24118950       6.91759001      15.99801776       53       0.00616600      -0.04772500       0.78689800 
I      13.39137301       6.56299343      22.58504365       53      -0.06494600      -0.16973500       0.64177900 
I      13.61197253      12.72259172       3.98476493       53      -0.12449000       0.04887900       0.19926400 
I      13.62989964      14.53369511      10.24813503       53       0.02955700       0.07080800       0.25471200 
I      13.04642941      12.94036822      16.63983904       53       0.30388100       0.19501600      -0.03303100 
I      12.32794004      13.65763149      23.36053938       53      -0.07630600       0.05238500      -1.20552200 
I      13.11468669      20.35282404       3.70003563       53      -0.11472600      -0.11950600      -0.04472000 
I      12.89523588      19.73155291      10.18814082       53       0.02986300      -0.20236900      -0.07322300 
I      13.11870366      20.23630788      16.68918633       53      -0.00879100       0.24297600      -0.26155000 
I      12.20345125      20.60512414      22.99580038       53       0.11990900      -0.24165900       0.44268800 
I      19.99354217       0.03534971       3.53647362       53      -0.33237600       0.47544200      -0.00671500 
I      18.22908364      -0.01168910      10.17999533       53       0.00471700       0.19536500      -0.43246900 
I      20.47991577       0.65294055      16.23398869       53       0.05594800       0.20317900       0.72271600 
I      18.92911426       1.00879639      22.94191253       53       0.26118600      -0.24448400      -0.34568400 
I      18.42302767       6.54281614       3.25729492       53       0.28016400       0.16720200      -0.01049100 
I      20.66005619       7.39889843       9.85937966       53      -0.04648800      -0.20245800      -0.79726800 
I      19.77116782       6.97233011      15.99311941       53      -0.12108800       0.00666600       0.45868100 
I      19.40732729       7.84185321      22.48914899       53       0.11894900      -0.32754600       0.21380700 
I      19.11914885      13.09053464       3.41676660       53       0.17494500       0.10966800       0.43787000 
I      18.90099750      14.25989011       9.87348376       53       0.54498800      -0.33748800       0.46496400 
I      19.15978786      13.50475559      16.60163816       53      -0.16900500       0.14103800      -0.43231700 
I      19.48253915      13.61397549      22.86518514       53      -0.07777800       0.13595800       0.29860700 
I      19.18154500      19.99859428       3.68895958       53       0.20047400      -0.16791800       0.37120300 
I      20.25681481      19.91567813      10.34683966       53       0.06894700      -0.10789600      -0.05984900 
I      20.01915649      20.27737903      16.75621551       53      -0.14849400      -0.07146300      -0.06474700 
I      18.86689499      20.47225167      23.18250644       53       0.41755800      -0.11149600       0.15701000 
I       2.87708301       0.09779812      -0.03535172       53       0.39787800       0.01393500      -0.11680500 
I       3.05304767      -0.05824552       5.83706207       53       0.67254000      -0.08253800       0.00336800 
I       2.87743978       0.17000403      12.17316772       53       0.70512500       0.04374500       0.34492100 
I       3.32121163       0.36961121      19.37020276       53       1.09713600       0.21608300      -0.02801600 
I       3.22233213       6.44326932      -0.07982679       53       0.37838000      -0.13012300       0.01152700 
I       3.72461179       6.99629221       7.62930370       53      -0.46077200      -0.11961400      -0.03464000 
I       3.87593597       6.64803213      11.96547535       53      -0.23862000       0.03122400       0.35116800 
I       3.63019648       8.16078753      19.32893664       53      -0.07401000      -0.63255400       0.31496300 
I       3.28201580      13.02516572      -0.05237836       53      -0.36539400      -0.24272100      -0.14573300 
I       3.50599412      14.06093920       6.97239041       53      -0.05037600      -0.25205900      -0.11485800 
I       3.44016088      13.09778669      13.21395010       53      -0.39414600      -0.06051700       0.04011300 
I       3.18486389      13.83516897      20.14764516       53       0.16296600       0.11555400       0.03951300 
I       2.89523825      19.78286496       0.03493063       53       0.16119400      -0.35911300       0.47062200 
I       3.17273259      20.24694374       7.81427212       53      -0.07534900      -0.15730500      -0.17428700 
I       2.90978054      20.19780750      12.41095870       53       0.42150800       0.13583100       0.22170300 
I       3.48359779      19.39210965      21.27021910       53       0.08002900       0.09726000      -0.46933500 
I       9.47289859       0.27646120      -0.50565846       53      -0.58623000      -0.04689400      -0.10687100 
I       9.74279817      -0.07024718       6.61645919       53      -0.55924900       0.08070300      -0.01097000 
I       9.62221680       0.71678791      12.89906994       53       0.24692000      -0.32329500      -0.11244000 
I      10.23629819       0.93395839      20.07665630       53      -0.04270400      -0.14666400      -0.35771200 
I       9.80886557       6.65262395       0.68136685       53      -0.46880100       0.02962500      -0.23903700 
I       9.94296614       6.78952143       6.39159848       53      -0.20545000      -0.03823300      -0.11642000 
I       9.98794170       6.41032859      13.20492725       53      -0.05320900      -0.10331900       0.19964000 
I       9.54397187       6.77515200      20.36619952       53       0.90077300      -0.16015900       0.17249500 
I       9.72675643      13.32299311       0.55395955       53      -0.09047200       0.04285900       0.25214300 
I       9.95374070      14.24230269       7.84937460       53      -0.23246400      -0.07775700      -0.27502600 
I       9.51538377      13.77353260      13.27144087       53       0.65567300      -0.08637900      -0.09780400 
I       9.80653398      13.33186522      18.81199409       53      -0.42161900       0.14882000       0.07774800 
I       9.55846491      18.23502015       0.26912171       53       0.06059200       0.27564800       0.20381100 
I       9.43371482      19.21067279       7.06386007       53       0.43275600       0.54190600       0.39997600 
I      10.09639780      20.51274395      13.25339215       53       0.27207600      -0.06456800       0.17194300 
I       9.87841829      19.75015437      19.15576084       53      -0.06042900      -0.01492700       0.03299400 
I      16.45223251      -0.03506731       0.25383171       53      -0.41559200       0.01087000      -0.15768000 
I      15.82067927       0.27142215       5.97263395       53      -0.21254900      -0.09785200      -0.61768300 
I      16.52291183       0.39873598      14.05931613       53      -0.61466900       0.00718100       0.17829500 
I      16.92658536       0.60208677      18.41888206       53      -0.41173500      -0.02417200       0.03260300 
I      16.11168476       7.26258688       0.11380066       53       0.67224100       0.10992200      -0.23061000 
I      16.14366171       7.01104655       6.99825698       53       0.68754200       0.09735600       0.02907200 
I      16.84799974       7.44273634      12.47936070       53      -0.53662500       0.13757000      -0.03317700 
I      16.50700477       6.75344008      19.56673164       53       0.00589200       0.08891300      -0.11987500 
I      16.03468502      12.60866744       0.30259208       53       0.64389100      -0.05905000      -0.26354500 
I      16.27329507      13.31023269       7.02185528       53       0.71178100       0.07965700      -0.07099900 
I      16.31503656      13.57985288      13.77567826       53      -0.71951300       0.02621200       0.05063100 
I      16.07429893      13.87410048      20.02423172       53       0.26641200       0.01744000      -0.04660300 
I      16.27720853      20.68976084       0.28769504       53      -0.31358600      -0.30192200      -0.00068900 
I      16.34430303      19.76536297       7.19635667       53       0.13407700      -0.00587900       0.12642900 
I      16.69401332      20.51172187      13.21668570       53      -0.17144100      -0.24539700       0.47714800 
I      16.48096031      20.37480731      20.45133470       53      -0.40271000      -0.29793300      -0.48610600 
I      22.59170275       1.05424630      -0.21496050       53       0.27606300      -0.00982200       0.06733800 
I      22.74350933      -0.01843262       6.63299438       53      -1.00999700       0.23734900       0.13036600 
I      22.66713570       2.14685429      12.74222732       53       0.29427000      -0.20162700      -0.27594000 
I      23.13563144       0.17894347      19.48349892       53      -0.51651200      -0.02859800       0.14149000 
I      22.69515297       6.64548547       0.24033663       53      -0.43542400       0.08121200       0.04629100 
I      22.64915030       6.30424930       5.41102438       53      -0.22976900       0.23226200       0.10774400 
I      23.46225095       6.93389606      13.09356772       53      -0.21513000      -0.01915600       0.32960700 
I      23.28772645       7.25698101      18.90895505       53      -0.40240700       0.15344700      -0.20179600 
I      22.52029782      13.87951439       0.16846237       53      -0.13449800      -0.62223000       0.69611400 
I      23.08767506      13.20326298       6.25774917       53      -0.53206000       0.20523400       0.13695300 
I      22.58828376      13.14545162      13.44783265       53      -0.08314900       0.34541600      -0.22563500 
I      22.59774880      13.35970158      19.70876966       53      -0.08323500       0.12085200       0.03266200 
I      22.26286521      18.99686301      -0.26121340       53       0.40554100       0.13574900      -0.04316000 
I      22.61873110      19.75725165       6.06519303       53       0.18448200      -0.28176700       0.37441100 
I      22.94459184      20.11552852      13.99699535       53      -0.92905200       0.08241600       0.00469400 
I      23.21346834      20.32011646      19.70352660       53      -0.31559300       0.18346200      -0.08551700 
I      -0.18762462       3.56204674       0.47351870       53       0.33557700       0.15130300      -0.21138200 
I       0.71421211       3.27629737       6.72423290       53      -0.29355600      -0.31110400      -0.06776100 
I       1.77477581       3.60233298      14.46570917       53      -0.04456900      -0.00835700      -0.06456400 
I       0.30205039       3.63244064      19.86448366       53       0.13537500       0.11869500       0.01824900 
I      -0.51068846      10.04608772       0.33279320       53      -0.17653500      -0.64145900       0.02112500 
I      -0.02752783       9.66055436       7.10600958       53       0.21636100      -0.03509600      -0.26752800 
I       0.50391680       9.55706696      12.68590939       53      -0.00630000       0.23594200      -0.35801200 
I      -0.28689506      10.40876045      19.77611541       53      -0.16013800      -0.62304600       0.63348500 
I      -0.44503009      16.24928372       0.75764600       53       0.21730500       0.28109900      -0.06178900 
I       0.40068266      16.42198818       7.61051129       53      -0.83338200       0.16688200      -0.81661900 
I      -0.35337551      16.78231122      13.60192961       53       0.27864800       0.09534700      -0.04458100 
I      -0.23238913      16.66182231      19.97010266       53       0.14781100       0.00173200      -0.02208000 
I      -0.02026171      22.89267981       0.81765629       53      -0.37187400       0.15586900       0.30856400 
I      -0.16229471      22.60091655       6.10086434       53       0.12551800       1.05523400      -0.09070600 
I      -0.19507264      23.29297253      13.59778602       53      -0.06439100      -0.08358900       0.07442900 
I       0.83632710      22.99222662      20.12246299       53      -0.09790200       0.13909400      -0.17465500 
I       6.53679822       3.19159233      -0.70394909       53       0.03479600       0.20916400      -0.11126400 
I       7.38750279       3.19621330       7.50806506       53      -0.27431100       0.25840600      -0.36931000 
I       6.82581583       3.45586695      11.88052710       53      -0.20565100       0.47273300      -0.04872500 
I       6.85986106       3.62359266      19.85554925       53      -0.21606300      -0.52459500      -0.04097100 
I       6.47485633       9.85953443       1.45084265       53      -0.10124800      -0.30724600      -0.28879900 
I       6.93488397      10.15319311       6.40875376       53       0.36045200       0.38601700       0.29385800 
I       6.74195599      10.55967961      13.33871124       53      -0.09939500      -0.21950100       0.27863200 
I       6.60509169      10.58356936      19.45696703       53       0.03351700      -0.16254400       0.00818700 
I       5.73133554      16.00858529      -0.44459393       53       0.32385400       0.62923600       0.12560800 
I       6.39011712      16.67973937       7.37109523       53      -0.21053400      -0.16801500      -0.05275700 
I       6.67662124      16.88450519      12.53387568       53      -0.24605300       0.19143600       0.54388200 
I       6.64929139      16.56041425      21.25784861       53      -0.10991400       0.20224200      -0.42151400 
I       5.88760731      22.80002927       0.89901570       53       0.19746900       0.07503400       0.13026000 
I       6.50643731      22.63884910       5.94137558       53       0.40078700       0.76554000      -0.20032800 
I       6.27830032      23.48664018      14.19141274       53       0.00667400      -0.24786400      -0.06408200 
I       6.82558167      23.01112757      19.59869150       53       0.01442900       0.16601200      -0.11209200 
I      13.07930181       3.58746408       0.09544241       53      -0.05445900      -0.53360500      -0.22221800 
I      13.16401087       3.44882997       6.12528473       53      -0.27451200      -0.03259000      -0.07035400 
I      12.93326993       3.42887679      12.98983711       53       0.06585600      -0.20010100       0.26744600 
I      13.05448143       3.68277081      18.90930680       53       0.06587700      -0.10087100       0.09968600 
I      12.44610440       9.84778804       0.39723150       53       0.00727700       0.30659600      -0.37156600 
I      13.00639642       9.84855988       8.44157724       53       0.33455800       0.13550400      -0.41026800 
I      12.58903084      10.10579953      13.26804499       53       0.12206200       0.28416500      -0.23019100 
I      12.84293089      10.17471307      20.42671332       53       0.10590800       0.07424700      -0.15167800 
I      13.34635625      16.32537293       0.21497658       53       0.10218100       0.62677000      -0.05864300 
I      13.07799230      16.69157822       6.70350889       53       0.36960300       0.27822300       0.17825200 
I      13.41250806      16.76311179      14.39733028       53       0.04901700      -0.05704800      -0.22270400 
I      13.32307351      16.87817573      19.52365954       53      -0.13571300       0.17388400       0.09481100 
I      13.31339440      22.87840485       0.25506987       53      -0.52353200       0.46163500      -0.32343300 
I      12.97740632      23.10261231       7.61829498       53       0.37986700      -0.25081900      -0.23512700 
I      13.70887922      23.08218377      12.67950756       53      -0.25378900       0.21260800       0.21479600 
I      12.95506929      23.25822280      20.17687445       53       0.08498200       0.61082500      -0.18380200 
I      19.00482057       3.37649140       0.25564472       53      -0.05063400       0.62406900      -0.11916300 
I      18.97922333       3.35326596       6.44854052       53       0.14286800       0.37278800      -0.22093700 
I      18.69288404       4.11430884      12.67158217       53      -0.21218200      -0.97788300       0.03899900 
I      20.81623852       4.13436855      19.09187127       53      -0.43607500      -0.24099000       0.32601100 
I      20.06866257      10.29742503       0.11107411       53       0.01954700      -0.50836400       0.45806500 
I      19.48635813      10.28988254       6.89187620       53      -0.09299000      -0.18274700      -0.15607600 
I      19.93887343       9.93916223      13.09711334       53      -0.07887200       0.81433200       0.15150600 
I      18.96807492      10.66085653      19.13524185       53      -0.08232100      -0.93175900       0.08190200 
I      18.87667058      16.51102575       0.60600927       53      -0.17045200      -0.42049200       0.00668700 
I      19.67843890      16.81775440       6.46741032       53      -0.14183900      -0.08597100       0.07542800 
I      19.78349007      16.57021295      13.99244976       53      -0.03612900       0.58035300      -0.32588900 
I      19.76355297      16.80541305      19.59596796       53      -0.25150800       0.17343500      -0.24222600 
I      20.72080615      23.24882006       0.64124944       53      -0.15890000      -0.20935900       0.02911800 
I      20.26188300      23.38751446       7.40696754       53      -0.20268200      -0.49434800       0.08166600 
I      20.08902679      23.49613237      13.85033234       53       0.09375500      -0.45557300      -0.25662600 
I      20.07992455      23.46887990      20.18801382       53       0.03747600       0.17356600      -0.07941300 
H       2.73435456       1.91225518       2.23204072        1       1.60966400       1.81567800       1.45668800 
H       2.98423362       3.26763632       7.86468671        1       2.07040400      -0.21079600       0.21762500 
H       3.91025657       5.30275220      16.54177560        1       1.12758400       0.49791000       0.77802600 
H       2.67536132       5.98971888      21.67366650        1       0.08898100      -0.30033500       0.12985300 
H       4.12478492      11.27140335       4.80026349        1       1.48112800       1.01836200      -0.31285300 
H       2.85104860      11.32648615       9.97187584        1       0.10502700       2.07840900       0.53395100 
H       2.77320567      10.43337278      18.92978258        1       0.84120800       0.58149900      -1.69537100 
H       4.27541063       9.36614797      23.44878602        1      -2.44533500       1.34847900       0.25891100 
H       3.44784910      15.03162213       2.97311938        1       0.12571200       1.71169500      -0.34282200 
H       4.06055465      18.12376514       9.98751156        1       0.40843800       2.27255500      -0.63766000 
H       2.01031862      16.73209562      16.64286508        1       2.12660400       0.11741900      -0.92060900 
H       2.64480443      17.74826566      24.43832569        1       0.31470700      -0.72012700      -1.22692300 
H       4.42043349      22.17087194       3.99566812        1      -0.64549000      -0.37122400       0.44685200 
H       3.77115012      23.39375046       9.07405306        1      -2.03417700       0.81523400       2.41907500 
H       1.93910765      22.21315311      16.57307216        1       1.65779400       2.40127700       1.20787000 
H       1.97227049      23.53612717      22.80234679        1       0.38405800      -0.14748500      -0.64206900 
H      10.54683175       2.69802095       3.24266218        1      -0.79361400       1.30021200       0.70346700 
H       9.98072985       2.96452867       8.49615854        1      -0.23052400       0.07209300      -0.86187800 
H       8.63090533       3.17485212      16.19689230        1      -1.65612100      -0.46953800      -1.09388500 
H       9.33124046       3.30338100      22.21821025        1      -4.04250700      -0.44212100      -1.64496600 
H      10.77027340      10.78292931       4.70074181        1      -0.27099000      -1.82879400      -2.37669400 
H       9.42825267      12.11480864       9.93536837        1       0.99829800      -0.28177200       0.87588100 
H      10.87091365      10.10195341      17.09246891        1       0.09818700      -0.54275200       1.00973400 
H      10.72532197       9.24605804      22.85395030        1      -0.27313500      -0.22637400      -1.55929200 
H      10.39935168      16.02888519       3.87443953        1       0.02644900      -0.86483800      -0.05061500 
H      10.49994670      17.96598285      10.72627872        1      -0.84720900      -1.03115200       0.55729300 
H       9.20724311      16.03638146      15.47300711        1       0.17237800       0.31322700      -0.93855800 
H      11.45867823      16.65428585      22.62998705        1      -1.59060300       0.89132700      -0.68517200 
H      10.53639789      22.50572438       2.96108556        1       0.47307700       0.07617100       0.47878300 
H      10.14941734      22.35604839      10.73314787        1      -0.96529200       0.60765500      -1.13265600 
H      10.11229984      24.61275472      16.12822699        1      -1.11441000      -0.86058900       0.98648700 
H       8.85801119      23.93009545      22.50529525        1       0.93737100      -0.04857200      -0.01461000 
H      14.82011983       3.61108248       2.74073025        1      -0.72242000       0.33534000      -0.52508900 
H      15.15002166       3.16718702       8.58572274        1       0.01018200       0.31443100      -0.51396600 
H      15.37187843       3.78701598      15.89050837        1       0.40619900       1.15709800       1.13267700 
H      16.91670927       3.26138927      21.55898044        1      -0.09543500      -0.38349600      -0.39915700 
H      15.45289916      10.60660185       2.83601689        1       0.73813600      -0.81204000      -0.68766900 
H      16.04636207      11.75973569       9.37596678        1       1.92729200      -1.48668000       2.45619500 
H      14.46013848      10.25168467      15.92013564        1      -0.07679900      -1.19359300       0.72395500 
H      16.11958101      11.74790287      22.77908517        1       0.01061500      -1.78870600      -0.31373300 
H      14.74571901      16.68551608       3.23254992        1       1.66195200      -1.32132400       0.90643400 
H      17.03054511      18.72042694      10.28784039        1      -0.60159900      -2.15065600       0.60978200 
H      17.31079815      18.86265189      17.22374042        1      -1.38723300      -1.82328100      -1.50430400 
H      17.05958445      17.78010190      23.75727040        1      -1.13701700      -0.96086900      -0.54182200 
H      15.58383198      22.07165678       4.57904087        1       0.37961800      -0.61626000      -0.93193700 
H      16.51466987      23.75939797       9.52009921        1      -0.25265300      -1.25562700       0.31096100 
H      16.19417881      23.89221315      17.30901931        1      -0.84705500       0.68347700       1.40648100 
H      16.44643369      24.97992480      21.72146509        1       0.37553100      -1.83087500       0.59755500 
H      23.00938089       2.61545454       3.09382436        1       2.44836400      -4.08171000       0.47413100 
H      21.18026999       3.77129484       8.65677893        1       2.21153400       0.91871500      -0.17502500 
H      22.33297571       4.86261743      16.51197346        1       1.74451400      -1.44180400      -0.24384000 
H      23.68972063       4.15182231      23.99182629        1       0.44502100      -0.61409100      -1.00331400 
H      22.84539979      10.35128475       4.70610346        1       0.31486400      -1.16746300       1.32626300 
H      23.61656701      10.57671429       9.16146154        1       1.84770600       0.69106600      -1.54218400 
H      21.62016456      11.69326227      15.92607817        1       0.35018200      -0.55563300       0.06053600 
H      22.61245088       9.56695009      24.11067706        1      -1.35572500      -0.94463800      -0.40530400 
H      22.73151973      17.46543882       2.41213089        1      -0.38365600      -0.33653900      -0.63303700 
H      22.80629642      15.51438378       9.06112380        1      -0.45302800       0.53906700       1.73244700 
H      23.41035198      16.86074408      16.01618205        1      -0.39285300      -0.01466800       1.42957400 
H      22.88602171      15.80697314      22.28697706        1      -0.95643200       2.33261700      -0.10956300 
H      21.81093884      22.34931894       4.99771395        1       1.90453100       0.30874300      -2.17143100 
H      24.12662232      23.84751598       9.93043485        1      -0.18943400      -0.05508900       0.49763200 
H      22.14413906      22.96746554      17.00031685        1       0.45382700      -0.57761400       0.64988800 
H      23.94699947      23.33904152      24.25275327        1      -0.20614500      -0.11244000       0.90836000 
H       4.36837673       2.47021260       2.03698115        1       0.05063800       1.27335300       0.52924100 
H       3.89683988       1.83413788       8.68014206        1       0.32974000       2.11228900      -0.15509100 
H       5.26238856       4.78084799      18.05048187        1      -0.46184400       1.22913400      -1.52670400 
H       3.63227281       4.54905181      21.26269068        1      -0.00512100      -0.41056800       0.36265800 