768
Lattice="25.9205801986 0.344659129421 0.0388273370867 0.307205381943 25.9106546784 0.0638220322286 0.0122756383164 0.0492758895918 25.5394680366" Properties=species:S:1:pos:R:3:Z:I:1:forces:R:3 energy=-99800.7234625 stress="579.378435 -572.233913 328.364216 -572.233913 1731.991961 -438.873304 328.364216 -438.873304 -682.918189" pbc="T T T"
I      -0.96861548       0.33023694       3.13603709       53      -0.05278900       0.07376900       0.06694100 
I      -0.69115038       0.39507178       9.56900972       53       0.30985900       0.07872200      -0.07891500 
I       0.18207873       0.36168640      15.94896763       53      -0.03801200       0.01000500       0.75613600 
I      -0.63532299       0.77858848      22.39723114       53       0.36804900      -0.14316600       0.60612000 
I       1.22691584       6.84023640       3.11882339       53       0.02372800      -0.23168400       0.35536200 
I       0.57200181       5.24731991      10.18411081       53      -0.12415600       0.15463000      -0.31063600 
I       0.60027277       8.15732139      15.55993844       53       0.13228000       0.09177100       0.29394400 
I       0.08865851       6.72975062      22.47741330       53      -0.17146000       0.05673700      -0.28105700 
I      -0.61540442      12.83321794       3.28857709       53       0.23602300       0.02914000       0.42835800 
I      -0.55858941      12.59089578       9.74642247       53       0.18323900       0.45068300      -0.06101600 
I      -0.11023586      13.66175954      16.05183670       53       0.19355700      -0.25924400      -0.05376600 
I       0.30702398      12.96219529      22.41607845       53      -0.07259400       0.08905600       0.30446300 
I       0.55920516      18.62845801       3.33428951       53       0.09048300      -0.02158800      -0.00852900 
I      -0.73252435      19.58375683       9.86167602       53       0.36155100       0.09361200      -0.16348200 
I       1.32475714      18.89698420      16.25139014       53      -0.08272300       0.16697200       0.13944200 
I       0.29394717      20.16498578      22.40064345       53      -0.05654900       0.04412400       0.35126800 
I       6.97217054       0.78001448       3.14810009       53      -0.29095700      -0.11984300       0.02392500 
I       6.60775309      -0.51740289       9.55699913       53      -0.04326400      -0.19627000      -0.95757600 
I       5.82118912       1.04236505      15.71829427       53       0.27944000      -0.12648700       0.30974200 
I       5.98318502      -0.48153436      22.26838078       53       0.26148900       0.13910100       0.10777700 
I       6.15915968       6.04573927       3.59032641       53      -0.03766800      -0.09027900       0.05103800 
I       7.11318267       7.39330929       9.56322109       53       0.16245200       0.18337600       0.13120500 
I       7.08263819       6.72672530      15.96819386       53       0.27993400      -0.37094600       0.45412000 
I       6.80553890       6.86967133      22.79199556       53      -0.47791600       0.34362700      -0.81117000 
I       6.78261820      13.81822883       3.19594193       53      -0.37408900      -0.25041200      -0.00856700 
I       5.79338174      12.58498420       9.59271951       53       0.33738800       0.32067400       0.21473600 
I       6.66315521      13.22590938      15.76519586       53       0.06787900       0.06821500       0.34830600 
I       7.03982814      11.88103313      22.40892933       53      -0.08725200       0.45506700      -0.18181900 
I       6.07192818      19.41712318       3.36782707       53       0.03554900      -0.43599600      -0.40418700 
I       6.77140979      20.13980364       9.46966987       53       0.15501500      -0.00920700       0.80918300 
I       6.04939042      18.83215742      15.84452242       53       0.08478500       0.21608800      -0.01390800 
I       7.91094094      19.78624188      22.03876154       53      -0.40442300      -0.12654600       0.51943900 
I      12.40000108      -0.59879135       3.46659753       53      -0.15930000      -0.23975900      -1.56935500 
I      13.96843483       0.36588678       9.32225438       53      -0.18365400       0.02020500       0.22147800 
I      12.33983524      -0.15721706      15.86726374       53       0.10973600       0.00177400      -0.25412900 
I      13.77804705       0.48672034      22.05117323       53      -0.05399900       0.04222400       0.70414100 
I      13.22394423       7.37420903       3.32676853       53       0.08855900      -0.10403400       0.00286300 
I      13.18328073       5.98423209       9.68779952       53      -0.03349000      -0.16115200      -0.33157000 
I      13.56962624       6.31116657      15.95848501       53      -0.15346500       0.29454600      -0.28902700 
I      13.42660765       6.12292937      22.41360034       53      -0.03224000       0.10275300      -0.11433100 
I      13.30345723      12.51736389       3.60152172       53       0.01699000      -0.18214300      -0.70306100 
I      13.85028799      13.89096055      10.03825736       53      -0.15978800      -0.20311100      -0.44627500 
I      13.46073576      12.02799311      16.18111939       53      -0.31206800      -0.05528200       0.55085700 
I      12.81013902      13.66474858      22.38303873       53       0.01453200       0.05427100       0.54824000 
I      13.32570474      19.80147935       3.30784867       53      -0.28324300      -0.10588700       0.01487600 
I      13.07169648      19.52483961       9.76245911       53      -0.43352600      -0.32125400      -0.31692700 
I      13.18900789      20.08707715      16.12464602       53       0.04478800       0.03208800       0.05740500 
I      12.54714246      19.66891535      22.71493144       53      -0.05103000       0.42329000      -0.79243900 
I      19.48241655       0.60747227       3.69339602       53       0.38673100      -0.44724500      -0.82508700 
I      17.95636051       0.00072862       9.99111592       53       0.00957600       0.11391300       0.25028000 
I      20.19277401       0.77605092      16.24434382       53      -0.36914300      -0.20607200      -0.69075900 
I      18.89233939       0.75122956      22.28099906       53       0.01709100      -0.06577200       0.51329000 
I      18.69038947       6.54739577       3.05822017       53       0.01497700       0.09587700      -0.24194600 
I      19.94467632       7.15277893       9.21203364       53       0.15911600      -0.13352500      -0.00972300 
I      19.80130198       6.42635864      15.56688600       53      -0.00752400      -0.04309600       0.22317400 
I      19.67364885       6.82154127      22.21868667       53       0.33951600       0.87759300      -0.09207100 
I      19.08041132      13.59292284       3.48634376       53       0.05766200      -0.22308400      -0.30412400 
I      18.81761430      13.54890650       9.85003930       53      -0.05794800      -0.03807500      -0.86679800 
I      19.59949919      13.28505133      15.82154326       53       0.10916800       0.04872600       0.24400500 
I      19.40219106      13.48944307      22.29116241       53       0.09530400      -0.09568800       0.10548400 
I      18.50852943      19.53325650       3.50772258       53       0.08053900      -0.06586100      -0.18280300 
I      20.09092783      19.21222755       9.88291576       53      -0.14426200       0.50270000      -0.10483900 
I      19.79865457      19.68745730      16.20644867       53      -0.02471300      -0.02526600      -0.66757300 
I      19.52454333      20.18735120      22.64732019       53      -0.80575700      -0.29398500      -0.42518800 
I       3.23372219       0.48836502      -0.25198768       53      -0.18272600      -0.52539500       0.40075600 
I       2.98602357      -0.14695897       6.24309981       53       0.40592200      -0.10417200      -0.16025300 
I       3.14348653      -0.23250246      11.90935246       53       0.06538900      -0.23458600       0.35155900 
I       3.44327674       0.31500451      19.34347842       53      -0.27676600      -0.15604700       0.09862300 
I       3.38921395       6.60836178      -0.55650333       53      -0.23625700      -0.10154400       0.12113200 
I       3.28617558       6.77951528       6.99926744       53       1.21827600       0.16343500       0.22583600 
I       4.09602406       6.73930427      11.98751605       53      -0.45361600       0.28827900      -0.15750000 
I       3.25545776       7.94038393      19.37535114       53       0.71043700      -0.49266100      -0.21260700 
I       2.97787777      12.78893656      -0.10679836       53       0.83575600       0.13254600       0.13774600 
I       3.42489100      13.82532856       6.78002118       53       0.12285400       0.05297600      -0.24029100 
I       3.35273874      13.23664010      12.88792974       53       0.09733300       0.10863500      -0.00051500 
I       3.50891074      12.78022339      19.98922274       53       0.21585100       0.50176700      -0.15832600 
I       3.43277175      19.47081310      -0.26311648       53      -1.11913800      -0.18156500      -0.26477400 
I       3.04420008      19.91939642       7.12403634       53       0.27644200      -0.13086300       0.10655900 
I       3.28662504      20.01335177      12.29948113       53       0.08015700       0.06218100       0.02147300 
I       3.89353095      18.99090326      20.46197943       53      -0.75553600       0.00020400       0.08902300 
I       9.62129582       0.37042074      -0.61410138       53       0.21519600      -0.18635000      -0.19067500 
I       9.51103477      -0.10818001       6.61540004       53       0.29265600       0.02442100       0.09822400 
I       9.72997467       0.13366549      12.25775444       53       0.23945500      -0.03949700      -0.04020600 
I       9.97591876       0.25068162      19.21746895       53       0.08598200      -0.28967700       0.25317700 
I       9.60669425       6.42497094       0.07224295       53       0.47727300       0.27140800      -0.03127100 
I       9.90877412       6.42877426       6.67893990       53      -0.04231600       0.12487000      -0.18421400 
I      10.08244200       6.24124451      12.77264698       53       0.58245400       0.29564000       0.15869900 
I      10.19221630       6.07989056      19.06855995       53      -0.61382700       0.09673800       0.08998600 
I       9.73563934      12.43762918       0.77576370       53       0.10578500       0.27905400      -0.32732500 
I      10.07243485      14.11921023       6.74231246       53      -0.11763100      -0.10056900       0.13540800 
I      10.00356591      13.19211685      12.70170001       53      -0.35063700       0.10965400       0.44991200 
I       9.77031467      12.49711780      18.44070050       53       0.33047400       0.22539000       0.19188900 
I       9.35792437      18.30696850      -0.11791808       53       0.49291700      -0.43065700       0.22266900 
I       9.80198987      19.60262126       6.80580193       53      -0.05572500      -0.28642000       0.02183100 
I       9.62816780      19.84208137      12.95044671       53       0.59488500       0.14103500      -0.06019200 
I       9.93027689      19.12548481      18.55123768       53       0.15507000       0.36743100       0.07593700 
I      16.19553352      -0.00871922       0.56406362       53      -0.17815400       0.00659700      -0.11304800 
I      16.13965372       0.47378159       5.44094868       53      -0.39364400      -0.20036600       0.51289300 
I      15.92949249       0.40401070      13.89369866       53       0.31130800      -0.04751100      -0.24774500 
I      16.44996101       0.51985479      18.85013401       53      -0.26261400      -0.04127500      -0.20838200 
I      16.27611576       7.38378284      -0.24770164       53      -0.09631900      -0.39210100       0.12624000 
I      16.40647375       7.26190624       6.72885270       53      -0.17273300       0.08328500      -0.04678400 
I      16.46442150       7.11112682      12.77645231       53       0.44248400      -0.04263500      -0.30451000 
I      16.53981675       6.42183174      18.94333151       53       0.38434400      -0.10876700       0.09491800 
I      16.34556216      12.57718709      -0.31761564       53      -0.32212900       0.04780200       0.07044700 
I      16.30639923      13.21357327       6.38074297       53       0.26320000       0.01898400       0.38929200 
I      16.23313339      12.80296068      13.48686520       53       0.85191000       0.17466500       0.06806400 
I      16.44211855      13.83087633      19.05774759       53      -0.12438600      -0.19147700       0.02137800 
I      16.10127786      20.41735742      -0.23441017       53       0.03889000      -0.05589700      -0.11911300 
I      16.21413089      19.27107422       6.78462164       53       0.07810200       0.03334600       0.14047600 
I      16.20733752      19.64826314      12.81202959       53       0.50023900       0.12159700       0.07855100 
I      16.69790452      20.18722725      19.34083000       53      -0.40471000      -0.14727300       0.00623900 
I      22.26156725       0.57156343      -0.79517737       53       0.26467900      -0.10235500       0.39194500 
I      22.42300888       0.23248130       6.41821384       53       0.06522900      -0.09471900       0.11885400 
I      22.42009441       1.22072410      12.10013025       53      -0.08287900      -0.13940300       0.39415300 
I      22.71338451      -0.88568111      19.29497649       53       0.42468300       0.42461400      -0.18630100 
I      22.75294450       6.89226350      -0.23515794       53      -0.16521000       0.09589900       0.52186100 
I      22.56322688       5.75106046       5.01902488       53       0.11077900       0.44894600       0.44676600 
I      23.44482652       6.27288947      13.08723024       53      -0.17111600      -0.00509100      -0.04756700 
I      23.10246510       6.95786626      18.36180728       53      -0.02022100      -0.10609500      -0.03429400 
I      22.59808764      13.83688969       0.35607816       53      -0.76090000      -0.24074000      -0.11624500 
I      22.85105890      13.12365808       6.66737776       53      -0.37103600       0.23083800      -0.24920400 
I      23.04989482      13.17243310      12.70419122       53      -0.62128600      -0.11442200       0.21216500 
I      22.98385771      13.46217283      19.67193161       53      -0.16194200      -0.07810800      -0.13417600 
I      22.42732415      19.67854257      -0.85679541       53       0.52117800      -0.09284000       0.72268800 
I      22.91414930      19.03712964       6.07462194       53      -0.56880700       0.15822200      -0.03148500 
I      22.78620794      19.91289127      13.29838210       53      -0.22831100       0.07758500      -0.09028300 
I      23.08375486      20.42973082      19.24495586       53       0.23175400      -0.19902200      -0.17363200 
I       0.37236775       3.32036919       0.04044481       53      -0.13067200      -0.29938100      -0.02810000 
I       1.29742039       3.25245058       6.76785740       53      -0.68643900      -0.04535700      -0.29529900 
I       2.47889389       3.55104860      13.98705035       53      -0.24175100      -0.19581600       0.08253700 
I       0.51815267       3.47275299      19.53270223       53      -0.13026700      -0.02353400      -0.19952100 
I      -0.75337812       9.86694564       0.33024097       53       0.25004600      -0.08949600      -0.00358900 
I       0.08404796       9.54749082       6.56159624       53      -0.29887700       0.55339400      -0.22906000 
I       0.75944288       9.78230007      11.79636438       53      -0.21626500      -0.46072500       0.55862000 
I       0.21173435      10.02731500      19.74171560       53      -0.42155500      -0.27118500      -0.09915100 
I      -0.59053570      16.06321542       0.19249301       53       0.06952300       0.89350200       0.07425100 
I      -0.17991001      16.24432266       7.43599235       53       0.06731700      -0.05061200      -0.07044700 
I       0.40598693      16.40636088      12.81463367       53      -0.23201500      -0.18008000      -0.09167900 
I      -0.47841028      16.18109420      19.12781074       53      -0.04772000       1.17330500       0.21679700 
I      -0.56311732      22.77507108       0.55948129       53       0.10662400      -0.14764300      -0.01566800 
I      -0.03722801      22.70362930       5.17705722       53      -0.02995800      -0.55707500       0.16487600 
I      -0.41043321      23.15560881      12.65612868       53       0.04840700      -0.00339400       0.20720400 
I       0.66867310      22.70640369      18.53395242       53       0.28469400      -0.15701500       0.01703800 
I       6.26926251       3.51972008      -0.52319756       53       0.16474300      -0.52606700       0.19611600 
I       6.61992593       3.38834727       6.91904397       53       0.11363100      -0.61301900       0.11172400 
I       6.88014004       3.83782952      11.78309811       53       0.08262100      -0.57021200      -0.09307400 
I       6.92144951       3.32071183      19.25850230       53      -0.02467300       0.32310500       0.27260500 
I       6.42358526       9.61862724       0.50465158       53       0.08002400       0.50644300       0.18128000 
I       7.33304266      10.12105166       6.63712654       53       0.06854800      -1.20104600      -0.09188100 
I       6.50817137      10.03377581      12.81299101       53       0.33590300       0.33366600      -0.02350100 
I       6.37939961      10.02505558      18.67436089       53       0.18463100       0.41827000      -0.31349600 
I       6.16390023      15.98672170      -0.73443609       53      -0.18057300      -0.40785200      -0.28180900 
I       6.45784034      16.22756345       7.20144714       53       0.13665400       0.65222000      -0.25440000 
I       7.26523087      16.77572346      12.50179486       53      -0.09134600      -0.27322300      -0.24623300 
I       7.01578478      16.18602522      19.95230110       53      -0.05028100      -0.25654100       0.15313800 
I       6.56981561      22.43251113       0.07751459       53      -0.07642900       0.25254700      -0.14575200 
I       6.71916904      22.62726054       5.75596528       53      -0.11038600       0.36741400       0.20332200 
I       7.00697789      23.19882599      13.49319500       53       0.01074000      -0.26665100      -0.24476500 
I       6.83203316      22.46625629      18.83298883       53      -0.24490100       0.20062600       0.24810700 
I      12.48450657       3.36503756      -0.25388632       53       0.18181500       0.32401100       0.23053500 
I      12.54426125       3.47561908       5.71503372       53       0.20605200      -0.37974000      -0.19057400 
I      12.99377273       3.16766795      12.80247493       53       0.03020800      -0.20604500       0.08311300 
I      13.42017304       3.41487881      18.80718187       53      -0.03906500      -0.11523000       0.03279100 
I      12.76038444       9.98067846      -0.78564488       53       0.17557900       0.00683400       0.19840900 
I      13.32086140       9.83764172       7.57726750       53      -0.18299800       0.05644000      -0.05143200 
I      13.15788091       9.87100594      12.76394086       53      -0.44809500      -0.18220800      -0.18779900 
I      12.76224881      10.00726039      20.11207990       53       0.19448800      -0.30159500      -0.13134500 
I      13.59543924      16.82335669      -0.37966097       53      -0.02167100      -0.50449600       0.39968500 
I      13.64090677      16.08606558       5.94395356       53      -0.41712100       0.12549600      -0.10362200 
I      13.58399703      16.62306958      13.25685596       53      -0.33579200       0.11068200       0.19065000 
I      13.25764504      16.38781490      18.84926833       53       0.13303500       0.13399600       0.00602100 
I      13.09109201      22.92089329      -0.16450726       53      -0.06641900       0.04854200       0.14339400 
I      13.28130142      22.81974146       6.73151623       53       0.00895600      -0.23154500       0.19506600 
I      13.91544128      22.86805695      12.29621294       53      -0.09455600      -0.21302300       0.12355300 
I      13.62016587      22.73680406      19.67920266       53      -0.19712200       0.28451800      -0.09590500 
I      18.90269926       3.49405219       0.14294301       53      -0.00590100      -0.22262900      -0.11665200 
I      18.73732632       3.69205871       5.93660189       53       0.06033100       0.12303400       0.05193200 
I      18.90886580       3.40250844      12.58193771       53      -0.34848500       1.48399100      -0.30267400 
I      20.49794370       3.27860925      19.11013648       53       0.17068700       0.03834300       0.30212400 
I      19.95495556       9.82879452      -0.23849970       53       0.00072100       0.42495500       0.05908500 
I      19.88452861      10.09853204       6.15160645       53      -0.19636800      -0.03076300      -0.23306200 
I      20.33775675       9.80885278      12.92904371       53      -0.10676700      -0.39002900      -0.13259000 
I      19.66815650       9.63295873      18.70854947       53      -0.03940400       0.48389000       0.05790700 
I      18.55289949      16.26346927      -0.31720044       53       0.29784200       0.29681100       0.28480100 
I      19.61683686      16.42857413       6.74663176       53      -0.28925000      -0.09495600       0.01802300 
I      19.98545973      16.40311687      12.91191062       53      -0.00647500      -0.29438900       0.18616800 
I      20.22226940      16.57733802      19.00750424       53       0.04828900      -0.18914300      -0.08071800 
I      20.34652535      22.91951063      -0.13391844       53      -0.18762000       0.24320000       0.41087300 
I      19.77168263      22.74939009       6.29346812       53      -0.00813600      -0.19672500      -0.00139200 
I      19.47430199      23.29155790      12.88546978       53      -0.10032200       0.10012900       0.13048000 
I      19.93613446      22.90061596      18.69019597       53      -0.37822000       0.34581200      -0.00995700 
H       2.89495247       3.87897574       2.35248132        1       0.45764100      -1.82186700       1.28797300 
H       2.84874423       4.17525186       8.67487545        1       1.73461600      -1.33867000       1.72377500 
H       2.71784708       5.11005164      17.62335523        1       0.40893800      -0.28698600       0.15152600 
H       3.49525547       4.00720431      21.12424312        1      -0.21792400      -0.41099800       0.23926700 
H       3.25434720      10.91901854       4.48260538        1       1.15153100      -0.18286100       1.77204600 
H       2.07992607      10.73318990       9.32406231        1       0.73726700      -1.05851500       0.13644700 
H       3.49711480      10.31949857      14.66242914        1      -1.57612800       0.39080900      -3.26381200 
H       3.94614457      10.86727059      23.79829557        1      -1.08313000      -1.92404800      -1.23676300 
H       3.25885394      15.19871259       2.16616593        1      -0.80287600      -1.24664300      -1.22641500 
H       2.90206026      15.78926542       9.95210719        1      -1.10073000      -0.23248300      -0.05182200 
H       3.14910081      14.48828257      16.35384400        1      -0.24346200       0.13371600      -0.18024300 
H       1.43250884      16.48179141      21.97050936        1      -1.14343700       0.54510500      -0.13560900 
H       3.93328644      21.60875544       3.36763055        1       0.36372900      -2.52641800       0.14489500 
H       3.94692156      22.53446514       8.19052336        1       0.47073800       1.61097900      -0.01733700 
H       3.84378040      24.32975180      16.01824573        1      -0.37496900       1.27156600       0.44969100 
H       2.64090289      23.27711254      23.27750355        1       0.40122500      -0.43944500      -1.24015800 
H      10.65416063       3.05222394       2.67119643        1       1.39585300      -2.07445300      -0.32726800 
H       9.89758888       2.31744924       8.86900407        1       0.20637000       1.55903500       0.35495400 
H       9.15298742       2.67159047      15.51942309        1       1.30635900       0.63826300       0.89542200 
H       9.72256757       2.66807940      21.46201414        1      -0.17121500      -1.30950300      -0.96138300 
H       8.92182731      10.62992378       3.36650890        1      -1.47470600       1.31521600      -0.32484600 
H       9.15602081      11.81200295      10.51991870        1       1.96932600      -1.91897200      -1.18378100 
H       9.87701930       8.10906637      16.68296535        1       0.02287100       0.92632200      -0.36126800 
H      10.63302166       8.04311795      21.86397504        1      -1.46410500       2.12753300       0.51080600 
H       8.66566947      16.13912363       2.51022241        1      -0.96094500      -1.53400600      -1.13362100 
H      10.05798545      15.57667043      10.97894352        1      -0.24272100      -0.80777500       2.29908900 
H       8.77487035      15.72043679      16.02047895        1      -0.89626400      -0.92315300       0.32953900 
H      11.31506483      17.12793582      21.84574449        1      -1.00887200      -0.62144000      -0.80489700 
H      10.09278574      22.43362573       2.53073354        1      -0.86821400      -0.03092500       0.98824400 
H       8.91138278      23.28855173       9.81287882        1      -0.98820000      -0.42164100      -0.19701000 
H       9.87018562      21.68601910      15.41185479        1      -1.42275600       2.16257200       1.91659000 
H       9.28840038      22.20689173      22.81614776        1      -0.07620600       1.27231200      -0.89903700 
H      15.68987014       2.69402342       1.44401555        1      -1.28678500       1.66159300       2.85381800 
H      16.74041122       3.75339155       8.11816653        1       0.86204200       0.96455500       0.87274900 
H      15.71106151       3.09112787      15.45749868        1       2.45957400       2.30310000       1.55254700 
H      17.53678885       3.54012539      21.76604505        1       0.43609700       1.20029100       0.29495700 
H      15.87752989       9.32302129       2.68316571        1      -1.06888400      -0.44903600      -0.62852000 
H      16.58009830      11.45777505      10.05002609        1       0.30867500      -1.01304300      -0.16361300 
H      15.38749197       9.14928185      16.26905029        1       0.86830600       0.74496000      -0.56317600 
H      15.12019325      10.13437941      21.69889234        1      -2.39054900      -1.31026300       0.48629700 
H      15.31630012      17.38571818       3.21145251        1       0.43138800      -0.92840900       0.22445100 
H      15.89546718      17.66987588      10.51442333        1      -0.83022400       0.45967400      -0.10202900 
H      16.83142388      16.07902128      17.09790429        1       0.13690900       1.89274700      -2.18116000 
H      16.94128384      17.61601262      23.04881247        1       0.25043100      -0.06714200       0.11407100 
H      15.93495359      23.17110427       4.40920753        1       2.25479500       0.85946000      -0.84645700 
H      17.31068572      22.50430160       8.86164534        1       2.27939200      -0.47757100      -1.58530200 
H      17.25262309      21.67662366      16.09228856        1      -0.91463300       0.57435400       0.63358300 
H      15.87475348      22.40478135      22.54140565        1      -1.12301600      -0.69446700       0.94852100 
H      22.78799169       4.43083829       1.61210745        1      -0.13584400      -0.88663300       1.14231000 
H      22.30820480       2.89021192       8.59128098        1      -0.24033400       0.34903100      -0.54886200 
H      21.76447596       3.18369854      16.26104054        1      -0.44396300       1.79993200       0.25304500 
H      23.17860208       4.84164740      23.35838208        1      -0.21294300      -0.13415700       0.27652800 
H      23.52455216       8.59494220       4.09126739        1      -1.19377200       0.45525100       0.69361500 
H      21.02567421      10.05233086       9.33486056        1       1.98231300      -0.11993900       0.05777700 
H      24.08012330      11.13892791      16.40411557        1      -0.43038500       0.24206400      -0.60289500 
H      23.13362735       9.18929937      20.75168087        1      -0.44850700       0.03572500       0.45446200 
H      21.79178147      17.02376573       3.24585775        1      -0.13979000       0.61466300      -0.07349700 
H      22.66988415      15.55423849       9.01595498        1       0.00834600       0.38402300       0.65080600 
H      22.63491455      17.46631554      14.84801188        1       1.13172400      -0.25265300       1.26203400 
H      23.89811109      17.17283094      21.55825007        1      -1.52892900      -0.16254100       1.78247300 
H      23.51266351      21.67127039       3.45411228        1       2.13330700      -0.54993800      -0.08594100 
H      21.68016497      24.16050601      10.90139970        1       0.14571100       1.13235900       2.20150400 
H      22.16455635      24.01907264      15.35539351        1      -0.29036600      -0.09297600      -0.22172400 
H      23.62738494      23.58762542      21.78147299        1      -0.30648800       0.71465600      -1.32631500 
H       1.67815161       3.35761131       3.54291691        1       2.12690300      -0.80865300      -0.34492800 
H       4.47727731       3.22782170       8.88437961        1      -1.26204200       0.11445600       1.17335300 
H       4.10776860       4.91916199      16.53028426        1       1.13424400       0.76527200       0.20711800 
H       4.80387318       2.80990379      21.71973805        1      -0.99840400       0.59624800       0.05376300 