768
Lattice="25.1998229949 0.234869521197 0.00257515477107 0.231254943864 25.1990049128 0.330209726879 -0.000211589771042 0.328144532708 25.1241450369" Properties=species:S:1:pos:R:3:Z:I:1:forces:R:3 energy=-99799.9927894 stress="-2606.101291 581.646219 -821.873221 581.646219 -3101.781772 -1146.992704 -821.873221 -1146.992704 969.706003" pbc="T T T"
I      -0.63495263      -0.08143671       2.89117823       53       0.22621600       0.12153100       0.54456100 
I       0.86125715      -0.22614071       9.12730798       53      -0.32750100       0.14291700       0.44609100 
I      -0.31625943       0.19274268      15.60897058       53      -0.10893300       0.00222200       0.10539000 
I      -0.20244753      -0.02694211      22.02178266       53       0.10472900       0.04156300      -0.70555800 
I      -0.20130573       6.65349105       3.48093938       53       0.12824300      -0.10675000      -0.28829300 
I      -0.24055027       6.60678724       9.56551429       53       0.01175700       0.17726100      -0.03985600 
I       0.32897822       7.08908614      15.96474855       53      -0.10106100      -0.09998300      -0.03267500 
I       0.35991128       6.55535630      22.07015189       53      -0.34713900      -0.21775900       0.36198100 
I      -0.48155784      13.03620766       3.52203460       53       0.23322100      -0.05446700      -0.12156300 
I       0.79309892      11.80336377       9.66085352       53       0.11108400       0.33098500      -0.19181900 
I       0.30086895      13.99194110      16.07804853       53      -0.00959900      -0.41277300      -0.47265500 
I       1.10262062      12.89535810      22.28454400       53      -0.19545000       0.11667400       0.14334200 
I      -0.58340468      18.75078421       3.62009329       53       0.36935900      -0.27493600       0.13773900 
I       0.03137672      19.98710227       9.95202055       53       0.03677900       0.28902800      -0.67572900 
I      -0.11455880      19.37440070      16.19864105       53      -0.05429000       0.00221100      -0.61429200 
I       0.16862535      19.57197387      22.64886356       53       0.04291200       0.07939000      -0.33024900 
I       6.31031682      -0.29097884       3.10394296       53       0.03489200       0.06380000       0.73593100 
I       5.50517387      -0.20424556       9.45685271       53       0.11295200      -0.23796100       0.18744900 
I       6.81542841       0.46850071      15.59341630       53       0.09171100      -0.46730000      -0.21617400 
I       5.12217590      -0.15644675      22.34942406       53       0.09840100       0.16437200      -0.55228000 
I       5.98644309       5.95900565       3.44912681       53      -0.04512500      -0.03215600      -0.09876700 
I       7.13711019       7.04770230       9.51035664       53      -0.10073700       0.01496800      -0.31598100 
I       6.31570602       4.64815826      15.40021241       53      -0.01936600       0.47891700      -0.27013100 
I       6.64166250       6.52436864      22.14084335       53      -0.00426300       0.08118000      -0.27404600 
I       6.52226249      12.79554428       3.08910828       53       0.06869200      -0.04680100       0.00749600 
I       5.97775231      12.61117158       9.48684385       53       0.36116200       0.05947000      -0.12524700 
I       6.56833056      13.35754231      15.89596237       53      -0.05327900       0.26531700       0.18692700 
I       5.10086774      13.06420771      22.10615140       53       0.50928900      -0.09810800      -0.18096600 
I       6.80196369      19.10930894       3.85965582       53       0.07711800       0.16861500      -1.37575100 
I       6.06189483      17.92291437       9.68748361       53       0.00664300       0.74057100       0.29351000 
I       6.50596228      19.72126166      16.29222418       53       0.16010800      -0.07528900      -0.65302200 
I       5.85952530      19.00002526      22.28714939       53      -0.25725500      -0.09564400       0.59997300 
I      11.24178794       0.48109859       3.05687252       53      -0.14953000      -0.22987800       0.14155600 
I      13.02615568       1.35942430       8.91627497       53      -0.11119000      -0.16069500       0.39537000 
I      12.02568904       0.14453044      15.76224251       53      -0.10073000      -0.18180000      -0.44577600 
I      13.00842407       0.32264710      21.91973204       53      -0.45443500       0.17739500       0.78692800 
I      12.56156500       6.69963518       2.93799710       53       0.18399000       0.21312700      -0.27322300 
I      12.92597621       6.25662957       9.26029556       53      -0.06770900      -0.00246900      -0.01371500 
I      12.54953851       6.88138006      15.61203620       53       0.06023900       0.07470800      -0.06021400 
I      13.12501393       6.00576699      21.79937451       53      -0.16095800       0.17823900       0.44277700 
I      12.16332769      11.34855302       2.58867214       53       0.09807500      -0.13232500       0.26063900 
I      12.20632527      12.51774836       8.87947200       53      -0.05019000       0.05879300      -0.05431600 
I      13.71390044      12.92239381      15.59113074       53       0.07621800      -0.22414900       0.45803400 
I      12.56141191      13.67514051      22.08316612       53       0.23040200       0.35521300      -0.74059900 
I      11.47533039      18.65010844       3.45191745       53       0.29831500       0.32020200      -0.19315300 
I      12.03756732      18.80603450       9.33629822       53       0.31917600       0.08501500       0.89142900 
I      12.61488659      18.85993333      15.83584455       53       0.16772000       0.57080100      -0.28792200 
I      13.00439703      18.40113163      22.19354285       53      -0.19621600       0.18532900       0.12752300 
I      19.61538877       0.97364447       2.32465003       53       0.08648900      -0.05035500       0.27675000 
I      18.53317925      -0.04594521       9.00188692       53       0.35824800       0.21599000      -0.14531200 
I      18.56976283       0.58262170      15.45223814       53      -0.19062600       0.10875200      -0.31083600 
I      18.33142206      -0.52649775      22.07792513       53      -0.12631500      -0.01589600      -0.06107600 
I      19.62723390       5.70643181       3.30412639       53      -0.19491400       0.10490400      -0.45286000 
I      18.85163355       6.49635981       9.58920747       53      -0.10555000       0.04569400      -0.29587100 
I      19.06064622       5.93820842      15.33047067       53      -0.07676100      -0.26391000       0.84106800 
I      20.52249265       7.08516051      22.11946986       53      -0.56540400       0.17398000       0.38822300 
I      19.03940826      13.34655330       3.98109762       53      -0.01887500       0.43097300      -0.82406300 
I      19.36800133      10.95028939       9.68806962       53       0.04707500       0.07754100       0.02080200 
I      19.65597013      13.04380734      15.58317906       53       0.19814400      -0.07341200       0.54952100 
I      19.19146720      12.87165907      22.41593540       53       0.06358800       0.05613100       0.04736900 
I      18.14682218      18.01204632       3.92027677       53      -0.17509700       0.08337700      -0.55808000 
I      19.78128783      19.78710606       9.73252980       53      -0.02892500       0.22413500      -0.14249400 
I      19.13304697      18.59637536      15.71627097       53      -0.05589100       0.36042000      -0.00173700 
I      18.91058032      19.85248730      22.07711680       53       0.01922900       0.12592800       0.38785800 
I       3.24773527      -1.07012453       0.27796850       53       0.04613000       0.12551600       0.33409100 
I       3.12251898       0.66829313       6.39822506       53       0.73457200      -0.14364400      -0.29544800 
I       3.17579865       0.67081953      12.65365725       53       0.50546400      -0.25028100       0.15916600 
I       2.89443984       0.71693537      18.01175087       53       0.12557900       0.46031000       0.40408700 
I       3.55910766       5.99708498      -0.35946177       53      -0.06502000      -0.24474100       0.17474400 
I       3.20062291       6.32766133       7.20776557       53       0.56285200       0.42541500      -0.14591300 
I       2.94819339       6.48180204      12.94977957       53       0.55943100      -0.03737200       0.01706100 
I       3.09239523       5.39162134      19.31456662       53       0.36812700       0.42771900      -0.20510100 
I       3.20687895      12.02385396       0.30795672       53      -0.64911700      -0.03464900       0.43195600 
I       3.31662383      12.17925251       5.86892886       53       0.00406700       0.82862700       0.42638400 
I       3.57249340      12.08347742      12.69396559       53      -0.43653600       0.29723300       0.11511700 
I       3.52707082      14.32547191      18.53098047       53      -0.20691000      -0.38068700       0.42972000 
I       3.60271758      19.92426401       0.93221578       53      -0.34539700      -0.13618000      -0.00744200 
I       3.00299611      18.69920409       5.96781441       53       0.09934000       0.11964000      -0.18492900 
I       3.54091094      19.41474609      12.93301425       53      -0.40949800      -0.13069000      -0.00728600 
I       3.30797498      19.36352089      18.74625990       53      -0.11236000       0.27096700       0.14705000 
I       9.22795060       0.45635818      -1.17794366       53      -0.11776600      -0.36729500       0.03865900 
I       9.22188763       0.01959399       7.46031600       53       0.10100000       0.69538000      -0.48072400 
I       9.43226051       0.99766137      12.00251752       53       0.32038900      -0.15068600       0.09693900 
I       9.28984402       0.14431397      19.36770198       53      -0.37792300      -0.07297100       0.13961600 
I       9.65594308       7.33300332      -0.25842619       53      -0.18475200       0.03345800      -0.07054400 
I       9.65609714       6.09832142       5.98558405       53      -1.04214700      -0.27030500       0.01530000 
I       9.59530360       6.87503334      12.90544713       53       0.00156600      -0.10313100      -0.14603000 
I      10.23861743       6.61127256      19.10607464       53      -1.65863000       0.05258000       0.04037900 
I       8.99178619      12.41872142      -0.79841791       53       0.67291100      -0.19530200      -0.12310100 
I       9.32561439      12.78556641       5.83353194       53       0.12597600       0.15405900      -0.08187800 
I      10.24284923      12.26955161      13.17067344       53      -0.10150200       0.28143500       0.06651900 
I       9.52076647      12.86274110      19.16237702       53      -0.04025400       0.01331600       0.00780700 
I       9.27221869      18.62891046      -1.00987410       53       0.85341400      -0.27703800       0.16283100 
I       9.36626011      18.91815855       7.21929673       53       0.03517600       0.08973500      -0.38826100 
I       9.47244209      19.17972348      12.32869534       53       0.47338000       0.13029800       0.07265300 
I       9.55132315      19.55266362      19.48420311       53       0.33596700      -0.02145100      -0.23650400 
I      15.09395816       0.99352513       0.58273871       53       0.35157400      -0.41256800       0.09360200 
I      15.57380865       0.72825201       5.61561397       53       0.25701700      -0.44601800      -0.24416900 
I      15.63868773       0.62760451      11.90674536       53       0.10430700      -0.11630700       0.10780400 
I      15.46316086       0.20101126      19.37908298       53       0.27642700      -0.02004200      -0.59127100 
I      16.25783938       6.98483674      -0.47493128       53      -0.19274500      -0.13686900      -0.00065400 
I      15.84674191       6.29525300       6.10594548       53      -0.20006500       0.51705300       0.10945000 
I      16.02308102       7.01231415      12.89578518       53      -0.11489100      -0.23005800      -0.18331200 
I      15.91253073       7.57537989      19.06628406       53       0.90473300      -0.26225300       0.02841600 
I      16.09896764      13.20026773       0.70791404       53       0.17631000      -0.11334800      -0.26002100 
I      15.67474868      11.95029385       6.25457316       53       0.02513800       0.75749000       0.04402400 
I      16.71101787      11.99246359      12.76049448       53      -0.23266900      -0.10593300      -0.17790500 
I      15.88135292      13.62226647      19.32310237       53       0.21334200      -0.08471200      -0.09242000 
I      16.17568892      18.17630141       0.42234488       53      -0.29282100       0.41901400       0.06944400 
I      15.71432766      19.04969426       7.93613362       53      -0.33438500       0.08543100      -0.21107900 
I      15.47465788      18.41287145      11.99470625       53       0.46076900       0.38915000       0.12591200 
I      15.83791852      18.95689313      19.51676941       53       0.09279400      -0.09190100      -0.10460200 
I      21.82788258      -0.01444368      -0.75500886       53       0.26523500       0.09089200      -0.10263800 
I      22.00498614       0.81701441       5.97494801       53       0.10205300       0.32296600      -0.07830800 
I      22.31356593       0.21807787      11.72742156       53      -0.50677800      -0.24155900      -0.07910400 
I      21.48912248       1.04273584      19.12679094       53       0.06451000       0.19665400      -0.10461000 
I      22.44860018       5.60844332      -0.15695086       53      -0.38792900       0.02625500       0.34758800 
I      21.88608341       7.17731712       6.57981589       53       0.74897200      -0.33671300       0.04232100 
I      22.45619986       5.20821201      13.25430406       53       0.02273400       0.46482900      -0.58318000 
I      22.33627332       7.05122717      19.03136688       53       0.20974900       0.18719900      -0.39108700 
I      22.31502756      12.69746121      -0.03299630       53       0.29094400       0.64532600       0.17666200 
I      22.41217164      13.17406668       6.84825213       53      -0.03985800      -0.04416500       0.11494300 
I      22.61733376      13.94199519      12.21703347       53      -0.01819800      -0.42304300       0.05831500 
I      22.37753040      13.32912590      19.58495300       53      -0.08453800      -0.07358300      -0.11559500 
I      22.33368549      18.89609666       0.81143117       53      -0.03462900       0.29842100       0.12716900 
I      21.99084863      18.82027732       6.80522140       53       0.28833900       0.21769000       0.10682000 
I      22.25301810      19.69751583      12.84171960       53      -0.10234000       0.04423600       0.16428900 
I      22.00534691      19.32093089      19.24244864       53      -0.17222400       0.14343700      -0.12127600 
I       0.31743731       3.03474433       0.49824321       53       0.31584400      -0.10390900      -0.30583500 
I       0.89183236       3.56354227       6.20970637       53      -0.57734500      -0.18942600      -0.28949900 
I       0.59742128       3.33388839      11.77497563       53      -0.22438600       0.02575300       0.17294000 
I      -0.71646247       3.61531156      18.58451366       53       0.37922500       0.02092900       0.14726500 
I      -0.54220025       9.25243261       0.08764789       53       0.68112600       0.02645400       0.37558200 
I       0.05889411       9.72103180       5.83143652       53       0.12301500       0.31714700       0.92215900 
I       0.22919365      10.01303446      13.39946634       53      -0.20322000       0.13625400      -0.26776900 
I       1.21057138       9.57759246      19.83172615       53      -0.06950300       0.46262400      -0.12586700 
I       1.15572868      16.06615953       0.65304891       53      -0.15497600      -0.56681800      -0.12707700 
I       0.42773409      16.08450543       7.43004892       53       0.05012800      -0.39294400      -0.41854900 
I       0.57470707      16.25519402      11.71807749       53       0.25359300      -0.15395300       0.31829300 
I       0.07119362      16.32169854      19.54765664       53      -0.22961800      -0.15268300       0.35862700 
I       0.05046855      22.13118335       0.98612144       53       0.11442900      -0.25640800      -0.30735200 
I      -0.15149828      22.43263052       6.53028828       53       0.09258500       0.04789100      -0.14192300 
I       0.81898600      22.42166100      13.24366996       53      -0.07024100      -0.00354200       0.20024200 
I      -0.08155177      22.49552338      19.21404003       53      -0.14037300       0.10924500      -0.18457200 
I       6.77492798       3.29360735       0.63625142       53       0.08920900      -0.31512400       0.06636900 
I       6.59768986       3.20157263       6.78251499       53      -0.10991900      -0.18818700      -0.09625000 
I       6.46141630       3.52434843      11.38956828       53      -0.03895100      -0.38333300      -0.12709800 
I       6.87993696       3.25354473      19.03223859       53      -0.06340600       0.39364500       0.16748200 
I       6.45118978       9.49093134       1.01399864       53      -0.05430900      -0.18015200      -0.34756300 
I       6.06161108       9.36031902       6.01636598       53      -0.00274300      -0.11226900       0.08742600 
I       6.09567314       9.53666203      14.44988279       53       0.12411200       0.00666200      -0.19506100 
I       6.16914549      10.17135821      19.37147159       53      -0.24143900      -0.38165200      -0.43350000 
I       6.57180960      15.71275683       0.17472635       53      -0.25497800      -0.04514600       0.04145100 
I       6.42262224      15.58904117       6.03610720       53      -0.31775600      -0.43280000       0.30032900 
I       6.65874180      15.79926584      12.74869518       53       0.13707400      -0.06879800       0.38122900 
I       7.11717395      16.24886778      19.35935930       53      -0.24003700      -0.66128200       0.13114100 
I       7.47833916      21.81715000       0.52743772       53       0.04487000       0.39035400       0.08961900 
I       6.30941878      21.80149528       6.88215914       53       0.15344700       0.49172900       0.17132800 
I       6.06573270      22.26791422      12.67931324       53       0.25380900       0.37616900       0.02740600 
I       6.51212666      22.17357151      19.91574874       53      -0.10777100       0.59274400      -0.19790800 
I      12.31877110       3.45102039       0.02659011       53      -0.14047500      -0.01920900      -0.00537100 
I      13.01845654       3.50927876       5.49427260       53      -0.36180900      -0.04490700       0.00449400 
I      12.86193471       3.60862454      12.52998839       53       0.14706300      -0.45510000       0.16967200 
I      12.57359831       3.56973200      18.35144509       53       0.01252300      -0.44229700       0.30134400 
I      13.21453298       9.68160395      -1.48093143       53      -0.09935500       0.03244700       0.09208400 
I      11.49414433       9.39762025       6.56896923       53      -0.03901600       0.92380600      -0.03130400 
I      13.21640803       9.70992870      11.70392730       53      -0.27934000      -0.09132900      -0.05040600 
I      12.79578805      10.02392987      19.57262034       53      -0.02878700       0.61981600      -0.00944700 
I      12.28872730      15.34803944       0.61410762       53       0.07703700       0.31150100      -0.05000200 
I      12.77149520      15.94665616       6.75594146       53      -0.02749500      -0.00477300      -0.24499200 
I      12.83342957      15.72861631      12.94124675       53      -0.23015200       0.69839300      -0.14813700 
I      12.49840496      16.20724895      18.06910730       53       0.05855600      -0.61236800       0.67349000 
I      12.84621369      21.84336666       0.59926708       53       0.08328300       0.04694500      -0.11603600 
I      12.64548813      22.43527588       7.48854910       53      -0.11410300       0.07456000      -0.38485200 
I      12.50441626      22.61478591      12.06944229       53      -0.14002300      -0.04558300       0.07568500 
I      12.93208404      22.41715424      19.48438155       53      -0.17029800      -0.28899600      -0.02482600 
I      18.54419849       3.07315324      -0.66576380       53      -0.11122500       0.09438000      -0.28096600 
I      19.15765574       3.64379330       6.75530376       53      -0.09601000      -0.37731000      -0.34015300 
I      19.42756628       3.07262182      12.56962686       53      -0.39358600       0.00496500      -0.24944200 
I      18.48181071       3.97844348      19.57416874       53       0.16716400      -0.01476900      -0.16716100 
I      19.42582091       9.52156700       0.46326947       53      -0.01133100       0.05777700      -0.07557700 
I      19.36272718       9.76917286       5.36306354       53      -0.26447800       0.21250500       0.15209400 
I      20.88440671       9.12921521      14.06383092       53       0.39568200       1.18156000       0.18256200 
I      19.40424461      10.10702907      19.07478276       53      -0.21041800       0.27413600       0.07358200 
I      19.47565177      15.99694042      -0.00546233       53       0.24604100      -0.29171200       0.07852200 
I      18.63678706      15.81447106       7.34255996       53      -0.09248500      -0.17350200       0.29814700 
I      18.90956722      15.36635317      12.28816273       53       0.32148100      -0.15740800      -0.08680200 
I      19.67511559      16.39388283      19.18406449       53       0.00385800      -0.35068900       0.18037000 
I      18.31723482      22.02908007       1.19001597       53      -0.33006000       0.33981300       0.07792900 
I      19.50094016      22.49325733       5.43288232       53      -0.51787500       0.15962000      -0.00543600 
I      18.19005474      22.17736647      13.08827044       53      -0.19372400       0.97095200       0.16750600 
I      18.83725813      22.58034943      18.21939942       53      -0.18844600      -0.16413500      -0.20393100 
H       3.70043208       2.70711756       1.87636541        1      -0.91023600       0.76584000       2.64634700 
H       3.10904452       3.62020153       8.10884938        1       0.35552800      -0.02526000      -0.92490200 
H       1.78756304       3.87785351      14.62558128        1      -0.96515600       2.40494200      -4.57220600 
H       2.26580858       3.35225770      20.56248116        1       0.23909900      -1.16071900      -0.02634300 
H       3.61405275       8.33963239       3.31110105        1       1.02242200      -0.48371000       1.80293900 
H       4.95758344       9.23049845      10.90917759        1      -0.10490300       0.32540800       0.29139700 
H       1.32443203      10.57862269      15.90347722        1       0.72741800       1.93435500       0.55990000 
H       4.17040123       8.32095691      23.07967009        1       0.05314600       1.95676100      -0.25523700 
H       4.58557839      15.09142103       3.99103844        1       0.50568100       0.59387500       1.32684000 
H       2.66446808      15.85563550       9.11788004        1       0.23102300      -0.58409900       0.61292700 
H       3.76806475      15.78708334      16.32276916        1       0.42364300      -1.36029100       0.12191900 
H       3.26401794      16.84937905      21.55346527        1       1.36805000      -0.03305200      -1.91091100 
H       3.51447977      23.78728089       4.41782671        1      -2.03165000      -2.15765200       1.31600800 
H       2.25348664      21.81795443       8.66878904        1      -0.86826500       0.52937400       0.31895600 
H       4.86800393      23.03714542      16.15573610        1       2.27681600      -1.30912200      -1.21796100 
H       3.46382108      22.87341589      21.49604741        1       0.53884100      -0.19932700      -0.07570700 
H      11.08131708       3.79526622       2.80472967        1       0.68731100       0.03696300       0.81092600 
H      10.03248902       4.82240780       8.47496404        1      -0.81616200      -1.35386500       0.51072000 
H      11.26131368       3.73923394      15.66695691        1      -1.90547700      -1.38420500       0.18697300 
H       9.48682532       5.20034028      22.28960266        1       0.86966400      -1.32150900      -0.13248200 
H      10.04735880       8.99763660       2.40240391        1      -1.54674200      -1.26622600       2.41601800 
H       9.00215311       9.62976153      11.41331411        1      -0.70929000       0.35452000      -0.00489800 
H      10.60660520      10.29024826      17.18374257        1      -1.95285700      -0.77779800      -1.44930900 
H       9.95513199      10.25978518      22.79984895        1       0.38454000       0.92275900       0.96902700 
H      10.59429106      15.41466877       3.48223134        1      -0.33117200       0.05218600      -0.13527400 
H       9.44754763      16.70464970       8.87335540        1      -0.17516800      -1.29032400       0.33505000 
H       9.60975508      16.94802669      14.82409734        1       0.44499700      -0.54482600      -0.01789600 
H       9.04583519      17.02154975      21.33462002        1       0.78172800       0.74462000      -1.10089800 
H      10.76625504      22.29288474       4.01401592        1       0.23273100       0.17382800       0.06614600 
H       9.07014656      21.44612295      10.00211662        1      -1.07858300      -2.76331200       0.96407600 
H      10.76705850      21.21767815      15.64947589        1      -1.40268900       0.34555000      -0.01512100 
H       8.41669884      22.99512779      22.50522531        1       0.97195600      -1.20916900      -0.77973900 
H      16.04241467       3.83896195       1.94745373        1       1.94702500      -0.33807000       0.68742300 
H      17.00618560       4.20570260       8.72778846        1       0.48569400       0.98359900      -0.49755500 
H      16.25634460       4.94364972      15.35562060        1      -0.22547100      -2.64085200       0.98331300 
H      15.48743420       2.07317900      21.21753092        1       0.36072500       2.69573400       1.16824400 
H      17.37423187       9.61990944       3.02811679        1      -1.37339700      -0.72145300       0.42262200 
H      16.24707366      10.47431576       8.33019080        1       0.29611700      -2.03050600      -0.01998000 
H      16.56667659       8.98150410      15.15272746        1      -0.95091300       0.95080400       1.00799000 
H      17.45246743       9.83489635      21.74454448        1      -2.18765000       1.05431600       0.92254800 
H      14.53749949      16.25243360       4.06559994        1      -0.09459500      -0.47680400       0.19351400 
H      15.89984704      14.73758638       8.68334486        1      -0.68163400      -0.61559300      -0.03325500 
H      17.08691928      14.90995209      15.52880634        1      -0.68580000       1.98430500       0.92372400 
H      17.47501393      16.40790333      23.25837179        1      -0.23257900      -0.22974500      -1.15760200 
H      14.46425920      21.42323225       4.01070849        1       2.03695700       0.86483600       0.74141800 
H      16.59580090      22.23562581       8.47400164        1       0.70294200      -0.27965300       0.27166800 
H      15.91907441      22.59601000      15.22155946        1      -1.01496600      -0.06821900       0.11582400 
H      13.97972837      22.85322125      22.60355507        1       1.85187900      -1.11194200      -0.23332400 
H      23.00305314       2.70485248       3.18112545        1       0.32839600      -1.02635000      -0.93896800 
H      22.53272126       3.96424162       9.81148009        1       0.23988500      -0.48052900       0.23914000 
H      22.19029588       2.17943802      16.24643596        1       0.34262400       0.79880200       0.72561800 
H      23.42512988       3.36747363      21.35073887        1       0.48089200      -0.60018600      -0.65230600 
H      21.96865705       8.08700395       2.79863745        1       1.25459500       1.31177000      -0.33641100 
H      22.10153640      10.16503684       8.14073508        1      -1.50668800      -0.27439700       0.14601700 
H      24.27387008      10.82968127      17.92797887        1      -0.93259500       0.10326100      -0.71741300 
H      23.77278162       9.63045968      22.37281399        1      -0.30102400      -1.44737800       0.93146200 
H      22.26309738      16.78535218       2.88742617        1      -0.17665400      -1.22621100       2.28446200 
H      22.13934662      16.04629154       8.54772459        1       0.73197300      -0.37940900      -1.46686400 
H      20.69817554      16.27260191      15.42950443        1       0.78480700      -0.42710300      -0.15614700 
H      21.44750365      17.88226378      22.15754626        1      -0.44330600       0.34351600       0.20047400 
H      23.03662571      21.13203792       3.80699629        1      -0.70939000       0.42290200      -1.17015900 
H      21.78526430      24.29624107       8.29433268        1      -0.18494600      -1.17048100      -0.13686700 
H      21.91261404      23.96031939      16.30979686        1      -0.66989900       1.49974600       1.48511400 
H      21.81469868      21.81765021      20.72977847        1       0.66757700      -2.21935500       0.20570200 
H       2.50795113       3.87648257       2.66538660        1       0.85495300      -1.72481800       0.26123600 
H       2.94719199       4.47492572       9.56434031        1       1.48824800      -1.13269600       0.47910900 
H       1.39355266       3.19625948      15.79457187        1       0.15649600      -0.75533600       1.65304600 
H       1.66313948       1.99857167      21.59998674        1       0.76026600       0.15738900      -0.26399500 