768
Lattice="25.8168853817 0.365527753754 0.015453470179 0.325044679246 25.9955375317 0.413660296001 -0.0158829562333 0.394572249914 25.7884931424" Properties=species:S:1:pos:R:3:Z:I:1:forces:R:3 energy=-99797.8253371 stress="56.796239 321.702847 -593.481634 321.702847 -3368.977878 -316.469457 -593.481634 -316.469457 -3639.353142" pbc="T T T"
I      -0.57296450       0.74014195       3.57893739       53      -0.32393700      -0.17031800      -0.36317200 
I      -0.22903749       0.53800153       9.56512305       53       0.09354700      -0.02151200       0.67179000 
I       0.22515907       0.71909412      16.38925406       53      -0.01521800      -0.31395300      -0.31698300 
I      -0.61975741       0.59826304      22.86046996       53       0.65209500       0.13729000      -0.49124000 
I       1.25590151       6.89029294       3.20638734       53      -0.05741200      -0.46340400       0.38964400 
I       0.33680236       5.41619946      10.24565675       53      -0.02497200       0.15810200      -0.01634500 
I       0.39503686       8.38626110      15.87694343       53       0.20306400      -0.25461900       0.52656600 
I      -0.00373693       7.00586382      22.65082658       53       0.25149700      -0.07175000      -0.50028400 
I      -0.17066351      12.77234127       3.51037416       53      -0.07481000       0.41447600       0.06373200 
I      -0.53135854      12.74629414       9.90632865       53       0.13098900       0.33637600       0.33185200 
I      -0.05000301      13.27547515      16.30463226       53       0.00057800       0.11447200       0.08714400 
I       0.13138360      13.26252334      22.88902275       53      -0.14788000      -0.02204600      -0.38616100 
I       0.18422644      18.78028722       3.58140092       53       0.04131800      -0.04142900       0.10014800 
I      -0.68201081      19.51904036       9.97194067       53      -0.03115700       0.12418500       0.14239000 
I       1.37012574      19.47053453      16.62942808       53       0.25348400      -0.06643900      -0.17399000 
I       0.11001867      20.45621104      22.81580843       53      -0.16594300      -0.13192900       0.11631700 
I       6.79753198       0.93489180       2.97469367       53      -0.19257200      -0.06671500       0.22075600 
I       6.50177162      -0.21281335       9.35236088       53      -0.26755700       0.07142100       0.58245900 
I       6.02722164       1.32492032      15.91284064       53      -0.14626100       0.20328600      -0.58267500 
I       5.81214948      -0.43961209      22.04700832       53       0.14094500       0.03875200       0.94218800 
I       5.91466720       6.03486007       3.85334085       53       0.05726700       0.07013000      -0.31310900 
I       7.17043425       7.58006761       9.96521540       53       0.32989900       0.03233300       0.24245700 
I       7.38547731       7.10013701      16.45823675       53      -0.21648800      -0.00116400      -0.30834000 
I       6.46625774       7.33879178      22.97404393       53       0.23876400       0.02353900      -0.31529700 
I       6.84224669      13.94211277       3.59552278       53       0.05744300      -0.20932100      -0.03781100 
I       5.85037574      12.72738672       9.81105098       53       0.74278500       0.54809200       0.21580900 
I       6.29481755      13.45970460      16.02915409       53       0.47317700      -0.01323300       0.16473500 
I       7.28242073      12.38596939      22.86181762       53      -0.36002800       0.50680400      -0.01460300 
I       6.16116510      19.36156147       3.38287300       53      -0.06752900      -0.24717600       0.07927000 
I       6.86858683      20.25446398      10.00620724       53      -0.14798100       0.10137900      -0.17439900 
I       6.09954589      19.27491467      16.21339056       53       0.17106500      -0.09938900       0.09144100 
I       7.57616109      20.21673142      22.76282410       53      -0.07975200      -0.04430900      -0.17394800 
I      12.60104858      -0.40948686       2.78739058       53       0.20607400       0.47666600       0.55486900 
I      13.88298719       0.59847376       9.44177927       53      -0.28207700      -0.12512200       0.08531300 
I      12.12140197       0.24388586      16.09872983       53       0.14941000      -0.00605200      -0.54611200 
I      13.53009014       0.63094913      22.29049280       53       0.32453600       0.04265000       0.10275100 
I      13.30847834       7.55703090       3.31374180       53       0.02330300      -0.38844500       0.10592300 
I      12.85183533       5.86513883       9.81073689       53       0.12405200      -0.07017600      -0.14540600 
I      13.34791179       6.61231913      16.06967229       53      -0.00754300       0.13569400      -0.17970600 
I      13.47241056       6.37061782      22.60408786       53      -0.33817200       0.21509800      -0.14267800 
I      13.46804847      12.66347057       3.78476257       53      -0.08603100       0.01413900       0.20658000 
I      13.71903189      14.27011568      10.42637405       53      -0.02831100       0.03554700      -0.70935200 
I      13.25742269      12.58254255      16.64781771       53      -0.11967700      -0.17394900      -0.68611100 
I      12.50551302      13.76576158      22.90403470       53       0.12706000      -0.14339100       0.33500900 
I      13.25435909      20.15891036       3.61298119       53      -0.09807400      -0.03015100      -0.14465900 
I      12.82325042      19.64350702      10.11618376       53       0.51813600       0.23518300      -0.15755400 
I      13.08394344      20.22372462      16.52394310       53       0.04442800       0.19499000      -0.11008100 
I      12.33917247      20.24926198      22.89882166       53       0.01052800      -0.03476300       0.27280900 
I      19.66906947       0.45151728       3.61558821       53      -0.02620700      -0.31945200       0.02934700 
I      17.92930776      -0.02701347      10.25889154       53       0.32665600       0.24538500      -0.48997600 
I      20.31963147       0.75976585      16.36439605       53      -0.24746300       0.09704700      -0.36859700 
I      18.72721458       1.01691360      22.67858763       53       0.34602700      -0.05731000      -0.11582200 
I      18.31948180       6.46017469       3.21840593       53       0.30688100       0.26421700      -0.07382700 
I      20.30575244       7.35981351       9.30133934       53      -0.19046600       0.00763900       0.84637600 
I      19.71723914       6.79370574      16.03342386       53      -0.00077100      -0.02163900      -0.85890000 
I      19.52252040       7.37895675      22.54384642       53      -0.14222800       0.03372500      -0.38838500 
I      19.05167524      13.39801214       3.66019254       53      -0.12235500       0.02592800      -0.47293900 
I      18.52456239      14.16187717       9.66156374       53       0.84113500      -0.54748900       0.81190300 
I      19.21305563      13.44987559      16.14925766       53       0.37516700       0.08232300       0.49865200 
I      19.36821650      13.69803624      22.72466105       53       0.06232200      -0.01805300      -0.22276800 
I      18.81371488      19.85396121       3.61242727       53      -0.13513200      -0.12933200       0.08720200 
I      20.04786112      19.61564060      10.21198725       53       0.20085300      -0.02897800      -0.08464900 
I      20.03864824      20.07781276      16.29547257       53      -0.54261900       0.00762400       1.08686500 
I      18.93965063      20.48938583      23.10753683       53       0.62112300      -0.14237100      -0.17674700 
I       3.02657819       0.41902185      -0.19854097       53       0.01719900      -0.27185600       0.09138700 
I       3.30787450      -0.10094729       6.04679938       53      -1.33898400       0.12330700       0.04174900 
I       2.92406549       0.01004476      12.00833676       53      -0.00995900       0.03959900       0.11781000 
I       3.33371992       0.38477033      19.42336431       53      -0.15234900       0.07423500      -0.04091100 
I       3.48333460       6.53652989      -0.32276880       53      -0.69022800       0.07053100       0.06798500 
I       3.66587119       6.90202754       7.32096810       53      -0.64134800       0.07759500       0.07569100 
I       3.91107662       6.64813003      12.02883970       53       0.23662900       0.17878600      -0.04173900 
I       3.66132346       8.13604333      19.41687085       53      -0.75922600       0.11972300      -0.01862800 
I       3.03253681      12.97691812      -0.12390673       53       0.27349300      -0.28373700       0.27572600 
I       3.53225587      14.01898977       7.04578595       53      -0.21751500      -0.14393900      -0.38951100 
I       3.44354292      13.18659763      13.11768619       53      -0.07181300       0.09259600       0.02114700 
I       3.28189761      13.21332912      20.20508914       53       0.17200400       0.53047000      -0.22227200 
I       3.34843986      19.63674463      -0.04511309       53      -0.17267900       0.05668400      -0.06032300 
I       3.15081807      20.22271714       7.55901677       53      -0.15664300      -0.24989400      -0.10855600 
I       2.95384252      20.10456131      12.38318476       53       0.36312200       0.26803900       0.23035200 
I       3.79971530      19.28160080      21.09772774       53      -0.23468600      -0.10257400      -0.46467100 
I       9.49853164       0.42283404      -0.51208184       53       0.13709200      -0.28874900      -0.12157700 
I       9.55508432      -0.09015896       6.78804816       53       0.15299400       0.09840600      -0.51313700 
I       9.60713441       0.48222152      12.56311734       53      -0.03223100      -0.01239200       0.27995100 
I      10.34823869       0.68203891      19.66202209       53      -1.00191100      -0.09121800       0.20427500 
I       9.69904945       6.46578310       0.43685355       53      -0.12252800       0.21941700      -0.10907500 
I       9.82418743       6.61944578       6.56920996       53       0.24265800       0.02778800      -0.00064100 
I      10.06264552       6.32779766      13.00463302       53      -0.25484900       0.08415300       0.09047500 
I       9.75467391       6.49075751      19.75123276       53       0.11136800       0.08121200       0.03181600 
I       9.77380210      12.87187868       0.70539572       53      -0.22720900       0.07456600      -0.00890100 
I      10.08926562      14.28612508       7.37807570       53      -0.22694100      -0.24558900      -0.15528500 
I       9.87010933      13.56378272      13.11395227       53      -0.43499400      -0.08858700      -0.14972300 
I       9.43145354      12.86083045      18.67734202       53       1.16422400       0.35501200       0.04880200 
I       9.51930953      18.35094466      -0.01342846       53      -0.08763300      -0.12541400       0.35594700 
I       9.49407723      19.40249209       7.07009205       53       0.27760200       0.09624200      -0.31669100 
I       9.89777305      20.36880762      13.13819114       53      -0.25952100      -0.33045600       0.12010900 
I       9.97599269      19.52315961      18.92637068       53      -0.31687500       0.00709900       0.10044000 
I      16.26598855      -0.03409397       0.37560261       53       0.02260200       0.10368300      -0.08003200 
I      15.70557047       0.29068178       5.63070667       53       0.71835200       0.52145000       0.37622900 
I      16.06387623       0.46617299      13.98294505       53       0.36641700       0.07842000       0.03351200 
I      16.46958702       0.63624245      18.72231363       53       0.58223200      -0.00382000      -0.10061200 
I      16.18694506       7.42019444      -0.03989002       53      -0.18657500      -0.09542600      -0.08598400 
I      16.37316138       7.16226899       6.86969768       53      -0.58506400       0.02131100       0.08757600 
I      16.49609073       7.25457337      12.75826858       53       0.36039900       0.29500600      -0.27272300 
I      16.37244490       6.71158760      19.31169292       53       0.24686500      -0.06346600      -0.03231100 
I      16.30457105      12.62537977       0.07213559       53      -0.55514100       0.08796800      -0.12006400 
I      16.45371611      13.35057801       6.80694254       53      -0.74744400      -0.08979800      -0.34174200 
I      16.31387625      13.23953680      13.77957939       53      -0.31326800       0.01847800      -0.24296100 
I      16.19337631      13.99546939      19.64410309       53       0.00021600      -0.20511600      -0.10182000 
I      16.09992998      20.67373870       0.01861340       53       0.18801500      -0.15394100       0.28952900 
I      16.17510007      19.49523901       7.13880581       53       0.17155900       0.36459300      -0.31259000 
I      16.57353970      20.12224349      13.10013346       53      -0.41540800       0.05917500      -0.03986800 
I      16.75396700      20.45055748      20.19408507       53      -0.59407700      -0.18307400      -0.48624300 
I      22.56959551       0.86373659      -0.67414459       53      -0.88904700      -0.02851300       0.47303900 
I      22.47992424       0.10155539       6.44128032       53       0.24628600       0.16812900       0.27879600 
I      22.41939079       1.84781558      12.33411196       53       0.17916000      -0.21810200       0.39738200 
I      22.88765803      -0.32357760      19.43890810       53      -0.17957200       0.14036000       0.02826400 
I      22.51502469       6.88953431       0.06588095       53       0.54639100      -0.38316500      -0.39680700 
I      22.34530344       6.00842260       5.26409216       53       0.60162800       0.20374400      -0.15850800 
I      23.64174122       6.68453600      13.02604109       53      -0.74425600      -0.10740000       0.28656200 
I      23.11795989       7.18913796      18.75811851       53       0.03605100      -0.03468400      -0.29773800 
I      22.37819425      13.90998661       0.35421561       53       0.51854800       0.09407700      -0.26897900 
I      22.83741017      13.20658679       6.49897495       53       0.34988600       0.01547700       0.01190100 
I      22.69614438      13.22400205      13.14740402       53       0.30258400       0.03043400      -0.08836600 
I      22.73248613      13.50392159      19.77519768       53      -0.04343500       0.03720100      -0.08380300 
I      22.37374987      19.35729370      -0.49137319       53      -0.52215600       0.09423500      -0.16838000 
I      22.60589110      19.45388191       6.14555910       53       0.40305500       0.02872900      -0.11094800 
I      22.57685262      20.07378582      13.81520867       53       1.03518600       0.07878400      -0.30620600 
I      23.08183791      20.44263005      19.64102443       53      -0.04239500       0.11832900      -0.20788200 
I       0.07016578       3.52447696       0.33644914       53       0.05173900      -0.10196500      -0.20027400 
I       1.05011548       3.34126001       6.83899845       53      -0.01700200      -0.16634900      -0.13184100 
I       2.24868964       3.57943211      14.41588104       53      -0.35578400       0.18726500      -0.58061600 
I       0.53525302       3.58079382      19.72656642       53      -0.28964000       0.09407700       0.00701200 
I      -0.63006708       9.98581267       0.38284367       53       0.00512600       0.00777100      -0.16237900 
I       0.05088908       9.58198640       6.87234684       53       0.02935000       0.00407000       0.13754500 
I       0.58286375       9.64548310      12.28668587       53       0.13434400       0.24263900      -0.07752600 
I       0.02613944      10.16896439      19.71668422       53      -0.16433300       0.54691600       0.37055400 
I      -0.56227652      16.41110166       0.51099809       53       0.19366800      -1.22806100       0.08899800 
I       0.12538986      16.37751846       7.63616772       53       0.21939300      -0.01644900      -0.11811400 
I       0.03008108      16.82678495      13.30994642       53       0.00552200      -0.50237500      -0.01034800 
I      -0.42066855      16.71247042      19.63046389       53       0.29067000      -0.92695700       0.02162100 
I      -0.33232788      22.83510219       0.71586695       53       0.16597000       0.08373200       0.19039900 
I      -0.01426135      22.57480554       5.66511172       53      -0.16102900       0.21456000       0.15602900 
I      -0.28801355      23.25526197      13.13125213       53       0.03251200       0.04646300       0.25487200 
I       0.66561006      22.90676414      19.40062965       53       0.34686600       0.07137800       0.24808000 
I       6.34849026       3.32969600      -0.59263155       53       0.01458300       0.12352500      -0.10046400 
I       6.97390223       3.20156767       7.29480759       53      -0.01435500       0.49982000      -0.13540700 
I       6.87480033       3.56873008      11.75850331       53      -0.05779200       0.45507900       0.53116200 
I       6.93702865       3.46762023      19.60700874       53      -0.22155900       0.20501400       0.01128600 
I       6.49427167       9.84653977       0.99500178       53      -0.22691800      -0.34021500       0.03031300 
I       7.11840221      10.11785354       6.59110171       53      -0.00885900       0.39265800      -0.10985700 
I       6.55238475      10.51832320      13.03286470       53       0.08202600      -0.58776500       0.25224900 
I       6.47694271      10.52406908      19.20976524       53      -0.07779800      -0.63393000      -0.18601100 
I       5.81988023      15.86386819      -0.57592173       53       0.31748500       0.42865100       0.18104000 
I       6.49832169      16.55727443       7.35512629       53      -0.23255100      -0.23284800      -0.01442300 
I       6.92560913      16.93286901      12.59348040       53       0.10292900      -0.14668600      -0.04656000 
I       6.90982351      16.37074502      20.74561440       53      -0.34921100       0.25633700      -0.22475500 
I       6.21796363      22.60977755       0.57120441       53       0.09878500       0.05442900      -0.05810500 
I       6.56092630      22.85730902       5.90536200       53       0.22408800      -0.83067300      -0.00168900 
I       6.68644160      23.54384348      14.04690335       53      -0.20220400      -0.33861300      -0.34321500 
I       6.85579658      22.92385528      19.36261211       53      -0.20477200      -0.37890200      -0.20274400 
I      12.82417562       3.30012267      -0.21769223       53      -0.56464100       0.53864200       0.64843100 
I      12.82156057       3.50316823       5.92398644       53      -0.05424900      -0.09761600       0.09353400 
I      12.79954941       3.06112472      13.01271899       53       0.38971500       1.02742700      -0.37926300 
I      13.16728480       3.45214268      18.92687241       53       0.06067300       0.60844300      -0.04079600 
I      12.50440017       9.87837593      -0.18642705       53       0.12345300       0.17102500       0.02721400 
I      13.21514541      10.22646735       8.02162543       53      -0.20627200      -1.17675200       0.20640400 
I      12.94167217       9.97894892      13.12518614       53      -0.26978100       0.20454500      -0.12036700 
I      12.72651170      10.09980108      20.51471848       53       0.17465300       0.29068500      -0.52902800 
I      13.31437174      16.78788034      -0.03117286       53       0.32430800      -0.45774700      -0.07493600 
I      13.29190099      16.49667174       6.44896591       53       0.11252000      -0.24956100      -0.25569600 
I      13.55036228      16.80137102      13.91904294       53      -0.22688100      -0.13665100      -0.04065100 
I      13.23808979      16.82674682      19.24831864       53       0.09691600      -0.41047900       0.06571500 
I      13.28000181      23.28338127       0.25030909       53      -0.14196700      -1.36174000      -0.42318800 
I      13.12993156      22.96235549       7.28379448       53      -0.05048700       0.23609900      -0.11229200 
I      13.85628078      23.06344728      12.54659718       53      -0.19566000      -0.00338300       0.06094100 
I      13.25803882      23.10263387      20.05724559       53       0.04276200      -0.18233300      -0.10494400 
I      18.94160439       3.52582863       0.25253078       53      -0.21081300      -0.36054300      -0.08657900 
I      18.79451043       3.68212042       6.20155385       53      -0.05966200      -0.49547400       0.04869500 
I      18.61492505       3.87972414      12.57303867       53       0.52677700      -0.19646300       0.40528600 
I      20.70905891       3.70367500      19.16386643       53      -0.33849900       0.34058400      -0.03075700 
I      19.93316526      10.02104156      -0.10977182       53       0.00699800       0.26541400       0.13636300 
I      19.66570583      10.21027533       6.58171523       53      -0.08002000       0.17346700       0.01767900 
I      20.05707199       9.91786657      13.07224195       53       0.09413600       0.03755900      -0.09650400 
I      19.22909011      10.34461415      18.92368840       53       0.01388600      -0.22486100       0.16746700 
I      18.58870934      16.30846352       0.21586491       53       0.28354900       0.48570900      -0.20807500 
I      19.69267415      16.84391823       6.69141179       53      -0.32149200      -0.40542700      -0.00243600 
I      19.80254230      16.55046988      13.59587676       53      -0.00241400       0.08876900      -0.11349400 
I      19.99370373      16.80691520      19.36560045       53      -0.14366300      -0.07470100       0.12953100 
I      20.58108311      23.16126975       0.29311420       53      -0.19911300      -0.10010400       0.01381800 
I      20.03109511      23.10056170       6.88393393       53      -0.18929300       0.23639000       0.10374100 
I      19.67948551      23.53591907      13.44624402       53       0.16433400      -0.16370100       0.11067700 
I      20.00367724      23.34142109      19.54485970       53      -0.09940500      -0.23154300      -0.02125000 
H       1.44710810       2.35280689       3.20328561        1       2.65301200       0.30843200       0.92065400 
H       4.00675066       3.71170177       8.35620912        1       0.97625000      -0.64676800       2.45682800 
H       3.88943073       5.25802717      18.82998518        1       1.09253900       0.40180100       0.00930500 
H       2.90554240       5.37263773      21.79188056        1       0.09963300      -0.77228100       0.60708200 
H       2.66473820      11.89541002       4.65682697        1      -0.89909000       2.23849100      -0.10386900 
H       2.55941577      10.80511151       9.84155854        1       1.04410500       0.20386500      -0.56847200 
H       3.00725533      11.05026676      17.64651127        1      -0.22044100      -0.18055000       2.81855200 
H       4.75543416      11.17329445      23.55362734        1      -0.10361000      -1.11092500       0.22644800 
H       3.34762303      15.65131574       2.16599852        1      -1.43399500      -0.59792400      -1.59296600 
H       4.75013081      16.07940195      10.59237442        1       1.21582600      -0.23224200       0.13056700 
H       3.71266109      14.60615942      16.65892314        1      -0.64910100       2.58515600       0.37185400 
H       2.12964473      15.67857305      24.52849947        1      -0.54058400      -1.56684500       0.80382900 
H       2.92949728      23.70062797       4.11136865        1      -0.02036100       0.69321300       0.83515300 
H       3.63786228      22.59095642       8.66098065        1       1.17212200       1.75063200       2.64806200 
H       2.07612254      23.15793822      16.03395771        1       1.72835000      -0.56767000       0.66747400 
H       1.66907713      23.33871372      23.29768777        1       0.16404900      -0.32238400       0.53763600 
H      10.77560742       3.87761685       3.90899141        1       0.44343100      -0.48925200      -0.27008900 
H      10.19639430       2.59270195       8.38493551        1      -0.21905700      -0.09355100       0.03084700 
H       9.03536806       3.27381364      15.66871193        1       0.67593800       0.65545200       1.04780600 
H       9.49157959       2.94648205      22.05818098        1      -0.10180800       0.45275800       0.36222000 
H      10.57573585      11.10846814       4.06969445        1      -0.44055800      -1.01273700      -1.20871400 
H       9.06621078      12.43510541       9.46154065        1       1.35345300      -0.43085100       1.22815000 
H       9.23250517      10.01933566      17.40840440        1      -1.05960600      -0.56368300       0.51327800 
H      10.44067754       8.41974897      22.35031980        1      -0.91059600       0.49299900      -0.27980000 
H      10.22558430      17.12200644       2.75190781        1       1.40931600      -1.24798900      -2.88755300 
H      10.59961547      18.24098820      10.16432835        1       0.03560700      -0.29026100       1.11196400 
H       9.22164559      15.41124608      15.78659883        1      -1.77325400       0.21618100      -0.07013800 
H      11.22009237      16.12093165      22.63667561        1       0.05696300       1.44749100      -1.42524200 
H       9.97568362      22.61553748       2.49942319        1       1.26415200       0.14500200       0.19820000 
H       8.51357361      23.46175746      10.41625905        1      -0.39675900       0.41699800       0.52071600 
H      10.38349869      22.31736377      15.08231395        1      -0.74235100       1.64140200       1.85111600 
H       9.50552584      23.58018122      20.76494529        1       0.57168300      -0.80584900       2.00714500 
H      14.62697745       4.24465884       2.01145880        1       1.88091300      -0.52052700       0.39113200 
H      16.52369123       3.73316102       8.51713694        1       1.47521800       0.05074900       1.34632400 
H      16.08874729       3.61501924      15.10261720        1       0.34252600       2.01044300      -0.59741000 
H      16.45307188       3.36732520      21.85617101        1       0.11903700       1.23810300       1.51031600 
H      15.63398377       9.46313316       3.05930744        1      -1.50940700      -0.51324600      -1.30712300 
H      15.89688041      11.82648855       9.54486997        1       0.49286300      -2.06316200       1.22643400 
H      14.91331420       9.79762753      16.59025053        1       1.33964200      -0.95548100       0.96998800 
H      14.91177989      11.05853939      22.35874194        1       1.20419500      -0.30440500      -0.06377800 
H      15.24274004      17.07382473       2.56512252        1      -1.10516500      -1.00997000       0.55528300 
H      17.20753136      18.32886727      10.58790495        1      -0.86474300      -0.19331900       0.79638100 
H      16.72253825      18.12212392      17.51999551        1      -0.02383000       0.11191500      -1.58825500 
H      16.68858577      18.14667186      23.84203926        1      -0.53166800      -0.57836100      -1.22879700 
H      17.38594268      23.65449635       3.63465017        1      -1.69001400      -0.28378000       1.61141000 
H      17.14613192      23.00784790      10.78364523        1       0.01566800      -0.14731600       0.56238200 
H      16.37952440      21.72865178      17.46123219        1      -0.14722200       0.58823000       0.11759500 
H      16.21938932      23.82315191      21.71088531        1      -0.26196000       0.54837100       1.14289400 
H      22.99436023       4.07348858       2.23839401        1       1.78328200       1.36199800       0.06505200 
H      21.22973550       3.64724173       8.66730052        1       2.12292600       0.56367500       0.38727600 
H      22.04950897       3.69062283      16.14207179        1       1.36675500      -0.29333600      -0.34688100 
H      22.70847003       4.43831089      23.61633431        1       0.22176500       0.35541400       2.11732200 
H      22.42053375       9.30694072       4.71470223        1       0.46199300      -0.34674700       0.35750900 
H      22.19698325       9.66526355       9.15544554        1      -0.94009700      -1.55150900      -0.50599000 
H      22.36302978      11.93783180      16.37623000        1       0.36416400       0.29936300      -0.55051800 
H      22.38403044      10.09911571      21.36641441        1      -0.63225100      -1.10473000       0.88954800 
H      22.82559830      16.12835634       2.41572459        1      -0.24658300       0.31653700      -0.25189100 
H      23.31136308      16.29665065       8.25147774        1       1.18931900      -0.92654000       1.86881200 
H      22.77208715      18.17334315      15.99611778        1      -0.14439900      -1.86281700       1.34549300 
H      23.66619884      17.60389280      22.94015367        1      -2.36434300      -1.55838700      -0.13821600 
H      23.03999814      22.08847078       4.26726305        1      -1.10936900      -0.01030400      -1.98309800 
H      22.89250581      24.43397641      11.48381387        1      -0.08187600       0.65939900       0.00328200 
H      22.20942329      24.08192930      16.99911021        1      -0.82574300       2.56964300       0.76412300 
H      22.32776677      24.60374783      23.71273988        1       1.12666600      -0.64822800      -0.14235900 
H       3.23388248       1.41382394       3.07387083        1      -1.67956500       1.31099600       0.27758000 
H       4.90785355       2.68654866       9.95076239        1      -0.97342700       0.92051000      -2.02523400 
H       2.30402611       5.29748570      17.92314043        1       1.24120000      -0.37080600       0.47382800 
H       4.39534322       4.39013721      21.68240276        1      -0.07051200      -0.04284500       0.27709700 