768
Lattice="26.2385349771 0.0854515446779 0.245290050141 0.0664377177312 26.36126096 -0.187327289231 0.205338878236 -0.231655310057 26.0996399653" Properties=species:S:1:pos:R:3:Z:I:1:forces:R:3 energy=-99802.4912838 stress="2039.822619 786.883417 -2786.526671 786.883417 864.306804 549.273565 -2786.526671 549.273565 -96.169745" pbc="T T T"
I      -0.56175027       0.09049758       3.29268674       53       0.53261100       0.66572700      -0.13096200 
I       0.20408659       0.03169859       9.96793678       53      -0.26442200      -0.06889800       0.05745200 
I      -0.70363457      -0.50412466      16.52757180       53      -0.00568300      -0.13059700      -0.32495900 
I       1.26408746      -0.27061654      22.77522901       53      -0.24026300      -0.21258800       0.15848000 
I       0.93804245       5.95606746       3.81323355       53      -0.09034200       0.36834100      -0.28434700 
I      -0.57454878       5.42836868       9.98150798       53       0.14877000       0.17820300      -0.53860500 
I       0.69223181       6.16076277      16.13742763       53      -0.15550700       0.28079100      -0.29640100 
I      -0.26360497       5.66999821      22.85172805       53      -0.06331400       0.28755000       0.18416900 
I       1.27041242      12.87143034       2.88519503       53      -0.17016100      -0.22343400      -0.18560000 
I      -0.14113621      13.60325260       9.32315755       53      -0.03764800      -0.09044500       0.33749600 
I      -0.26934684      11.67209483      16.17573300       53      -0.03849900       0.00023700      -0.45843100 
I      -0.11231111      13.14672912      22.38554291       53       0.08993900      -0.05852800       0.67763800 
I       0.28223246      20.15407346       3.27749330       53      -0.07541400      -0.04508900      -0.60945700 
I      -0.17404098      19.33923864       9.81181516       53      -0.39603000      -0.01964600       0.02846400 
I       0.98667558      19.59583513      15.99221278       53      -0.07110600      -0.06584300       0.72763100 
I      -0.65225809      18.99811907      22.74065283       53       0.34201300       0.14045300      -0.34500000 
I       6.72134376       0.73711014       2.84092748       53       0.23894700       0.11840000       0.02660200 
I       6.55791544      -1.16138574       9.24443576       53      -0.07844900       0.14316800       0.07750700 
I       6.81523644       0.47492961      16.41465095       53       0.39540500       0.00385800      -0.58443900 
I       6.62907126      -1.00763137      22.50811211       53      -0.24410400      -0.26495100      -0.32730200 
I       6.35067969       5.72331665       3.21376101       53      -0.03606200       0.25117100       0.17672300 
I       7.21797828       6.89459053      10.08432858       53       0.04828000       0.07761600      -0.03614800 
I       7.40742072       5.71254721      16.89207795       53       0.01170300       0.09870800      -0.11890200 
I       6.33877478       7.87315905      22.84841083       53       0.12829200       0.00416000       0.01038300 
I       6.76481199      14.18945521       3.24144348       53      -0.10304900      -0.01229200      -0.03406300 
I       6.46467452      12.97651673       9.76166125       53       0.15178800      -0.08982200       0.18059100 
I       6.61401924      14.16587188      16.42458109       53      -0.00747500      -0.56395300      -0.08823100 
I       6.73279469      12.62289890      22.83383636       53       0.43352800       0.16178800       0.29996500 
I       6.27181750      19.00068000       3.25049744       53       0.02922300       0.06283000       0.23177300 
I       6.90223029      20.18084387       9.62815864       53       0.35286600       0.06322000       0.09951000 
I       6.26300539      18.80656148      16.17499105       53       0.02868500       0.40833400      -0.02576700 
I       6.29017546      20.11735958      22.93910107       53       0.19907200      -0.11554700      -0.38024100 
I      12.40468670      -0.45116387       3.21874044       53       1.08188300       0.61170800      -0.25788100 
I      13.19297451       0.06824646      10.16851554       53      -0.02435500       0.01843600       0.11793200 
I      12.14880551      -0.22415287      16.33644974       53       0.54110900      -0.08635600       0.26576000 
I      14.48150202       0.05207846      22.73667155       53      -0.15838100       0.09752700       0.60176900 
I      14.49655301       6.07951899       3.58717970       53      -0.47462100       0.10242100      -0.29178700 
I      12.32576507       5.99691839      10.02528979       53      -0.04427100       0.08630900      -0.61902300 
I      13.37414592       6.95075479      16.16225197       53       0.15129300      -0.07640700       0.80744900 
I      13.87386299       5.87177904      23.13757082       53      -0.14467200       0.11478800       0.28740000 
I      13.58840861      13.22107304       3.74582331       53      -0.21846000      -0.05161300      -0.29688900 
I      12.75173772      14.89594688      10.08779952       53       0.15605800      -0.22130600       0.13869900 
I      13.23685162      12.80564233      16.49246581       53       0.78841600       0.40848600      -0.10018300 
I      12.37928949      12.43754739      23.03832467       53       0.05988000      -0.01975500      -0.00824200 
I      13.10352426      20.21409604       3.21896179       53       0.11322700       0.19591400      -0.18862500 
I      13.74771321      19.14651177       9.75161735       53      -0.22311500       0.21682700       0.28767300 
I      13.22156391      20.50598913      16.14427010       53      -0.47081100      -0.36712600       0.74260600 
I      13.45830931      19.27875082      22.70944408       53       0.10498300      -0.00845900      -0.01961000 
I      19.55623751      -0.21228793       3.64605350       53      -0.08843500       0.14786800      -0.42535200 
I      19.64109775      -0.00802303       9.98626707       53      -0.03052600       0.11279300       0.20639100 
I      20.95523972      -0.16744342      16.50091514       53      -0.04764000      -0.02199500      -0.00484500 
I      20.65678802      -0.59604669      23.12798295       53      -0.21342600       0.26368400       0.15895100 
I      19.66301376       6.64158591       3.42908538       53      -0.05569100       0.03793900       0.35029000 
I      20.75422850       6.84756835      10.04736977       53       0.06952800      -0.03631800      -0.73369200 
I      19.24249194       6.40583864      16.35141977       53       0.02339600       0.05161300      -0.05471300 
I      19.53507163       7.38305650      22.89044334       53       0.19629800      -0.16877400      -0.16900000 
I      19.44252654      12.46337808       3.40151974       53      -0.02541400      -0.06632200       0.59612200 
I      20.79981701      13.57672916       9.64872912       53      -0.05204200      -0.19682700       0.25873900 
I      19.13864964      12.86002348      16.36472351       53      -0.28910500      -0.09887500      -0.24960800 
I      19.76193608      12.60971507      23.02959454       53      -0.13651100       0.02157700      -0.28188200 
I      19.82209495      20.45610371       3.17869806       53      -0.07777900      -0.03872700      -0.27995900 
I      20.71316544      19.48251255      10.10826444       53      -0.07148700      -0.03225900       0.21882000 
I      19.49711674      19.87692085      16.50705359       53       0.05231500       0.29323900       0.53597900 
I      19.67577026      18.66063440      22.83926464       53       0.08421000       0.37418800       0.11619600 
I       2.91242762      -0.20769588       0.70247657       53      -0.23077300      -0.28907300      -0.22265600 
I       3.16696634      -0.56342271       5.53561634       53       0.40972800       0.28054500       0.14389200 
I       3.52956230       0.50429990      13.60027868       53      -0.64185100      -0.51292500      -0.23809800 
I       3.67803596       0.21159006      18.73334072       53      -0.17975100      -0.50920300       0.26492400 
I       3.00917535       6.86096022      -0.71025365       53       0.04261500      -0.03001800      -0.04255400 
I       3.61468181       6.14124065       7.62801042       53      -0.04286200      -0.12849300      -0.02609000 
I       3.72620999       6.88218553      12.82400747       53      -0.24365800      -0.11452200      -0.19675100 
I       3.53854145       6.05193900      19.41866856       53       0.20180100       0.44041500       0.15486700 
I       3.06348066      12.59991199      -1.05556048       53       0.12528900       0.02936900       0.08845000 
I       3.70062628      11.94816117       6.53995919       53      -0.49486500       0.28445900       0.06020300 
I       3.29813654      12.73997525      12.87165067       53      -0.00028600      -0.20533000      -0.05757200 
I       3.31334329      13.38595347      19.67388671       53       0.05981600       0.06842400      -0.01760700 
I       3.40812037      19.57288613      -0.20995963       53      -0.27570000      -0.00831200      -0.16793200 
I       3.40434609      19.38065218       6.30296271       53      -0.24218200       0.29151000       0.21790100 
I       3.35008382      20.13289222      11.49225153       53      -0.03113300      -0.16646600       0.52965900 
I       3.25829502      19.13596061      19.55341013       53       0.36936800       0.31929600       0.49306200 
I       9.49995622      -0.07160775      -0.59642073       53       0.31329500       0.11929000      -0.02081700 
I      10.08486146      -0.13805264       6.17574818       53      -0.39771600       0.00221000       0.09188500 
I       9.92825820      -0.19956013      13.06104392       53      -0.05631300      -0.12504600      -0.15342500 
I      10.66721704      -0.20424031      20.60209739       53      -0.74230200      -0.06851600       0.02049800 
I       9.68124036       6.48725357       0.18148398       53       0.06413800       0.30206300      -0.10278600 
I      10.26981638       6.97814110       5.14564536       53      -0.14612100      -0.60479500       0.30461000 
I      10.09734845       6.32615355      13.22922724       53       0.01158500      -0.22489000       0.32920300 
I      10.43458409       6.50401902      20.65668452       53      -0.17653000      -0.22934100      -0.02135300 
I       9.78526303      14.50361582       0.36964749       53       0.29839100      -0.45464100      -0.14015200 
I       9.88546018      13.35091306       6.67487599       53       0.15539600       0.09719900       0.08324200 
I       9.96301269      13.47584848      13.26685215       53      -0.29285700      -0.18331900      -0.21941700 
I       9.71342778      14.50630587      19.49952191       53       0.06683800      -0.77906700      -0.50995200 
I       9.90734955      20.07574723       0.38879249       53      -0.24868200      -0.12755600       0.00137500 
I       9.77369835      19.58625443       6.00760790       53       0.22125700      -0.10029600       0.15719400 
I       9.52036888      19.50259421      13.56948087       53       0.41573200       0.11570600      -0.24940000 
I       9.88787457      19.64606078      19.58024305       53       0.00708300       0.14479800      -0.02351900 
I      16.34453938      -0.81857835      -0.01721021       53      -0.11591900       0.25883200       0.36634000 
I      16.26167951      -0.18838487       6.62279549       53       0.33493400      -0.05888000      -0.02060700 
I      16.95801558      -0.48746066      14.11045161       53      -0.29002100      -0.00989800       0.25328800 
I      16.85413536      -0.29479528      19.47583917       53       0.75963000      -0.28606500      -0.39962600 
I      16.44139061       7.42008807      -0.21702756       53      -0.57528100      -0.11913700       0.14878100 
I      16.23469492       6.54303046       7.12654508       53       0.35627200      -0.08805300       0.15950600 
I      16.12528190       6.93110458      11.82342353       53       0.53246300      -0.02275200       0.00487600 
I      16.52945228       5.70717837      19.26348155       53      -0.32009300       0.18907700       0.04756000 
I      16.17394168      12.13957427      -0.41913939       53      -0.38537200       0.32312400       0.33721700 
I      16.48967942      13.26601593       7.13581731       53       0.36928800       0.05697500       0.08527100 
I      16.54095137      13.85288465      12.52344574       53      -0.53528800       0.07446300      -0.05380000 
I      15.91885572      12.78899576      20.25442740       53       0.11161900       0.31057200      -0.02744200 
I      16.51114145      19.91555825       0.35252644       53       0.28771800       0.28747100      -0.01628000 
I      16.34090037      20.37261565       6.63127352       53       0.60358300       0.22390400      -0.00722500 
I      17.00011674      20.47912341      12.97496213       53      -0.67342700       0.06592400      -0.03007100 
I      16.32307837      19.13462429      19.42351374       53       0.58721600       0.09121100      -0.01018000 
I      22.55763270       1.07805447       0.97152416       53       0.31688500      -0.08929200      -0.14261800 
I      23.31178191       0.20147750       7.01366316       53      -0.59893700      -0.30637100       0.00569100 
I      22.66733369       1.49783948      13.37700609       53       1.05686300       0.18407500      -0.25485500 
I      23.49633101       0.34103657      20.57027890       53      -0.10338000      -0.01957900      -0.05380600 
I      22.83187288       5.86905209       1.00222052       53      -0.18072700       0.78389700      -0.99353700 
I      23.39539499       7.23570703       6.14985908       53      -0.62647100      -0.36824500       0.02192600 
I      22.87238051       6.35407787      13.94371733       53       0.69736700      -0.13557700       0.06432000 
I      22.94573141       6.62630024      19.70945079       53       0.04808600       0.22123400      -0.02213000 
I      22.88131559      13.15036812       0.04677213       53       0.15795400       0.25435600       0.06833100 
I      23.28583030      13.52784700       5.73214619       53      -0.10334200      -0.08033900       0.01311600 
I      22.65854003      13.76004647      13.27254482       53       0.72380200      -0.23111300      -0.01589800 
I      22.58232178      12.76976775      19.45573600       53       0.21829800      -0.31335500       0.37784800 
I      23.15984243      19.04704119       0.07683619       53      -0.45590700       0.17515300      -0.06465900 
I      23.05750349      19.44219656       6.55568859       53       0.10842700       0.16255700      -0.23291000 
I      23.25682381      18.85200344      13.77692567       53       0.49661000       0.27608900       0.07337600 
I      23.14270294      19.04449768      19.75351851       53      -0.99981700       0.06952900       0.05587000 
I       0.56253115       3.35303622      -0.23989969       53      -0.10573800      -0.34264700       0.17165100 
I      -0.73839419       3.28776163       6.81146217       53       0.61990900       0.27960600      -0.61830000 
I       0.08758412       3.16557981      13.42072847       53       0.10691700      -0.02541800      -0.02915200 
I       0.73039781       3.18901455      19.15277525       53      -0.21530700      -0.34580300      -0.04468200 
I      -0.49812763       9.89408168       0.01696938       53       0.23908200      -0.01557300       0.05796100 
I       0.21012564       9.76500204       6.67437590       53       0.12428300       0.30614700      -0.07894900 
I      -0.37203113       9.64220432      11.59528630       53       0.14737300      -0.08158600       0.39466400 
I      -0.13579812       9.76745127      20.01657830       53      -0.15672000      -0.54221100      -0.03193100 
I       0.24500209      16.74814101       0.19413492       53       0.11211400      -0.22969900      -0.01179800 
I       0.10713288      16.43967103       5.04208179       53       0.12469200      -0.09599700       0.58982900 
I       0.50833754      15.95494039      13.30517494       53       0.06937600       0.01257700       0.16729600 
I      -0.03063179      16.27660958      19.18670274       53       0.06677800      -0.33154600      -0.08030400 
I      -0.81657900      23.33629985       0.47988854       53       0.06523600      -0.40463000      -0.10873500 
I       0.05023077      22.91889337       6.13303316       53      -0.11736300       0.06980300       0.09509400 
I      -0.39303099      22.84008447      12.87590864       53       0.22816600       0.18812800      -0.04406000 
I       0.38175428      22.83056116      19.44429634       53      -0.03341000      -0.09784400      -0.05120600 
I       6.72651174       3.62835959      -1.56436225       53       0.16801000       0.25965300       0.31493600 
I       7.59063453       3.23447393       6.78540603       53      -0.19687400      -0.18398600       0.28395500 
I       6.36108021       3.05605201      12.28416605       53       0.14171700       0.37354400      -0.25355500 
I       6.42162850       3.23380680      20.26390357       53       0.42989300      -0.47703400       0.19764300 
I       6.88446055      10.46094049       0.24429806       53      -0.11480700      -0.98921600       0.36581900 
I       6.85257749       9.53260889       6.48999691       53       0.15211700       0.26795500      -0.07381800 
I       7.33386896       9.62482195      13.85966462       53       0.39251600       0.29182700      -0.32053900 
I       7.08597698      10.03213022      19.21738988       53      -0.10608000      -0.19538800      -0.11959100 
I       6.42014154      16.45467795      -0.62043345       53      -0.11392900       0.57041800      -0.06842500 
I       5.82961741      16.38105138       6.82701428       53       0.27854700       0.36809200      -0.07700900 
I       5.68747384      16.21066273      12.30761104       53       0.12489600       0.28218000       0.02077700 
I       6.97816570      16.77966641      19.84992397       53      -0.43368700      -0.50977200       0.26523500 
I       6.54608227      23.20615956       0.13888579       53       0.38864500       0.48143700      -0.32187900 
I       6.90703652      23.06780666       4.68022676       53      -0.24723500      -0.12921700       0.62312200 
I       6.53112658      23.15337708      12.86164776       53      -0.13242700      -0.44901300       0.11319100 
I       6.90394987      23.09545121      18.19007857       53      -0.53826000      -0.15484800       0.69449800 
I      13.45931668       3.32262578       0.77816193       53       0.08236700       0.25248700      -0.31348300 
I      13.36995968       3.50115633       6.25716310       53      -0.18298800      -0.26334500       0.10540100 
I      13.72940136       3.46799025      13.37099164       53      -0.25315600      -0.07451300      -0.08937800 
I      13.50054678       3.00342734      19.16501731       53      -0.25096300       0.36319700       0.24588400 
I      12.08298881       9.81420086       1.04803858       53       0.15081500       0.16901700      -0.34903200 
I      13.46537827      10.40229830       7.40161635       53      -0.04988100      -1.13511500       0.03581700 
I      13.40160089      10.41723041      12.63062372       53       0.01589300      -0.27385700      -0.02019000 
I      13.52329491       9.56754989      19.01271608       53      -0.01314800       0.31547200       0.30668800 
I      14.09043759      16.67040916       0.00247998       53      -0.21435700      -0.42074100       0.06263200 
I      14.04209959      16.95101426       5.77054379       53      -0.22690600      -0.35727500       0.27223600 
I      13.07927071      16.75622040      14.28648783       53       0.08181000      -0.20583000       0.17811100 
I      12.94591875      16.08119675      20.37242196       53       0.53792300       0.02799000      -0.15945800 
I      12.80110459      23.32619139      -0.96800096       53       0.43110100       0.20258800       0.66338500 
I      13.00656132      23.13645073       6.92034948       53       0.19572600       0.53932400      -0.00579700 
I      12.67953764      23.01118431      13.42750946       53       0.08485400       0.13593400      -0.73573900 
I      13.05101642      22.82249509      19.36291626       53       0.32359000      -0.04390100      -0.19613100 
I      19.17987871       3.19880225      -0.18971401       53      -0.41782000       0.71817800      -0.09117200 
I      19.92507541       3.23255451       6.52995628       53      -0.12843700       0.19463900      -0.09604400 
I      19.27259904       3.64796062      13.20771191       53      -0.46236100      -0.94734400      -0.13049100 
I      19.32801727       3.05387127      20.37321822       53       0.91490800      -0.15917200      -0.75766700 
I      19.68358014       9.86864964       0.26624379       53       0.32012300      -0.30443100       0.02993700 
I      19.60798291      10.19581679       7.04718894       53      -0.17901100      -0.57027500       0.06156700 
I      19.71349766       9.79603760      12.97293716       53       0.21070200       0.57226200      -0.02523700 
I      18.44185447       9.49118818      19.50290574       53       0.26356500      -0.00386600      -0.13275100 
I      19.10616708      16.25503687       0.51427821       53       0.17066600       1.13202400       0.08643100 
I      19.33061817      16.70971061       5.73288198       53       0.36293500      -0.33602000       0.40822800 
I      19.83428270      16.73578110      13.64637957       53      -0.14073000      -0.14710800      -0.15468900 
I      19.27811443      15.91408638      19.66168974       53      -0.06383400       0.50522800      -0.10538700 
I      20.68641758      23.40424195      -0.00418009       53      -0.08129700      -0.90136800      -0.07703400 
I      20.10090156      22.78393865       7.84807748       53       0.01099700       0.32405200      -0.48736300 
I      21.29148953      23.12367066      13.40023178       53       0.00132100       0.24483500      -0.19739600 
I      20.39829466      23.15394173      20.04544952       53      -0.07561900      -0.94618400       0.01730100 
H       3.69935657       1.68682589       3.42874515        1       0.13608900      -0.11456200       0.19603000 
H       4.36273971       1.70429537       9.34897902        1      -1.19009500      -1.02966700       0.28343100 
H       4.99466303       3.15347609      15.20093772        1       1.75014000      -0.59363100      -1.39564100 
H       3.42917966       2.10336746      23.90444271        1       0.49875700       0.12983800      -0.50215600 
H       3.81903792      10.74749651       3.31180509        1      -0.16296000       0.44330400      -0.27014100 
H       2.60381007       9.64750963      11.18298427        1      -0.67455600       0.80504100      -0.52996100 
H       3.21092954       8.83335116      15.08649199        1      -2.08796300      -0.80927200       0.01582000 
H       3.07287177       8.63119116      21.88576539        1       0.15022100      -2.93724200      -2.59013400 
H       4.11333925      15.71202988       2.65054326        1       0.12854100       1.00833200       0.11154800 
H       2.82951651      17.49936344       9.24508240        1      -0.38065000      -1.65592500      -0.01657900 
H       2.43816617      16.52849923      16.03745900        1       1.29016900      -0.97793500       0.62115500 
H       2.00019331      16.87691014      22.52385995        1      -0.58562300       1.61411800      -0.74522500 
H       4.03444222      22.12240319       3.45394867        1      -0.01580400      -0.96620800       0.73521400 
H       2.88485686      24.41814397       9.40207406        1       1.16175300      -1.14577000      -0.75610000 
H       3.48844799      21.44485755      14.97857002        1      -0.54008100      -1.14788800      -1.69854400 
H       1.59851213      22.79205698      22.20775636        1      -0.73725000       1.11987300       0.21283700 
H      10.35282484       2.60141925       2.40668483        1       1.03368600      -1.84874400      -0.41506700 
H       8.89600026       3.04358962       9.86171493        1      -0.02466000       0.67752400       0.89627600 
H       9.43443671       3.06805427      16.46614835        1      -0.25630400      -0.36929000       1.02400800 
H      10.74777935       3.05882097      21.78393473        1       0.50863100      -0.78767400       2.55161500 
H      10.25177302      11.56502753       3.42803088        1       1.75507500       1.08571000      -0.34046900 
H       8.50818029      10.25343829      10.15147544        1      -0.26879200      -0.66808100      -0.06288000 
H      10.11887914       9.22210061      15.75582092        1       0.93081800      -0.93628700      -1.85241000 
H      10.63494560       9.73724374      22.15346539        1      -0.29566100       0.15584100       1.19358900 
H      10.74147693      15.73390286       3.49967244        1       0.03901100      -0.20705000      -0.63227400 
H       8.56384446      17.66922739      10.06199650        1      -2.08475500       2.60299200       1.04548500 
H       9.40225749      15.46433262      16.19022036        1      -0.09240900      -0.57378400      -1.47186300 
H      10.86842605      17.06742758      23.87290399        1      -0.38806200      -0.77384000      -1.09053200 
H       9.31393246      22.66327760       3.28121942        1       2.14737000       0.27568000       0.41803300 
H       9.64139987      23.94209120       9.62327145        1       0.27393200       3.64347000       0.57373000 
H       8.10675223      23.33160532      15.60201736        1      -0.46784400       0.78949200      -0.17339500 
H       9.59527438      21.34090047      22.89996665        1       0.01419800       0.07380600       0.07967500 
H      17.82591572       2.77451025       2.83744526        1      -0.87603500       1.55786100       0.77981300 
H      15.78392662       1.84036915       9.07824257        1      -0.82650700       0.69070600       0.15491700 
H      15.82185897       4.07121861      15.79395105        1      -0.67937400       3.51139700      -1.34313100 
H      17.31367375       2.27461385      22.19229853        1       0.67600100      -1.98883000       0.18135400 
H      14.73984474       9.64945056       2.30107785        1      -0.76113300       0.04320900       1.04885500 
H      17.36727503      11.29176500       9.73830746        1       0.64466800       0.06637500       0.04024100 
H      16.97366197       9.88231819      14.60065971        1       0.62616000       1.10574200      -0.29403100 
H      15.50641431       8.51083755      22.46856880        1       0.49008200       1.30570100       0.99168800 
H      17.01306283      15.71483267       2.55111162        1       1.19901300      -1.53251700      -2.94262400 
H      18.18117525      16.56895255       8.81849283        1       0.95449100       0.36982500      -0.23983800 
H      16.32124298      16.97169541      15.34208623        1      -1.37655900       0.76980200      -1.82650100 
H      17.36102078      16.31087935      24.36236707        1      -0.09969000      -0.92452200      -0.61868800 
H      17.01136886      24.58993862       2.55855565        1       0.49872500      -1.43714900       1.27385700 
H      16.88075103      24.03623188       8.90992809        1       0.06072900       0.20053300      -0.54224300 
H      15.11997678      23.71277137      16.58970543        1      -0.54261500       0.36950400       0.89909700 
H      16.31566201      22.27529367      22.22320804        1       1.18718400       0.16635300       0.78568400 
H      24.70496541       3.35671314       3.96247375        1      -1.64520100      -0.11398000      -0.28137800 
H      21.96198363       4.18998791      10.01543855        1       0.91657600       0.53610900       0.36916400 
H      23.61917382       3.48734840      18.74635956        1       0.20111500      -0.55059800       0.19429200 
H      22.60455343       4.12946216      22.36839112        1       0.52001600      -0.05942400      -0.62984300 
H      23.00019454      10.48548917       2.46532292        1       0.17685300      -0.68456900       1.02675500 
H      23.36442400       8.35901593       9.37290975        1       0.12933600       0.23650200       0.60392100 
H      22.23975624       9.15477851      14.91456617        1       0.51901100      -0.42702900       0.61355500 
H      23.13181257       8.28024392      23.26925648        1      -1.20059100      -1.24879400      -1.02511000 
H      21.97365386      17.37228930       2.30543420        1      -0.53883700      -0.82066500       0.82565800 
H      21.97354934      16.69060046       8.63074846        1       1.91872500       0.06360800      -0.44235200 
H      23.41731818      16.52635231      16.50771868        1      -0.47846500      -0.12158400       0.43082800 
H      22.22928705      15.84310990      24.07187384        1       1.02993300      -0.73531500      -2.10365300 
H      21.23740147      23.67607081       4.19385954        1       3.33612600      -0.49350100      -1.20353900 
H      24.61593020      23.21206231       9.26979812        1       1.76491300      -0.24742300      -1.64020100 
H      22.24980526      22.36757539      17.35396720        1      -1.33301100       0.65439700       1.02763400 
H      24.52753445      24.00726331      22.82175929        1       1.09806400       2.36017600      -0.53849000 
H       3.83546622       3.40111700       2.73549368        1      -0.41145300      -0.07095400       0.81400800 
H       3.45490992       2.55687603       8.10199416        1      -1.12562600      -0.47016400       2.55700100 
H       3.86331778       4.40934377      15.74111426        1      -0.20486300       0.92291800      -0.31477300 
H       4.56800685       1.97141228      22.28827869        1       0.50124100      -0.77376500       0.48530600 