768
Lattice="26.5195279417 0.435305880968 -0.248476307087 0.429301322371 26.4608783592 -0.355086455158 -0.286645359782 -0.390368109075 26.1644281522" Properties=species:S:1:pos:R:3:Z:I:1:forces:R:3 energy=-99796.9122073 stress="565.499533 -954.563992 916.836025 -954.563992 3416.98871 1990.259861 916.836025 1990.259861 106.721024" pbc="T T T"
I      -0.64325706      -0.30382718       3.01053634       53       0.08242000       0.06874800       0.54059500 
I      -0.39420122      -0.03181267      10.20700802       53       0.25154200      -0.20333200       0.02531200 
I      -1.71513231      -0.71968030      16.56306921       53       0.52336700       0.33035000       0.47633300 
I       0.65557492      -0.72393498      22.76068657       53      -0.19146800       0.20680400      -0.23323300 
I       0.61279731       6.57424597       3.35924795       53      -0.13019300      -0.29877100       0.11993000 
I      -0.78477345       5.83996148       9.92751089       53       0.12316300       0.38220600      -0.06991700 
I      -0.07650427       5.95940440      16.39624628       53       0.12585500       0.48072500      -0.24764900 
I      -0.71734679       5.44007162      23.00615444       53       0.12119800      -0.03279100       0.07152300 
I       0.70895025      12.06033852       2.67175779       53      -0.03258700       0.44715200       0.66226800 
I      -0.37045172      13.00749866       9.17212942       53       0.36207900       0.23463500      -0.06823600 
I      -0.29003228      11.40795666      15.60464155       53      -0.03526200       0.16533900       0.41668800 
I      -0.37741328      13.45303198      22.76490945       53       0.10038200      -0.29897900      -0.47827900 
I       0.55041206      20.61018068       2.99632500       53       0.33262800      -0.36264700      -0.11119900 
I      -0.07042689      19.19407108       9.49692947       53      -0.15081400      -0.04935800      -0.13680700 
I       0.38781202      19.24826083      16.13405201       53       0.00907700       0.08896500      -0.12851100 
I       0.27662716      19.11309365      22.58652975       53      -0.16189900       0.03354800       0.27764300 
I       7.10508218       1.12199496       2.90353026       53      -0.09248100      -0.03664200       0.14663100 
I       6.68205723      -0.64332270       9.28446616       53      -0.24624300       0.01148400       0.41900100 
I       7.24596672       0.14953751      15.84213240       53      -0.20281400      -0.26337800       0.38451600 
I       5.79497037      -0.91266214      22.37634969       53      -0.16465600      -0.09108800       0.60480100 
I       6.42372069       6.34726155       2.79701243       53      -0.13117400      -0.08691200      -0.65543000 
I       7.05286693       7.15441413      10.03562064       53       0.11980000      -0.18386100      -0.14121700 
I       6.73846562       5.66336038      16.62614887       53      -0.01883200      -0.01391500      -0.22950200 
I       6.66413997       7.71087383      22.78862510       53       0.04270200      -0.07990300      -0.04509000 
I       6.59063695      14.64897102       2.92360563       53       0.02349800      -0.47702400      -0.24499300 
I       6.38892317      12.82141376       9.74304560       53       0.10643700      -0.10395800       0.06600700 
I       6.63218780      13.80519719      16.31837883       53      -0.11132700       0.14197900       0.34090300 
I       6.74297468      12.43949244      22.67711715       53       0.02975800       0.14840400      -0.06708300 
I       6.57906787      19.50320327       2.92858037       53       0.22251300       0.02560200      -0.19087200 
I       7.88791394      19.89413143       9.33512539       53      -0.72478600       0.55010500       0.04649800 
I       5.97960285      19.20563298      15.97732934       53       0.22319400       0.15675200      -0.20669300 
I       5.53905042      19.94039853      22.29205611       53       0.77132500       0.07907800       0.47778100 
I      12.79675650      -0.31711742       2.93693793       53       0.01810900      -0.10276800       0.29026000 
I      13.26113946       0.85667327       9.83332118       53       0.08568000      -0.11347900      -0.13945800 
I      12.91349665      -0.00079288      16.48136967       53      -0.20045300      -0.07830700      -0.62863400 
I      13.57383295       0.46607232      22.88700078       53       0.15841400       0.03196500      -0.09974300 
I      14.60899978       6.97995062       3.41038414       53      -0.12748200      -0.34781000      -0.02965700 
I      11.63300863       6.85114187       9.50924733       53       0.33038600      -0.21661400      -0.07374000 
I      13.46841469       6.95873260      16.07698203       53      -0.11009200       0.06089400      -0.18097200 
I      13.35519789       6.63627837      22.88757005       53      -0.04079300      -0.19933900      -0.02786700 
I      13.66204991      13.64381775       3.55829896       53       0.11086900      -0.15844700      -0.45553100 
I      12.85086010      14.95295308      10.01583863       53      -0.23691700       0.01851900      -0.34821600 
I      13.85500200      13.33045036      16.33038077       53      -0.47215400       0.08128400       0.26675100 
I      12.64129444      12.67588270      22.95199238       53       0.09060800      -0.02851400      -0.24206800 
I      14.07073633      20.37601007       3.00538210       53      -0.09982900      -0.24017600      -0.21658500 
I      13.70525319      19.71088571       9.46997974       53      -0.18515600      -0.00461300      -0.30054600 
I      12.87711235      20.20042135      16.18819869       53      -0.07423800      -0.06058000      -0.17722500 
I      14.32055018      19.42101549      22.73616676       53      -0.39832700       0.05339600      -0.38257600 
I      19.50253963      -0.06116772       3.12738008       53       0.20009100       0.11354700      -0.16399400 
I      20.08422381       0.47737061       9.47104751       53      -0.21364000      -0.14845700       0.35035100 
I      20.29384589      -0.00529066      16.29161269       53       0.36621700      -0.23346000       0.28260600 
I      20.47115166      -0.32243987      22.91493110       53      -0.33094500      -0.09745300      -0.38090900 
I      19.61342190       7.35801831       3.39998540       53      -0.10708200      -0.08263300       0.00807800 
I      20.51477959       7.15299043       9.60877899       53       0.05253100      -0.29311300       0.02848400 
I      19.14827375       6.44187386      15.99892277       53       0.00882700       0.05178900       0.04067200 
I      19.43657052       7.37773160      22.55876662       53       0.01567700       0.00144800       0.63497500 
I      19.50144929      12.83111193       3.07493097       53       0.16043800       0.08553500      -0.21789800 
I      20.67948133      13.76678709       9.35736195       53      -0.02721400       0.23880400      -0.30335700 
I      18.92378696      12.90291841      15.52804496       53       0.39544300       0.39812000       0.53520900 
I      19.67788013      12.64119802      22.60395774       53      -0.07958600      -0.04350500      -0.00265300 
I      19.99522526      20.54636558       2.89693181       53      -0.19679700      -0.11861200       0.01393200 
I      20.87378942      19.38982338       9.44270074       53       0.13164200      -0.04036500       0.22265600 
I      19.60979393      20.84774539      15.66696731       53       0.24898400      -0.52428100       0.19385200 
I      19.84337885      19.10353189      22.55477657       53      -0.36888800       0.05300300      -0.77938400 
I       3.11362006      -0.35987759       0.36118333       53       0.24523100      -0.36855700       0.24693000 
I       3.57984111       0.00870117       6.05810523       53      -0.27700000       0.28200700       0.18042100 
I       3.19413284       0.42372551      13.70516190       53      -0.05382700      -0.11724400       0.03437300 
I       3.30883284      -0.26578531      18.81023372       53      -0.11932900       0.06508700       0.16951900 
I       3.25217212       7.33356312      -0.80199322       53       0.31379400      -0.69922200       0.40103900 
I       3.81050068       5.62651245       6.98351807       53      -0.47928500       0.57768700       0.16142800 
I       3.26831181       6.98489151      13.34533457       53       0.03621800      -0.08929500      -0.16295400 
I       3.34696086       6.28867556      19.65301568       53      -0.21618300      -0.22256600       0.04892100 
I       3.27273574      12.73650064      -0.96857305       53       0.11247400      -0.02005300       0.04983600 
I       3.38260357      11.92804232       6.64108078       53      -0.21494300       0.32922100      -0.17087100 
I       3.13316924      12.52178997      12.66647584       53       0.72157500      -0.31052800       0.02508500 
I       2.86454268      12.36527347      19.44587789       53       0.25288200       0.81830500       0.18664000 
I       3.67572634      20.15835457      -0.16497253       53       0.48421900       0.17847900      -0.13556900 
I       3.62945719      19.51071154       5.82164624       53       0.14399000       0.00860800       0.17236200 
I       3.30449917      19.89613260      12.10858218       53       0.84488100       0.23439900      -0.24493800 
I       2.93014972      19.73350692      19.45063415       53       0.14487600      -0.17531100      -0.14136200 
I      10.25090161       0.53999999      -0.83621017       53       0.17580800       0.01449700      -0.04601100 
I      10.13379938       0.07254807       6.21816456       53       0.27051000      -0.07820300      -0.02653400 
I       9.54407152      -0.06723588      12.10960072       53       0.76223000       0.23966300       0.13410900 
I       9.96130423      -0.56709127      20.63120792       53       0.35771900      -0.08629200       0.03241400 
I       9.89359447       6.57786880      -0.46390498       53       0.31606300      -0.08879800       0.13898900 
I      10.27682153       6.58126599       5.00263635       53       0.13053300       0.32575000       0.21014800 
I      10.02033846       6.06444520      13.46855932       53      -0.03162800       0.19022600      -0.22893600 
I       9.88141611       6.08858652      19.64870561       53       0.40090800       0.18373700      -0.00818300 
I      10.23427676      13.86408884      -0.06197291       53      -0.35807600       0.25815300      -0.06944700 
I      10.07986811      13.60294593       5.93410709       53      -0.40867600       0.13173600       0.11619400 
I       9.54247755      13.11787319      13.02436661       53       0.59859100       0.16920100      -0.20558200 
I       9.43453704      13.82750760      19.22869422       53       0.58270500      -0.11786300       0.13262500 
I      10.53376001      20.45443962      -0.01595916       53      -0.25212000       0.06458500      -0.45711600 
I      10.01110596      19.28223265       5.77338617       53       0.04360100       0.31297200       0.82807800 
I       9.90587643      19.25104976      13.22814311       53      -0.25222000       0.09110600       0.00757500 
I       9.85275650      20.30087309      19.81408740       53       0.09249700      -0.19560200      -0.25732700 
I      16.83026386      -0.90161822       0.42392450       53      -0.56094100       0.20843100      -0.42680400 
I      16.86152675       0.44050422       6.83811318       53      -0.76700300       0.18815500      -0.09948600 
I      16.91710225      -0.57075104      13.83868691       53      -0.41574200       0.18254200      -0.42669900 
I      16.77696956      -0.49611870      19.33902978       53      -0.03422000       0.26675300       0.39313400 
I      16.29327231       7.60014132      -0.42261876       53       0.22364200      -0.07091600       0.29765000 
I      16.88590296       6.89950041       7.02053319       53      -0.47833400       0.05917900      -0.05231500 
I      16.63894677       6.92660093      11.55045056       53      -0.29301400      -0.02146900       0.23870300 
I      16.33188344       5.81276865      18.78031555       53      -0.07391400       0.25237600       0.42683100 
I      16.53246176      12.86574020      -0.41863590       53       0.52433400      -0.12665000      -0.03229500 
I      16.62763001      13.74066203       7.13203499       53       0.54394900      -0.25404800      -0.26847300 
I      16.41342195      14.30002862      11.61093003       53       0.51669100      -0.20371600       0.27191700 
I      15.97342750      13.66474960      19.95577508       53       0.26833300      -0.21763500       0.27846100 
I      17.19395302      20.26991279      -0.35462180       53      -0.46184800      -0.18411500       0.24504900 
I      17.11391822      20.97350673       6.34169394       53      -0.59006200      -0.17411900       0.12241600 
I      16.58687922      21.06260991      12.42084590       53       0.43972300      -0.13356000       0.04819100 
I      16.45423838      19.88647648      19.02202724       53       0.23300300      -0.34863100      -0.19071200 
I      22.84824399       0.98147864       0.05296402       53      -0.03547300       0.23127800       0.22878000 
I      23.26628087       0.09259780       6.35731257       53       0.30587000       0.03890500      -0.05197800 
I      23.20721689       0.75481835      13.11410265       53      -0.21727400       0.44867800      -0.29280900 
I      23.33822171       0.64095945      20.31708252       53      -0.01061900       0.05399900       0.01019600 
I      22.98749764       6.62607862       0.28083261       53      -0.26759000      -0.12842700      -0.27234200 
I      23.38528478       7.46221392       6.10000687       53       0.74639800       0.07356400      -0.33467800 
I      23.14324588       6.35239527      13.86240974       53      -0.54635400       0.23048000      -0.14802500 
I      22.97962525       7.42569525      19.45235121       53      -0.16381000      -0.77429800      -0.12575400 
I      23.21844954      13.56768992      -0.22244766       53       0.00605100      -0.32058300      -0.14136600 
I      23.56253619      13.42644637       5.27333691       53      -0.01630300       0.05905100      -0.15283600 
I      23.28336319      14.33126894      12.69606372       53      -0.41552900       0.00180800       0.19212900 
I      22.61597507      13.12781754      19.34471739       53       0.00521200      -0.06610900      -0.03154400 
I      23.67622174      19.43161220      -0.08508851       53       0.34725000       0.15271200       0.07290200 
I      23.61051727      20.00621276       6.21970930       53       0.05401800       0.00771500      -0.21604800 
I      23.81846229      19.11049037      13.41632458       53      -0.71948000       0.08102900      -0.18871100 
I      22.92558525      19.26774026      19.75606966       53       0.14864100       0.24071900      -0.33326700 
I       0.67396811       2.85851146       0.13471177       53      -0.08379300       0.94854400      -0.05157200 
I       0.07404460       2.93703127       6.97002987       53      -0.00537000      -0.04315000      -0.22383600 
I      -0.11118588       3.16568453      12.92863216       53      -0.36411800      -0.22067500       0.49041400 
I       0.44755399       2.79016062      18.53114278       53      -0.08012000      -0.10930000       0.23887900 
I       0.19249667       9.72855117      -0.27645177       53      -0.29251500      -0.09535300      -0.22152100 
I       0.37641115       9.63407015       6.42140872       53      -0.10771500       0.11814600       0.13131900 
I      -1.11174597       9.81637117      11.62676508       53      -0.15000000      -0.03660100      -0.01469600 
I      -0.23700364       9.21166678      19.63805454       53       0.16876700       0.10365100       0.18664600 
I       0.83264785      16.48960824      -0.13248288       53      -0.13673100      -0.10291600       0.10250600 
I       0.23358389      16.69553876       4.93750012       53      -0.06678300      -0.11461700      -0.24922700 
I       1.09921887      15.98537918      13.02637599       53      -0.28887900       0.36856700      -0.46679300 
I      -0.29518139      15.67416683      18.35519814       53      -0.01519000       0.38849200       0.02301700 
I      -0.90059147      22.91583681      -0.00606713       53       0.35357900      -0.11058100       0.01377800 
I       0.39071993      22.96909419       6.80309822       53       0.21636500      -0.13466200      -0.05758000 
I      -0.09179979      22.60472088      12.12356383       53      -0.06361200       0.23962700       0.28585700 
I      -0.27187398      22.41100668      18.78751405       53      -0.17865300       0.10965000       0.32155300 
I       6.63520239       4.01997710      -1.49427964       53      -0.04825400      -1.13170200      -0.19116000 
I       6.76480403       3.15658127       6.52361750       53      -0.10776300       0.47746400      -0.35852600 
I       6.68404200       3.19578835      12.14367100       53      -0.25775300      -0.08281000       0.08804000 
I       7.03435373       2.96486107      20.28407386       53      -0.22677800       0.27494900       0.00981000 
I       6.99586465      10.12675577      -0.10230315       53       0.10636600       0.38156500       0.48603500 
I       7.19189082       9.84273420       6.17888055       53      -0.01005200      -0.33648600      -0.11485100 
I       7.13237553       9.77220577      13.19244604       53      -0.11474500      -0.22533600       0.08395200 
I       6.60314867       9.69015953      18.57044423       53       0.08870000       0.19406900       0.22466600 
I       6.91835928      17.01259976      -0.89456127       53       0.04400100      -0.41215900      -0.33686600 
I       6.46070914      16.22133248       6.95315987       53      -0.21344300       0.36942100      -0.25096600 
I       6.08311225      16.12465027      12.87385671       53      -0.14079200       0.35866800      -0.33157900 
I       6.61728513      16.81110958      19.46145344       53      -0.23699200      -0.30774200       0.07239900 
I       7.61887505      23.69049975      -0.18140557       53       0.05809000       0.21466700       0.38562300 
I       6.43472050      23.54928185       5.72200996       53       0.21686500      -1.45474300      -0.18827500 
I       7.28166585      22.69386406      12.43937756       53      -0.18266500       0.27328200       0.12589300 
I       6.92579369      23.20496031      18.35736856       53       0.11090800       0.19493900      -0.26319700 
I      13.71940401       3.58132122       0.23152528       53       0.00354100      -0.09604500      -0.09556900 
I      13.02601391       3.59764041       6.49588104       53       0.24773700      -0.07794400      -0.17901900 
I      13.25578931       3.51204417      13.33584154       53       0.14156800      -0.46360300       0.00220700 
I      12.96050329       3.20483519      19.34103198       53      -0.06820300      -0.10697200       0.09832700 
I      12.64058566      10.22210147       0.37239956       53      -0.15878000      -0.63816400       0.12887700 
I      13.71490520      10.12241903       6.19144048       53      -0.15784700       0.14378300       0.18361200 
I      13.37534813       9.98670616      11.88731922       53      -0.15901600       0.12748700       0.31716700 
I      13.09240049      10.13990651      19.30115408       53       0.14419400      -0.49068500      -0.11259600 
I      14.09679267      16.40751791      -0.29761235       53       0.07847100       1.08677000       0.04565600 
I      14.62409938      16.88855444       5.68872538       53      -0.23515500       0.58284800      -0.01315700 
I      13.42782391      16.76508968      13.81552721       53       0.05599400       0.85135300       0.26043100 
I      13.21594013      16.41186798      20.14223642       53      -0.14731800       0.57637200      -0.00949600 
I      13.90887378      23.19154493      -0.47337646       53      -0.21231300       0.76547500      -0.15729100 
I      13.51640808      23.49798667       6.40535519       53       0.01549500      -0.11294400       0.18019200 
I      13.14509680      23.30608081      12.51296161       53       0.07506300       0.13815900       0.26190700 
I      14.09415042      23.01384528      19.59518975       53      -0.31719200       0.03109100       0.21802100 
I      19.42260638       4.07168359      -0.78653358       53      -0.03115000      -0.32022600       0.17250400 
I      20.34043814       3.67870606       6.22199870       53      -0.10873700      -0.69257700      -0.23207400 
I      19.02335452       3.26093176      12.76011474       53       0.15229000       0.67875000      -0.88859600 
I      19.28430255       3.18199859      19.75014408       53       0.20239200      -0.48068800      -0.15950200 
I      20.34138283      10.18990826      -0.22963282       53       0.09990500      -0.30522200      -0.05492800 
I      19.96651231      10.40006986       6.51332134       53      -0.52921900       0.14701700      -0.61049600 
I      20.02520702      10.18246974      12.42715510       53       0.01626900      -0.05915100       0.01288400 
I      18.95510729       9.59335629      18.79692194       53      -0.11125700       0.33060700      -0.02330800 
I      20.12246672      16.93589239      -0.33867906       53      -0.15021300      -0.80409600       0.20472500 
I      19.63683291      17.04328209       5.55521370       53      -0.25740600       0.16816000      -0.17484900 
I      19.33325703      17.11965917      12.64096621       53       0.30165200      -0.22055200       0.51355700 
I      19.36371986      16.13263139      19.32351681       53      -0.00033500       0.25192000      -0.05648800 
I      20.97554074      23.09517249      -0.83870165       53       0.02261600       1.00900600      -0.26301300 
I      20.34993117      23.41340691       6.67689992       53       0.14349700      -0.20268400       0.03582600 
I      21.77656978      23.54423531      12.36023822       53      -0.23758900      -0.34888000       0.12350500 
I      20.34093356      22.66152109      19.41066086       53      -0.13080900       0.52936600       0.07664700 
H       4.49606454       4.13217947       3.13804243        1       0.03234400      -0.21335500      -1.34631700 
H       4.22978483       2.89459522       9.65459786        1       0.16645000       1.51728800      -0.68847200 
H       3.88464477       4.37113403      15.18582307        1      -0.64789800      -0.55352600       1.34066500 
H       3.30708706       1.60554040      22.49628392        1      -0.12169200       0.38959000       1.28433500 
H       3.96170293       8.63042879       3.44099159        1       2.49729400      -0.98144700       2.18732800 
H       3.76450026       9.78910961      10.90891158        1       0.26703400      -0.03063400       0.15316800 
H       3.63853377      10.22794807      18.00179181        1       0.35690800      -0.15832200       1.90714600 
H       2.07160759       8.97996303      21.94439073        1      -0.45845700      -0.66368400      -0.27970200 
H       4.78248937      16.82250635       2.00808687        1      -0.88105900      -0.10806800      -0.34446300 
H       3.86218255      17.03541585       7.78820483        1      -0.86755400      -0.72720900       1.45328200 
H       1.69213262      15.82369921      15.97710265        1       3.09241700       0.40476700       0.40372200 
H       2.04590718      16.01333925      21.51615000        1       1.51627500      -0.52486800       0.33547300 
H       3.55973087      22.70866416       4.52657660        1       0.61163900      -0.18334300      -1.01526900 
H       2.26611980      23.44522061      10.69816942        1       1.36838400      -1.67457300      -0.20609100 
H       3.92919277      23.17532011      14.02050995        1       0.09673300      -0.62921300       0.41475900 
H       2.07236354      22.42242293      23.94107365        1      -0.05017900      -0.65070900      -1.29456900 
H      11.69727300       3.19103825       2.83829966        1      -0.47338700      -0.73413300       0.76666000 
H       8.41771007       2.90151677       8.65383262        1      -0.16231200      -0.33876400       0.06541700 
H       9.03549033       3.37660003      14.82259856        1       1.74914400      -1.79987800       1.01342300 
H       9.61199668       4.41334236      22.31254997        1      -0.80375500      -2.03227400       0.34871600 
H       9.92560511      11.08662046       4.28168518        1      -1.39945800      -0.78762500      -2.08507400 
H      10.31813646      11.73493227       8.63069651        1       1.47935600      -2.82004600       0.12337300 
H      11.13887777       9.39689726      15.09660809        1       1.56746000      -3.95651500       0.20756000 
H       9.34927211       9.07136074      21.59227988        1       2.16089100      -0.75995500       0.61773500 
H      10.95379704      16.13587984       3.36181737        1      -0.04429400       1.41246000      -0.70779400 
H       7.93336149      15.34180825       9.21553169        1       2.39468200       0.59980100       0.50984100 
H      10.41910823      15.45723650      17.06896507        1       0.01268800       1.35752500      -1.25564900 
H      10.16751579      18.71455261      22.94227575        1      -0.11052600       3.31247600      -0.50669300 
H      11.77700623      22.42142901       3.83990189        1       1.27142000       1.20518500      -0.15407500 
H       9.90381268      23.76103331      10.29836367        1       0.05166400      -0.42165800      -0.92297800 
H      10.23853452      24.39710111      16.80543838        1       0.42333400      -1.25094600      -0.28321000 
H       9.25537062      21.64763896      23.19434309        1      -0.78446500       1.14321500      -0.78443300 
H      15.54490060       1.85930224       3.35526816        1       1.36006500       0.87192000      -0.55641200 
H      17.31840657       2.84894150       9.76279274        1       0.86066500       1.02607200      -0.34983200 
H      16.70955315       2.89331923      17.14642941        1      -1.30327900       2.63409900       2.52246000 
H      16.87590220       2.33370852      23.37037800        1       1.36558000      -1.02593900      -0.30186700 
H      15.99842530       9.53728331       3.12400649        1      -2.33452900      -2.28115900      -0.05615300 
H      16.68932598      11.75355214       9.35484586        1      -1.30012800       0.78525300      -0.35923900 
H      17.11381155      10.83553986      14.70547582        1       0.39386800      -0.82911000       1.21454500 
H      15.47485015      10.22200916      21.82764648        1       0.81018900      -1.36570800      -0.55174600 
H      16.45979162      15.42358780       3.35780579        1       0.39659700      -0.81022900       0.74875000 
H      17.60568070      18.62704648       8.96684511        1       0.35349300      -0.36489800      -0.00312100 
H      16.80661796      15.79894861      14.84270265        1       1.12414700       0.99640800       1.68851400 
H      17.11173447      15.83238089      24.31378709        1       0.48258200       0.90117900       0.26682500 
H      17.14995891      24.32800355       3.93262996        1       2.36279900       0.98264100       0.33968600 
H      17.62430981      23.59153736      10.54795904        1      -0.13770200       0.11971000       0.48254900 
H      16.14900391      23.84320673      17.08724440        1       1.09541800      -0.95640900      -1.21798300 
H      16.33499240      22.13470877      22.73515745        1       0.29297100      -0.87651800      -0.25481600 
H      24.12434501       3.23667454       3.44797879        1       0.09388600       0.37385800       0.33950400 
H      22.07981742       2.31421781      10.18847225        1      -0.56805800       2.13721700      -0.79922200 
H      22.75978804       2.99949242      17.23344525        1       0.02951100      -3.36927900       3.47950700 
H      21.76283335       3.64749240      21.65570316        1       0.05717400       0.38638800       0.10414100 
H      23.52083353      10.05719562       1.05245121        1      -0.77281800      -0.71320000      -0.23747800 
H      24.23791876      10.92714989       8.61765039        1       0.53810300      -0.13273000       0.47102000 
H      22.33254739      10.42817866      17.88953098        1       0.24406200       0.00289700      -0.02852000 
H      23.50437279      11.47962980      23.09541045        1      -0.57670600      -1.14554600       1.12778600 
H      22.96871365      17.28347572       3.53968422        1      -0.54258000      -0.57971800       0.80478800 
H      22.74534181      16.33517087       8.14957176        1       0.97518000       0.68067200      -0.11037300 
H      21.85202987      17.62338051      16.16496410        1      -0.29143200       0.14286500       0.67596200 
H      22.34222504      15.67696499      22.56712110        1      -2.05255200      -1.60876500       0.01649000 
H      23.06208074      21.65047097       2.41505111        1       0.30006100      -0.99698700      -0.73979500 
H      23.00806536      24.48091055       9.64775324        1       0.78814600      -0.86260400      -0.27112300 
H      23.63627820      22.48599596      17.03501992        1      -0.50894100       0.52217500      -0.72555300 
H      23.75186133      24.59585979      22.66612759        1       0.03915800       1.09032200      -0.02021500 
H       2.63352616       4.07323243       3.05115993        1      -1.87340500       2.49707800      -2.32257200 
H       2.22624292       3.25091049       9.28652375        1       1.67245700      -0.21386400      -0.03312200 
H       2.87931714       4.73799266      16.71255133        1      -1.41403300       1.35395400       1.07227200 
H       2.99797333       2.81998853      21.29548298        1       0.50605700       0.33493800       0.23905700 