768
Lattice="25.173900829 -0.432328247159 -0.168278061134 -0.439847526034 25.3895837617 0.268438060431 -0.180110959581 0.266451743649 25.43572337" Properties=species:S:1:pos:R:3:Z:I:1:forces:R:3 energy=-99794.0099521 stress="2477.824551 2185.397411 2181.783886 2185.397411 1215.800327 -117.05272 2181.783886 -117.05272 -1034.824281" pbc="T T T"
I      -1.39808758       0.04677468       2.77569744       53       0.07682400      -0.00725500       0.50722700 
I       0.29919617       0.04532378       9.27255859       53      -0.07393400      -0.04814900       0.29745100 
I      -0.68890117       0.68467060      15.67240384       53       0.09031900      -0.12838800      -0.13862300 
I      -0.17008167       0.27191534      21.98083163       53      -0.12171200      -0.03036400       0.17700100 
I       0.15799279       6.17448184       3.14574054       53      -0.03022300       0.20800000       1.10775400 
I      -0.66211178       6.01431807       9.37525888       53       0.50234400       0.18175700       0.23055100 
I       0.51710870       6.98170124      16.45348457       53      -0.38301100       0.42278800       0.35802400 
I      -0.55608174       6.38675393      22.80264015       53       0.18981500       0.11339500      -0.67963500 
I      -0.43262234      13.50037475       3.70210269       53      -0.22783900      -0.23373000      -0.02263700 
I       1.04993794      12.26559699       9.72845981       53      -0.66605600       0.02193900      -0.07094000 
I       0.02215237      13.58857874      15.89893971       53      -0.09746600       0.37119300       0.80239100 
I       0.02339516      12.83105536      22.70201508       53       0.00339300      -0.07876500       0.07234500 
I      -0.71122940      18.99829833       3.48826147       53       0.11431500      -0.41354300       0.28533700 
I      -0.55709005      20.57789110       9.78670980       53       0.35956900      -0.78240000       0.34259600 
I      -1.01939575      19.59933356      16.21560921       53       0.63224800      -0.00587400      -0.11122100 
I      -0.39708358      19.82273118      22.46153104       53       0.12278700      -0.00816000       0.54662100 
I       5.75250921      -0.45939609       3.77507272       53       0.18478700      -0.02761900      -0.16846500 
I       5.86408882      -0.71215954       9.74055651       53      -0.06240500       0.00994100      -0.02417900 
I       6.29978491      -0.07350349      15.94364502       53       0.21550300       0.09179200      -0.16440500 
I       5.61109088      -0.46692905      22.02365322       53       0.27095600       0.96201300       0.44919900 
I       6.15135341       5.44997841       3.05798891       53       0.10423500       0.05686600       0.43729100 
I       6.86229849       7.03525168       9.34081539       53      -0.39230700      -0.49106300      -0.11787200 
I       6.24860086       4.68046874      15.23954507       53      -0.27661600      -0.49124500       1.69565300 
I       6.47621049       6.47928229      21.97839099       53      -0.20877900       0.09625400       0.02565700 
I       6.24151930      12.73547083       3.30140505       53      -0.15616300       0.16415200       0.16421700 
I       6.14191132      12.86588674       9.74531664       53      -0.14901200       0.07911900      -0.15131300 
I       6.26649725      13.33935217      16.08539652       53       0.11635100      -0.03820300      -0.23617300 
I       5.60611385      12.74087873      22.20880374       53      -0.07930300      -0.07908900      -0.02193800 
I       5.75860788      18.46141635       3.18642730       53      -0.09928600       0.05368000       0.54058600 
I       5.66672729      18.83147215       9.73091706       53       0.02968700      -0.02792600       0.65418000 
I       5.35725366      19.34014511      15.89050690       53       0.27948000      -0.26707100       0.62598800 
I       5.15215498      19.19035943      22.62230057       53       0.29997900      -0.63003700      -0.46000900 
I      11.32473648      -0.48343023       3.17618306       53       0.13700800       0.20809100       0.45743700 
I      12.71848015       0.46971458       9.36751684       53       0.20529900       0.05122700      -0.52756400 
I      11.97889127      -0.66454851      15.54119848       53       0.12993700       0.11263700       0.45186000 
I      12.98941552       0.12644328      22.72021534       53       0.14465700       0.00552500      -0.27514400 
I      12.69292672       6.73880880       2.73209031       53      -0.02929500      -0.04638700       0.85617000 
I      12.81527328       6.28379863       9.34632588       53      -0.26251600      -0.19624400       0.06287700 
I      12.67018422       7.10492421      15.85501211       53      -0.00879000      -0.15652200       0.00209000 
I      12.42203532       5.88257534      22.43925166       53       0.03404300      -0.19454800      -0.45792900 
I      12.27158037      11.08141120       2.61017560       53      -0.32016300       0.17012100       0.03914100 
I      11.77271100      12.17592451       8.96240397       53       0.21818100      -0.01229100       0.22437400 
I      13.19376286      11.91372190      15.97735770       53      -0.11163800      -0.08385700      -0.11446200 
I      12.23658582      13.50134788      22.04022866       53      -0.08024100      -0.23424300       0.10687700 
I      11.14357520      18.82385419       3.40207311       53      -0.07894700       0.16372700      -0.09183700 
I      11.45106251      18.49737327       9.56345190       53       0.17361000      -0.02376200       0.31823300 
I      11.72795390      19.42393973      15.92071396       53       0.18047000      -0.20083100       0.02262500 
I      12.04836839      18.70588377      22.32656604       53       0.19734000       0.11949600      -0.28465800 
I      19.78131261      -0.08186693       2.25007483       53      -0.57640100       0.37098800      -0.13615700 
I      18.79124850       0.00820223       8.80086942       53      -0.40472100      -0.36871800       0.32217100 
I      18.41886930      -0.06946833      15.44605264       53      -0.14615600       0.05279700       0.42816400 
I      18.27974994      -1.54310141      22.32504675       53      -0.02339700       0.31057300      -0.11270400 
I      18.76921924       5.54297575       2.89800394       53       0.56129200       0.61922900       0.34212100 
I      18.30661945       5.88349473       9.60038488       53       0.06244800      -0.06090400      -0.54301600 
I      18.89174167       5.48361389      16.08113371       53       0.04915400      -0.02022500      -0.47218100 
I      19.56337370       7.04230784      22.27120320       53       0.11019900      -0.04730700       0.20331900 
I      18.75115089      13.00934024       3.28524974       53       0.06011000      -0.60203400       0.48875500 
I      19.20810145      10.04956214       9.37861989       53      -0.40569300       0.50617700       0.04648500 
I      19.69349162      12.26180120      16.10633443       53       0.00407400       0.40493200      -0.48463100 
I      18.79055773      12.48113142      22.29184800       53      -0.22294300      -0.08196000       0.18181900 
I      17.36331340      17.56258700       3.72782417       53       0.37632300       0.86790800      -0.15448900 
I      18.86535775      20.04456749       9.68574472       53      -0.35659800      -0.53758900      -0.07446500 
I      18.10483291      17.98957378      15.65092563       53      -0.06168500       0.19323200       0.35507000 
I      17.82680621      19.18257928      22.49090566       53       0.35458500       0.15568900      -0.40047400 
I       3.44132558      -1.44307722       0.29723037       53       0.47701200       0.04450100       0.07936600 
I       2.99309605       0.07114297       6.32915172       53       0.12779700       0.18059000       0.11007100 
I       3.27128103      -0.04144690      12.69935074       53      -0.21090700       0.38671100       0.07966100 
I       2.81461772       0.78703381      19.08814082       53      -0.18821000      -0.00204200      -0.27520100 
I       3.22900952       6.43160971      -0.10785319       53      -0.27749500      -0.06728700      -0.03398100 
I       3.16886212       6.63917835       7.24942509       53      -0.38512400       0.01918800      -0.08945700 
I       2.77700667       7.29307814      13.40097684       53       0.02380200      -0.43709000      -0.77244000 
I       3.00947022       5.68874678      19.23507257       53       0.29038300       0.09089500       0.22640400 
I       2.76882300      12.07846700       0.51557866       53       0.13094800      -0.04577900       0.07360200 
I       2.65012861      12.41812130       6.27177423       53      -0.18812500       0.00604100      -0.31112900 
I       3.31391308      12.53482157      13.00761674       53       0.37078100       0.23938100      -0.20168400 
I       2.85977540      14.42321674      19.10526535       53      -0.22426600      -0.15472200      -0.23160800 
I       2.77237258      19.30938993       0.62445383       53       0.30158400      -0.00499600       0.03412000 
I       2.69581487      18.80643654       6.67018463       53      -0.29061200       0.06014900      -0.15699200 
I       2.69144556      19.79135851      13.30354668       53       0.06551900      -0.17631800      -0.24461100 
I       2.50179969      19.45198461      18.99002673       53      -0.02147400      -0.31208100       0.16768400 
I       9.32015887       0.08002228      -1.30367452       53      -0.05210100      -0.01458000       0.03623600 
I       9.33361267      -0.30137106       7.46454525       53       0.24749400      -0.09664600      -0.32622900 
I       9.37411673       0.31838421      11.87210305       53      -0.32204400      -0.03734300       0.03134100 
I       9.02188795       0.38855111      19.63127095       53       0.37275100      -0.58744400      -0.32033300 
I       9.27298751       7.20019023      -0.11952097       53       0.38205400      -0.13525400       0.03296200 
I       9.19847083       5.52910084       6.57887854       53       0.75075000       0.32716200      -0.35393400 
I       9.38006493       6.63907674      12.74919136       53      -0.04443500      -0.04813400      -0.00715700 
I       9.28647844       6.74461435      19.00251131       53       0.44296100      -0.49471200      -0.26896300 
I       8.98155487      11.95674476      -1.08226810       53      -0.27519300      -0.08049300       0.35684900 
I       9.11956432      12.76975116       5.82313532       53      -0.05783300      -0.28387100       0.19781300 
I       9.66724354      11.99716968      13.24585263       53      -0.03937500      -0.03644800       0.09372100 
I       9.11758582      13.03405049      19.42570329       53      -0.14231900      -0.29314300      -0.12922600 
I       9.28446672      18.22529477      -0.49677558       53      -1.03444500      -0.04654700       0.17039000 
I       8.90284280      18.74135609       7.01374220       53       0.06143000      -0.05198000      -0.26694700 
I       9.19704240      18.70240552      13.02623614       53      -0.29711900       0.14870500      -0.10930400 
I       8.95558034      19.70110274      19.06283555       53      -0.09181900      -0.37764000       0.21982500 
I      15.16962730       0.41931313       1.50860906       53       0.01119400      -0.05003100      -0.35037100 
I      15.92831042       0.52696994       5.27892654       53      -0.65990200      -0.06118300       0.21812000 
I      15.71312773       0.54273346      12.30804242       53      -0.19975000      -0.31963100       0.19506900 
I      15.15831419      -0.06758069      19.01001203       53       0.14079400      -0.03499900       0.04234700 
I      15.91057231       6.07769555      -0.52332071       53      -0.16304500       0.16253100       0.00807900 
I      15.69303594       6.28534039       5.18254083       53      -0.03355400       0.07885600       0.43795800 
I      15.89510288       7.09111769      12.28476060       53       0.03451100      -0.17018800       0.11808900 
I      16.11448781       6.81715449      19.01986838       53      -1.00122700      -0.01833600       0.02463600 
I      15.67906431      12.68062777      -0.03576640       53      -0.01078900      -0.41349800      -0.00958500 
I      15.40848849      11.42846852       5.82675427       53      -0.08804000       0.29210200       0.30445000 
I      16.11747461      11.77683507      13.41165195       53       0.00486100       0.01255500      -0.21666000 
I      15.63816748      12.78569738      19.25829186       53      -0.42967900      -0.04916100      -0.15858600 
I      15.17406989      18.40420104      -0.41352810       53       0.57412300      -0.12256900       0.21354900 
I      14.95450616      18.27230980       7.91708253       53       0.39044400       0.39524800      -0.30718800 
I      15.38323989      17.90860182      12.36635103       53      -0.51258900       0.14147300      -0.04431100 
I      15.32786044      18.11716801      19.70273244       53      -0.34374000       0.10861100      -0.44219500 
I      22.15803493      -0.65349334      -0.81263610       53      -0.77116300      -0.06840800      -0.32128300 
I      21.87298625      -0.00115974       6.33595386       53      -0.33663800       0.09831400       0.16663200 
I      21.90675755      -0.65913670      12.04489795       53       0.19760400       0.50660100       0.18937600 
I      21.20689989       0.44992762      19.25014434       53       0.28910900      -0.18840900       0.01769200 
I      21.83065123       5.15884964       0.11007497       53       0.26204400      -0.10769600       0.12554200 
I      21.98495961       6.57296161       6.98072714       53      -0.32159100      -0.05695400      -0.71104500 
I      22.16836319       4.71046280      12.88152715       53       0.94488000      -0.18319700       0.16879900 
I      21.95316193       6.32354939      18.67126930       53       0.70154500      -0.08095800      -0.07256000 
I      21.95794551      12.46080220      -0.01905027       53      -0.05533800      -0.24116600       0.41222100 
I      21.32930116      13.07345538       6.78991371       53       0.33595400      -0.07312600      -0.02331500 
I      22.16712430      13.20027189      12.67021646       53      -0.03764900       0.04690400      -0.14635800 
I      21.64964726      12.95260466      19.66056058       53       0.47142300       0.07018600      -0.21220600 
I      21.41514268      18.93144162       0.56459076       53       0.26799700      -0.03070000      -0.05486800 
I      21.45765455      19.00041850       6.35076476       53       0.02132600      -0.19387200       0.02712900 
I      21.57576761      18.87268260      13.08949931       53      -0.08937500       0.09998200      -0.18170100 
I      21.18387209      19.65190012      19.11750665       53       0.12915200      -0.02610200       0.28322000 
I       0.47268673       2.88096637       0.59629953       53       0.07087100       0.09162900      -0.32294900 
I       0.19992430       3.23935536       5.35626588       53       0.00148500       0.60298100       0.25221200 
I       0.63451732       3.15978447      12.25892383       53       0.18581700       0.38259900       0.06457500 
I      -0.13670022       3.74986516      18.22194060       53      -0.28828300      -0.34557300       0.06579600 
I      -0.02589735       9.35119250       0.32611452       53      -0.44608000       0.12226100       0.04432300 
I      -0.22159499       9.64111170       6.10359583       53       0.25809800      -0.29898000      -0.08899900 
I      -0.04454118      10.62072640      13.61686495       53      -0.16175600      -1.40195600      -0.24057000 
I      -0.35137485       9.76146999      19.98812698       53       0.12279600       0.03465300      -0.06984800 
I       0.55688096      15.93137734       0.57145542       53      -0.18297600      -0.01165900      -0.15649700 
I      -0.02718118      15.73464112       7.10019241       53      -0.02400900       0.30289800       0.06183600 
I      -0.44061352      16.72918690      12.00055804       53       0.04637400      -0.26736700      -0.23595500 
I      -1.02665611      16.18420333      20.39365021       53       0.56326400       0.14268600      -0.49039300 
I      -0.09996361      22.12743119       1.32927680       53      -0.37716700       0.24744100      -0.11486700 
I      -1.16101339      22.63257900       6.44622033       53       0.27769600      -0.58331300      -0.07793600 
I       0.20049587      22.68811184      13.26967964       53      -0.26414200      -0.39499600       0.13720700 
I      -0.52713994      22.59364797      18.96138391       53       0.21515800      -0.08540200       0.30396500 
I       6.51959192       2.79285910       0.00543526       53       0.00153100       0.18765900       0.07397000 
I       6.69976541       3.06408465       6.94448882       53      -0.66156800      -0.23640900       0.09720400 
I       6.69932477       3.41632808      11.76666509       53       0.39807300      -0.54526500      -0.17027800 
I       6.41080761       3.09464246      19.35482998       53       0.19460500       0.00354500       0.07470900 
I       6.15747650       9.23117129       0.86475420       53      -0.24418600       0.19816400      -0.10576800 
I       6.01846950       9.45921277       5.76630986       53       0.00522900      -0.11457500       0.13855900 
I       6.26436536       9.55894385      14.25538616       53       0.23218800       0.14071700      -0.26518800 
I       6.58886582       9.51629226      18.86715746       53      -0.64869700       0.04190800       0.26700100 
I       5.83118416      15.53265136      -0.37216229       53       0.03522700       0.15690100       0.04490600 
I       6.21754573      15.63441468       6.28698182       53      -0.22720900      -0.02045100       0.16980100 
I       6.50720016      15.84490466      13.12958422       53      -0.21260200       0.08101400      -0.18155600 
I       6.31015421      15.92092500      19.44657866       53       0.16940900       0.46986000      -0.05832500 
I       6.76096507      21.80963613       0.42843573       53       0.06315300      -0.14116000      -0.06333000 
I       6.12799343      21.90665594       6.67314310       53      -0.15449500       0.27501700      -0.18837000 
I       6.37158738      22.12412294      13.08485252       53      -0.05401300       0.14500300      -0.08639400 
I       5.89643755      22.23156773      19.83024459       53      -0.18897500      -0.29289700      -0.36286000 
I      12.64311833       3.39609266       0.54206712       53      -0.41330800      -0.35720600      -0.33887300 
I      12.89778603       3.21194556       5.54611106       53      -0.07669200      -0.74048300      -0.09768700 
I      12.37574524       3.23503588      12.88412021       53       0.05251100       0.10915800      -0.24470500 
I      12.28877036       2.92879039      18.73275914       53       0.03198800       0.24985700       0.05413400 
I      12.86736011       9.43203354      -1.85373380       53       0.11459000       0.13108800       0.51189600 
I      11.24226183       9.42723629       6.03261993       53       0.18611000      -0.61038300       0.27328900 
I      12.88047195       9.59188075      11.95025430       53      -0.14981100      -0.53276300      -0.36318000 
I      13.31250709       9.51012032      19.82327050       53      -0.41076100      -0.16966900      -0.40293200 
I      12.14881368      14.89549214       0.69810290       53       0.01783000       0.58253300      -0.10124700 
I      12.11259491      15.71784194       6.24215926       53       0.04606100       0.15220100      -0.12414600 
I      11.90644981      15.77532495      13.07993020       53       0.38558900      -0.04323400      -0.26817100 
I      12.04653840      15.45269259      18.51037862       53       0.15798500       1.42952200      -0.29606400 
I      11.67543619      21.40648515      -0.02052071       53      -0.11504500       0.09203000      -0.60010500 
I      11.92356946      22.24652910       6.98556249       53       0.29862900       0.18703200       0.06486600 
I      11.92261392      22.13061242      11.96546775       53       0.03210900       0.12413800       0.06746400 
I      12.27969857      21.95979602      19.29131963       53      -0.07844300       0.15830900      -0.28845500 
I      18.55629351       2.42195328      -1.15942278       53      -0.78471000       0.18757900       0.64851100 
I      18.89840506       2.98560804       6.39635137       53       0.00863700       0.40036900      -0.15037200 
I      19.21861730       2.90198537      12.25870595       53      -0.51083700      -0.40426600       0.05713500 
I      18.68300058       3.58157244      19.78959300       53      -0.14815600      -0.42380800      -0.02685100 
I      18.86450968       9.16592572       0.23430429       53       0.36635600       0.14106800       0.15011000 
I      19.02665097       9.34712314       5.59491603       53       0.23468600      -0.41508900      -0.66368100 
I      20.35082178       9.09426883      13.90950129       53      -0.00765600      -0.30981900      -0.24410600 
I      18.81979460       9.79957738      18.92167125       53       0.39369700      -0.14539600       0.31490900 
I      18.48398688      15.73562402      -0.56197816       53       0.23583000      -0.10138200       0.14624600 
I      17.59071492      15.30459230       7.49493795       53       0.18264500       0.06631200      -0.23600600 
I      18.10304103      15.10459863      12.40718044       53       0.05867000       0.12981000      -0.14408400 
I      18.79944193      16.00282026      19.60823828       53       0.18077400       0.33500800      -0.18813600 
I      17.43771382      21.95057572       0.73596701       53      -0.12402700      -0.21621700       0.12804500 
I      18.32506689      22.17367534       5.93107059       53      -0.07286400       0.12676700      -0.05237200 
I      17.54333839      22.09512545      12.66121209       53      -0.21186900      -0.26406500       0.24674300 
I      17.81986241      22.23197418      18.38651472       53      -0.10137100       0.10039100      -0.06173000 
H       4.78169761       2.60332266       3.17151576        1      -2.66963100       1.18568700      -1.29302200 
H       2.95588168       4.36609136       8.67391417        1       0.41848700      -0.21255200       0.41342700 
H       2.69159212       4.47269883      14.40402578        1      -0.71167100      -0.31909700       2.35865800 
H       4.34841871       2.66068745      23.34964815        1      -0.98792800      -0.20682400      -0.10738300 
H       2.86426489       8.75661549       4.87558308        1       0.28606500      -0.49177000      -0.95674000 
H       4.61051091      10.07183077      10.43900236        1       0.36460200      -0.63191900      -0.07036200 
H       4.15850416      10.82416511      16.62637815        1       2.84770100       0.71930000       2.35932500 
H       2.66858191       8.87730109      21.42169958        1       0.69393900      -2.61027200      -2.11482200 
H       3.93547195      14.97233612       3.72310606        1       3.84964800       0.46252100       2.69773500 
H       1.99927816      16.62711875       9.76167517        1       0.05858100       0.28262700      -0.45689000 
H       0.48535597      16.42238645      14.89514822        1       2.80821100      -0.20228000      -0.03593600 
H       3.87239931      16.16638217      21.49313663        1      -2.37356700       1.40390300       1.31495900 
H       2.36876630      22.80777839       5.24040880        1      -0.36124500      -0.67719700      -1.33894000 
H       2.60857619      20.73052387       8.61337694        1       0.66475400       2.96102900       0.04488300 
H       2.34944343      23.37040922      15.45533059        1       0.04874900      -0.73451900      -0.04065500 
H       2.48296242      23.23421706      21.50322943        1      -0.03633900      -1.28398800       0.87012900 
H      10.82294479       3.65221419       2.93700825        1      -0.53033400      -0.23531400      -0.17358000 
H       9.16674447       3.21709748       8.28651205        1       0.25281500      -0.11859700       0.61866800 
H      10.25425633       2.90219543      16.31936080        1       0.41518700      -0.38862500      -0.11115100 
H       9.02747465       4.85814492      21.90513567        1      -0.57237500      -1.14392600      -0.04579800 
H       9.65565002       8.71457846       4.02274190        1      -0.06203000       0.03330700       0.25776500 
H       8.29106602       8.99191733      10.44773902        1       0.86919000       0.75492000       0.29935900 
H       9.84149716       8.56626030      16.57017897        1       0.51521000       1.68145800      -0.30147500 
H      10.10944475       8.40179073      21.40244706        1       0.15618000      -1.66183200      -0.51319200 
H       9.28888879      14.24556596       2.22813253        1       0.48806300      -1.52022100      -0.22483800 
H      10.39050907      14.99918315       9.40546301        1       1.65560400       0.42198600      -0.92441700 
H       9.93491756      15.63197306      16.83536838        1       0.39259400      -0.38747000      -0.81427800 
H       9.47057571      17.12122213      22.48611036        1       0.01633700      -0.28356400       0.21365300 
H       9.49296940      22.14265050       2.77590164        1      -1.45120700       0.60243000       0.07508600 
H       7.99043361      20.71070173      10.51545845        1       0.01198600      -2.25034900       2.09012300 
H       8.91997417      21.47164963      17.23708507        1       0.76223500      -0.90518100      -1.83398400 
H       8.99982840      21.44029943      22.20716622        1      -0.18610900      -0.61985300       1.19175700 
H      14.75072941       3.12387151       2.95982304        1       0.65141000       1.92297100      -0.22741300 
H      14.71058588       3.82640528       8.72518225        1       1.35399600      -1.13324000      -1.39401400 
H      16.52895484       3.06094836      16.04366140        1       4.17949000       0.75883300      -3.90696600 
H      15.84867212       1.98490105      22.32323043        1       0.54292100      -1.76927000       0.51930800 
H      16.37411397       8.11577772       2.69527066        1       0.93152600      -1.68644400       1.52694100 
H      14.67561478       7.86969720       8.04091810        1      -0.77356100      -1.26035700       0.73922500 
H      15.96871678       8.49946026      15.81659696        1      -1.44560300      -1.17980400      -0.25188200 
H      17.30533406       8.99175905      21.56264111        1       1.08963200      -0.07006600      -0.35280000 
H      14.04240279      14.33123748       3.71795317        1      -0.94981200       0.50295600      -0.08482300 
H      15.95920532      13.75963257       9.98065756        1      -0.36061100      -1.03858600      -0.44874600 
H      15.03850206      15.38231855      14.19202432        1       1.86458900       0.64295300       1.96921100 
H      16.84354130      15.57573284      22.35957036        1       0.26369500       0.50639400       0.84044700 
H      12.39829526      21.84355203       3.00130512        1      -1.26414500      -0.43818600      -0.57722100 
H      14.71990974      23.57150694      10.48578779        1      -0.44536800       2.16787600       2.74614100 
H      13.64244574      21.67999208      15.16281540        1      -0.35476000       0.36002500      -0.54173800 
H      14.41546981      22.25146705      21.06624169        1      -0.40833900       1.23679900      -0.10132200 
H      21.05721973       3.54315143       2.99143606        1      -0.40499000       2.44388200      -1.53479000 
H      20.98623015       4.23762171       8.59994463        1       1.34075800      -1.00538900       0.84579100 
H      20.88989526       2.56673652      14.86081708        1      -0.47045500      -0.44061700       1.27952100 
H      21.94931925       4.14770887      22.47616510        1       0.19045000      -1.50786700      -1.44958200 
H      22.25474501       8.22090204       2.01762594        1       1.02160800      -0.07598300      -1.58669900 
H      23.93025744       9.82488460      10.43124273        1      -0.26611900      -0.78678700      -1.18133100 
H      23.35609171      11.17014866      17.31714644        1       0.32882500       0.71507400       0.18123600 
H      21.83194580       9.04153031      21.39087503        1      -0.73940600       0.47489900      -0.24639700 
H      21.50375703      14.44696266       3.31869177        1       0.14648400      -0.85531000      -0.92778200 
H      21.47853677      15.67426217       9.69713893        1      -2.15150700       0.76299500      -0.50938400 
H      21.86263064      15.85961786      15.02760223        1      -1.85375300      -1.07311500      -2.60754100 
H      20.68934858      16.70068966      22.81430696        1       2.44364400      -0.93713000      -1.22119700 
H      20.27582733      23.00379063       2.55940484        1       0.09229700      -0.58115200      -0.28604700 
H      20.88468374      21.50079661       9.15630483        1      -1.07940600      -0.09568400      -1.20191200 
H      20.27884442      21.95195529      15.63364282        1       1.22226300       0.65674100      -0.07688000 
H      22.03286863      22.23244608      23.92399463        1      -0.13656600      -0.54792900      -1.48197300 
H       3.00502274       3.56092373       2.75951868        1       0.75636300       0.60757000      -0.57728400 
H       2.04759558       3.06376613       9.40995641        1       0.10103000      -0.55368000       0.05311100 
H       3.14090811       4.75489553      16.17085016        1      -0.94904700      -1.40026300      -0.59726300 
H       2.98866812       1.65875820      22.80353903        1      -0.63009800       1.18957700       0.02158500 