768
Lattice="25.51683530216674 0.008607537526777813 2.7832773124944122e-06 -0.008502843193223024 25.181681945267968 -0.6181279524311534 0.00021408131382672247 -0.6138378572577571 25.18179730436026" Properties=species:S:1:pos:R:3:forces:R:3 energy=-3658.4921884039586 stress="-9.029608679374983e-08 1.4851728291156098e-08 -7.541622172433648e-09 1.4851728291156098e-08 -5.690036262815619e-08 -1.8474233535209268e-09 -7.541622172433648e-09 -1.8474233535209268e-09 -1.7252461136126714e-08" free_energy=-3658.4921884039586 pbc="T T T"
H        7.25171467       9.88545990       2.04715948       0.00000048       0.00000584      -0.00001233
H        7.25355281       4.46030006       1.33110437      -0.00000533      -0.00001050      -0.00000529
H        7.25393665       3.43653478       8.49707901      -0.00000247       0.00000788      -0.00000807
H        7.25143932      10.60229261       7.47204436       0.00002464      -0.00000244       0.00002289
H        7.49486533      11.16511817       0.12176997       0.00002361       0.00002333       0.00000764
H        7.49779975       2.53525336       2.61106888       0.00000010       0.00002121      -0.00000066
H        2.32890366       9.12016311       9.27333157      -0.00000535      -0.00000229       0.00001199
H        7.49572935       8.67721894       8.75195253      -0.00001581      -0.00002514       0.00000983
H        3.24492653       3.77251668       1.85185147       0.00001129       0.00000086      -0.00001047
H        3.24267147      10.40466733       1.36053617      -0.00001399       0.00001059       0.00000553
H        3.24287563       9.91454074       7.99273985      -0.00000016       0.00000017      -0.00000204
H        8.90150230       9.29707349       9.59562587       0.00000169      -0.00000305       0.00000632
H        2.52339591       6.07322418       1.25686718       0.00000368       0.00000197      -0.00000048
H        2.52210646       9.80988325       3.66160231       0.00000146      -0.00000003      -0.00000548
H        2.52130488      12.21522983       7.39774862       0.00000614      -0.00000070      -0.00000057
H        3.24485295       3.95579242       7.81054470       0.00000042      -0.00000188       0.00000829
H        8.70776577      10.13437867       3.83636477      -0.00001813      -0.00001172      -0.00002041
H        1.11586020      10.65321384       4.28084592      -0.00000636       0.00000168      -0.00000075
H        7.49705596       4.71622841       6.57170997      -0.00000351       0.00000604      -0.00000330
H        2.33018079       5.23592605       7.01623411      -0.00000345       0.00000733      -0.00000160
C        8.06195603      10.61870270       1.98646965      -0.00002223      -0.00004990       0.00001867
C        1.68254354      11.20002210       2.41613754       0.00001212      -0.00001516       0.00001871
C        1.68266105      10.96975596       8.78843276       0.00001075      -0.00001574      -0.00000149
C        1.68473750       4.75117395       8.86614319       0.00001575      -0.00000517       0.00000025
N        2.46058647       3.77871404       2.50918632      -0.00001351       0.00001268       0.00000484
N        2.45812785      11.06175955       1.36688050       0.00000081      -0.00000276      -0.00000152
N        2.45856047       9.92074019       8.65010540      -0.00000414       0.00000280      -0.00000192
N        8.18043445       9.42597472       8.88639794       0.00001423       0.00001850      -0.00000683
N        1.80241304       5.94385090       1.96609606      -0.00000645       0.00000164       0.00001068
N        1.80085913      10.51886364       3.53234105       0.00000439      -0.00000135       0.00000448
N        8.18198022       4.85104549       7.32019905      -0.00001415      -0.00002490      -0.00000033
N        2.46032104       4.61289828       7.81688758      -0.00000117      -0.00000520      -0.00000340
Pb       5.09735852       1.18876354      11.83287694       0.00001765      -0.00000238      -0.00000235
Pb      24.23495801       1.28994341      11.91963103      -0.00000378      -0.00000305       0.00000087
Pb       5.09518104       7.63762007       5.38289862       0.00000023      -0.00000680       0.00000209
Pb       5.09730048       1.34619223       5.53344981       0.00000481      -0.00000943       0.00000313
I        8.27819882       1.49938830      11.66669491       0.00000253      -0.00000206       0.00000525
I        1.89492614      13.56361907      11.77673705       0.00000661       0.00001138       0.00000041
I        1.89894566       1.59798542       5.31859238       0.00000191      -0.00000305      -0.00000218
I        8.27829726       1.18112242       5.84304303       0.00000186       0.00000325       0.00000140
I        5.33476813      10.64349091      11.11605324      -0.00000372      -0.00000010       0.00000440
I        4.80336958       4.06119698      25.00780049      -0.00000454       0.00000456       0.00000198
I        5.33678976       4.50151449       4.97512909       0.00000124       0.00000688      -0.00000022
I        4.80107840      10.81702945       5.96688222      -0.00000285      -0.00000239       0.00001168
I        5.33370921      13.52881095       2.08827914       0.00000290       0.00000479      -0.00001113
I       23.94207732       0.85479348       2.44876026       0.00000100       0.00000379       0.00001129
I       24.47533414       1.84779232       8.76429207       0.00000056      -0.00000017      -0.00000669
I        4.80407787       1.93064320       8.71284405      -0.00000456       0.00000922       0.00000880
H        0.87420492       4.76692708       3.38046303       0.00000748       0.00000919      -0.00000341
H        0.87180934      11.93272155       2.35547337      -0.00000373       0.00000648      -0.00000943
H        0.87220461      10.90895513       9.52142851       0.00000854       0.00000107      -0.00000967
H        0.87401537       5.48388695       8.80547664       0.00000252      -0.00000808      -0.00000455
H        2.33090652       2.97813454       3.13240497       0.00000105      -0.00000351       0.00000422
H        2.32797741      11.68478866       0.56623015       0.00000680       0.00000433      -0.00001252
H        8.70998112       3.68544824      10.28628302       0.00000068      -0.00000387       0.00000761
H        1.11804190       4.20437592      10.73085071      -0.00001110      -0.00000644       0.00000279
H        8.90055745      12.00940086       0.74098639      -0.00001765      -0.00000652      -0.00002966
H        8.90354716       3.15512839       3.45476713       0.00001208      -0.00000203       0.00000852
H        9.62377874       4.96620207       9.49196175       0.00000019      -0.00000370       0.00000545
H        2.52427573       3.36102248      10.11161209       0.00000075       0.00000204      -0.00000882
H        9.62157973      11.41510304       3.04202135       0.00001351       0.00001697       0.00000491
H        9.62355968       5.45631338       2.85977707       0.00000257       0.00000076       0.00000059
H        8.90273989       5.56051786       7.19092081       0.00000561       0.00000979       0.00000557
H        9.62148273      11.59828191       9.00068035       0.00002216       0.00000813       0.00001606
H        1.11720734       6.69215140       2.10052916      -0.00000748       0.00000345       0.00000470
H        8.70904591       6.25007208       1.57918711      -0.00000961      -0.00000709       0.00000899
H        1.11514622      12.83416144       8.24145444      -0.00001205       0.00000210       0.00000345
H        8.70692816      12.39206374       7.72013338       0.00001853       0.00000545       0.00000518
C        1.68468927       4.82773370       2.64749823       0.00000685      -0.00001441       0.00000067
C        8.06405513       4.40004377       2.06409370      -0.00001911      -0.00001413       0.00000198
C        8.06416659       4.16979077       8.43639752      -0.00001213      -0.00000515      -0.00000356
C        8.06196244      10.54202232       8.20501169      -0.00001720       0.00001277      -0.00002437
N        8.17978788      11.29993690       0.87026140      -0.00000633      -0.00000334      -0.00000785
N        8.18250188       3.28401310       2.74551350      -0.00001171       0.00001204      -0.00002188
N        8.83968751       4.30857008       9.48563244       0.00000313       0.00001448      -0.00000563
N        1.80303993       4.07001371       9.98234731       0.00000559      -0.00000487       0.00000565
N        8.83747497      10.75748790       3.03570518       0.00002288       0.00000389       0.00002707
N        8.83924535       5.44958345       2.20241571       0.00002904       0.00000463       0.00001968
N        1.80035194      12.08586346       8.10700888      -0.00000894       0.00000678       0.00001794
N        8.83715232      11.59156225       8.34333905      -0.00003377      -0.00001043      -0.00002318
Pb      24.23283963       7.58138189      11.76907656      -0.00001003      -0.00000968       0.00000454
Pb       5.09524598       7.48816554      11.67436846       0.00000755       0.00000308      -0.00000561
Pb      24.23490215       1.43941383       5.62817380      -0.00000307      -0.00000655      -0.00000328
Pb      24.23277811       7.73881201       5.46964713       0.00001419      -0.00000678      -0.00001001
I        1.89688765       7.73999035      11.45949953       0.00000067      -0.00000222      -0.00000502
I        8.27623701       7.32307262      11.98396869       0.00000186       0.00001093      -0.00000248
I        8.27601206       7.94824617       5.21669930       0.00000933       0.00000688       0.00000404
I        1.89698618       7.42169477       5.63580609      -0.00001014      -0.00000162      -0.00000026
I       24.47445013       4.42621059      12.32739287       0.00000386       0.00000258      -0.00000043
I       23.93886043      10.39423867      23.61744893      -0.00000109      -0.00000835       0.00000340
I       24.47228713      10.87508096       5.87740493      -0.00000472       0.00000059      -0.00000229
I       23.94081371       4.55921610       4.88564264       0.00000428       0.00000042       0.00000415
I       11.71472497       8.29237560       2.31428323       0.00000214      -0.00000817       0.00000496
I        4.80188750       8.37951934       2.26286920      -0.00000094      -0.00000055      -0.00000123
I        5.33590976       7.07992861       8.53824810       0.00000416       0.00000178      -0.00000573
I       23.93999985       6.99671652       8.58968087       0.00000129       0.00000363      -0.00000175
H        7.25181795       9.57852474      14.63790931      -0.00003620      -0.00002891       0.00000056
H        7.25365958       4.15344822      13.92203701       0.00000860      -0.00000110       0.00000480
H        7.25397634       3.12966278      21.08800858       0.00001694       0.00001498      -0.00000531
H        7.25159999      10.29538800      20.06295968       0.00001128      -0.00000465       0.00001503
H        7.49504952      10.85827006      12.71259350      -0.00001447       0.00000779      -0.00002046
H        7.49790072       2.22837078      15.20194888       0.00000638      -0.00000512       0.00001079
H        2.32902400       8.81319551      21.86420804       0.00000053      -0.00000198      -0.00000163
H        7.49585218       8.37033435      21.34291052       0.00001765       0.00000771       0.00000816
H        3.24508016       3.46570496      14.44271239       0.00000438       0.00000517      -0.00000556
H        3.24285687      10.09776293      13.95151224      -0.00000581       0.00000874       0.00000562
H        3.24301055       9.60762066      20.58365472       0.00000686      -0.00000311      -0.00001024
H        8.90160968       8.99020193      22.18660230       0.00000850      -0.00000675       0.00001351
H        2.52343681       5.76639175      13.84776037       0.00000058       0.00000405      -0.00000360
H        2.52221359       9.50293225      16.25254161      -0.00000199      -0.00000087       0.00000336
H        2.52139555      11.90830909      19.98869311      -0.00001591      -0.00000077       0.00001842
H        3.24501272       3.64890583      20.40147078      -0.00000547      -0.00001434       0.00000703
H        8.70783456       9.82729918      16.42716001      -0.00000381       0.00001922      -0.00001023
H        1.11593717      10.34624109      16.87174773      -0.00000098      -0.00000191       0.00001224
H        7.49720803       4.40929787      19.16261391      -0.00000603       0.00000298      -0.00000435
H        2.33028385       4.92900467      19.60717273      -0.00000183       0.00000981       0.00000493
C        8.06208137      10.31174540      14.57727546       0.00007243       0.00002027       0.00005924
C        1.68268540      10.89308664      15.00707037      -0.00000899      -0.00000184       0.00000948
C        1.68274455      10.66277784      21.37932394       0.00001018       0.00000531      -0.00000238
C        1.68484286       4.44418369      21.45706638      -0.00000952      -0.00001316       0.00002713
N        2.46076750       3.47187554      15.10008174      -0.00000519      -0.00001934       0.00001491
N        2.45831185      10.75485382      13.95784114       0.00001228      -0.00002539       0.00000895
N        2.45867662       9.61378641      21.24099822      -0.00002048       0.00000227       0.00001614
N        8.18055792       9.11909103      21.47735591      -0.00003244      -0.00001755      -0.00003168
N        1.80248869       5.63698815      14.55701846       0.00002179      -0.00004260       0.00000664
N        1.80096337      10.21190638      16.12326507       0.00000931       0.00000894      -0.00002305
N        8.18212027       4.54409884      19.91111674      -0.00000758      -0.00001001       0.00000812
N        2.46044663       4.30597022      20.40781758       0.00001045       0.00000635      -0.00001898
Pb       5.09746587       0.88179824      24.42378962      -0.00000021      -0.00000614      -0.00000431
Pb      24.23507227       0.98298442      24.51050548      -0.00000019       0.00000464       0.00001046
Pb       5.09528931       7.33069683      17.97381295       0.00000337       0.00000310      -0.00000075
Pb       5.09740568       1.03926412      18.12434512       0.00001358      -0.00000441       0.00000597
I        8.27829547       1.19244649      24.25762012       0.00000019      -0.00000321       0.00000127
I        1.89501404      13.25673322      24.36760644       0.00000539      -0.00000642       0.00000216
I        1.89905474       1.29109424      17.90943620       0.00000474      -0.00000761       0.00000037
I        8.27840394       0.87420816      18.43394113       0.00000235      -0.00000115      -0.00000390
I        5.33483568      10.33653955      23.70697199      -0.00000119      -0.00000260       0.00000670
I        4.80328070       4.36815803      12.41687991      -0.00000973       0.00000020      -0.00000003
I        5.33692537       4.19459097      17.56606510       0.00000122      -0.00000759       0.00000102
I        4.80119682      10.51009552      18.55779852       0.00000515       0.00000178       0.00000290
I        5.33388928      13.22189956      14.67915553       0.00000576       0.00000348       0.00000583
I       23.94217185       0.54781330      15.03965641       0.00000337      -0.00001115       0.00000148
I       24.47544453       1.54084212      21.35516418      -0.00000222      -0.00000231       0.00000526
I        4.80420048       1.62370095      21.30374961      -0.00000483       0.00000652       0.00000930
H        0.87438521       4.46002883      15.97142290      -0.00000510      -0.00000313      -0.00000684
H        0.87194529      11.62577850      14.94638874       0.00000672       0.00000175      -0.00000452
H        0.87226877      10.60194103      22.11229548       0.00000536      -0.00000171      -0.00000059
H        0.87408430       5.17685689      21.39640596       0.00000264      -0.00000251      -0.00000758
H        2.33112982       2.67128540      15.72329596       0.00000092       0.00000612      -0.00000245
H        2.32818073      11.37788923      13.15719238      -0.00000803       0.00001243      -0.00001073
H        8.70999808       3.37854871      22.87723935       0.00000598      -0.00000801       0.00001069
H        1.11815850       3.89732182      23.32175881       0.00000081       0.00000648      -0.00000853
H        8.90075246      11.70248196      13.33187970      -0.00000400      -0.00000811      -0.00000295
H        8.90366878       2.84820402      16.04564531       0.00000160       0.00000456      -0.00000810
H        9.62386255       4.65924922      22.08291367       0.00000407       0.00000202       0.00000326
H        2.52443940       3.05404837      22.70250894       0.00000313      -0.00001352       0.00000956
H        9.62170830      11.10804028      15.63290833      -0.00003850      -0.00001765      -0.00000446
H        9.62370434       5.14939981      15.45069633       0.00000205      -0.00001208       0.00001605
H        8.90291971       5.25353221      19.78184425      -0.00000278       0.00001297      -0.00000247
H        9.62162248      11.29138720      21.59162216      -0.00000167      -0.00000769       0.00000897
H        1.11725610       6.38526038      14.69147308      -0.00000440       0.00000909       0.00000847
H        8.70917487       5.94319620      14.17014341      -0.00000182       0.00000478      -0.00001315
H        1.11519920      12.52718355      20.83237823      -0.00002052       0.00002031      -0.00000592
H        8.70709850      12.08515310      20.31104621      -0.00000682       0.00002450      -0.00001690
C        1.68483670       4.52086486      15.23842499      -0.00000937       0.00003917      -0.00001020
C        8.06417233       4.09316555      14.65501362      -0.00000259      -0.00001925       0.00000532
C        8.06424207       3.86288063      21.02733000      -0.00001390      -0.00001595      -0.00001242
C        8.06210647      10.23512586      20.79594523      -0.00000129       0.00002589      -0.00000945
N        8.17995687      10.99303569      13.46110657      -0.00000000       0.00000106      -0.00000998
N        8.18261769       2.97711582      15.33640187      -0.00001119       0.00000989      -0.00001371
N        8.83974166       4.00165347      22.07658211       0.00000043       0.00000319       0.00000142
N        1.80316698       3.76300419      22.57325663      -0.00000251       0.00002345      -0.00002296
N        8.83758249      10.45044987      15.62653664       0.00001409       0.00001805      -0.00001045
N        8.83937716       5.14269279      14.79335043       0.00000404       0.00002164      -0.00001182
N        1.80042401      11.77890417      20.69792846       0.00003430      -0.00001625      -0.00001100
N        8.83729941      11.28466401      20.93427162       0.00000003      -0.00002316      -0.00000046
Pb      24.23295591       7.27442997      24.35997043       0.00000377      -0.00000180       0.00000069
Pb       5.09535246       7.18120732      24.26527861      -0.00000382       0.00000625       0.00000002
Pb      24.23500950       1.13245711      18.21904917      -0.00000638       0.00000129       0.00000036
Pb      24.23288562       7.43186249      18.06053634       0.00000385       0.00000083       0.00001075
I        1.89699941       7.43300346      24.05036021      -0.00000889       0.00000388      -0.00000211
I        8.27634042       7.01619021      24.57489119       0.00001295      -0.00000012      -0.00000437
I        8.27612345       7.64132688      17.80766749       0.00000789      -0.00000148      -0.00000781
I        1.89709308       7.11474666      18.22671794      -0.00000422       0.00000558      -0.00000146
I       24.47455337       4.11925742      24.91826691       0.00000813      -0.00000325      -0.00000003
I       23.93873877      10.70117200      11.02650783       0.00000490      -0.00000049       0.00000066
I       24.47237037      10.56813117      18.46830719      -0.00000054       0.00000556      -0.00000036
I       23.94093817       4.25226894      17.47651855      -0.00000130      -0.00000348       0.00000485
I       11.71484374       7.98540917      14.90519875      -0.00000810       0.00000150      -0.00000496
I        4.80203517       8.07257847      14.85377388      -0.00000418       0.00000213       0.00000172
I        5.33604532       6.77301963      21.12915707       0.00000484      -0.00000993      -0.00000308
I       23.94011426       6.68977263      21.18057167       0.00000122      -0.00000638       0.00000195
H        7.24753121      22.47618025       1.73800185      -0.00002047       0.00001327       0.00000079
H        7.24934970      17.05122059       1.02204552      -0.00000248      -0.00000260       0.00000517
H        7.24971926      16.02735854       8.18806807      -0.00000056       0.00001675      -0.00001640
H        7.24726823      23.19322801       7.16297259      -0.00000763      -0.00000242      -0.00000017
H        7.49062777      23.75591724      -0.18734353       0.00000824       0.00000285       0.00001585
H        7.49350678      15.12615486       2.30199987       0.00000251       0.00000597      -0.00000355
H        2.32467990      21.71094333       8.96422964       0.00000469       0.00000298       0.00001092
H        7.49142927      21.26817300       8.44293924       0.00001070      -0.00000139      -0.00000068
H        3.24067613      16.36335825       1.54271172      -0.00000533       0.00000698       0.00000578
H        3.23841624      22.99543673       1.05149769      -0.00001514       0.00001898       0.00000323
H        3.23857813      22.50534603       7.68359770       0.00000198      -0.00000209       0.00001076
H        8.89719787      21.88799076       9.28664575      -0.00000203       0.00000089      -0.00000638
H        2.51911972      18.66407955       0.94781638       0.00000525       0.00000693      -0.00000615
H        2.51784281      22.40077831       3.35258824       0.00004991      -0.00003927      -0.00000331
H        2.51696871      24.80605212       7.08869852       0.00001351       0.00000530      -0.00000289
H        3.24064569      16.54673945       7.50150480      -0.00000169      -0.00000272      -0.00000137
H        8.70351296      22.72515331       3.52724856       0.00001421       0.00000384      -0.00000509
H        1.11157445      23.24410849       3.97176968      -0.00000477       0.00001819       0.00000154
H        7.49276754      17.30706721       6.26269489      -0.00000249      -0.00001104       0.00000366
H        2.32590095      17.82683998       6.70722790      -0.00000390       0.00001077       0.00000407
C        8.05772410      23.20947871       1.67734943       0.00001948      -0.00000560      -0.00002521
C        1.67826996      23.79083473       2.10703935       0.00004101       0.00000601      -0.00005649
C        1.67842164      23.56055023       8.47941842      -0.00001687       0.00004194      -0.00001122
C        1.68047218      17.34198294       8.55711876       0.00000575      -0.00000066      -0.00000533
N        2.45637630      16.36954790       2.20009633       0.00000396       0.00000175      -0.00000521
N        2.45386805      23.65252525       1.05779859       0.00000462      -0.00001232      -0.00000645
N        2.45430593      22.51153491       8.34101571       0.00001681      -0.00002771      -0.00001016
N        8.17616216      22.01690475       8.57738677       0.00000296      -0.00001911      -0.00000428
N        1.79818140      18.53469791       1.65708867      -0.00001901       0.00000559       0.00001649
N        1.79658945      23.10974185       3.22328200      -0.00005274       0.00000713       0.00003114
N        8.17770553      17.44189316       7.01117041      -0.00001547      -0.00001814       0.00000329
N        2.45607281      17.20379551       7.50786364       0.00000720      -0.00001721       0.00000523
Pb       5.09312605      13.77959839      11.52381545      -0.00000147      -0.00000656      -0.00000386
Pb      24.23072194      13.88075374      11.61055976      -0.00000439      -0.00000130       0.00000333
Pb       5.09095464      20.22847556       5.07383834      -0.00000244       0.00000157       0.00000012
Pb       5.09303266      13.93704441       5.22439633       0.00001249       0.00000583      -0.00000295
I        8.27395830      14.09023339      11.35761041       0.00000695      -0.00000046       0.00000734
I        1.89916501       0.97283308      12.08582307       0.00000104       0.00000837      -0.00000649
I        1.89468363      14.18886144       5.00951537       0.00000849      -0.00000589      -0.00000403
I        8.27403152      13.77198590       5.53399018       0.00000567       0.00000530       0.00000540
I        5.33045418      23.23433190      10.80702588       0.00000078       0.00000150      -0.00000055
I        4.79913668      16.65204442      24.69871585      -0.00000826      -0.00000358       0.00000049
I        5.33253345      17.09237219       4.66609254      -0.00000211      -0.00001669      -0.00000131
I        4.79684529      23.40786482       5.65784345      -0.00001123       0.00001207      -0.00000527
I        5.33797526       0.93794688       2.39733322      -0.00000153      -0.00000381       0.00000066
I       23.93782876      13.44562755       2.13969377      -0.00000020      -0.00000607       0.00000358
I       24.47108278      14.43861462       8.45522150       0.00000303      -0.00000134      -0.00001657
I        4.79983723      14.52152320       8.40379038      -0.00000458      -0.00000519      -0.00000111
H        0.87005718      17.35775508       3.07149414      -0.00000113      -0.00000018      -0.00000643
H        0.86752545      24.52351905       2.04632276      -0.00000534      -0.00000623       0.00002164
H        0.86801564      23.49973942       9.21246888       0.00000084      -0.00000672      -0.00001372
H        0.86970253      18.07464496       8.49647175       0.00000148       0.00000041      -0.00000490
H        2.32672434      15.56895531       2.82330310      -0.00000028      -0.00000497       0.00001236
H        2.32371456      24.27550140       0.25710812       0.00000984       0.00002144       0.00001635
H        8.70578719      16.27631098       9.97724438      -0.00000545      -0.00000396       0.00001146
H        1.11380411      16.79509078      10.42180591       0.00000586       0.00000663      -0.00001504
H        8.89625400      24.60026800       0.43191495       0.00001672       0.00000885      -0.00000439
H        8.89924443      15.74598285       3.14574551       0.00000685      -0.00000271       0.00000445
H        9.61954087      17.55708741       9.18290736      -0.00001022      -0.00000958      -0.00000359
H        2.52009570      15.95184485       9.80254133       0.00000966      -0.00001258      -0.00000126
H        9.61727543      24.00595106       2.73295697       0.00000947       0.00000007       0.00000313
H        9.61933666      18.04715697       2.55080405       0.00000911      -0.00000269       0.00000619
H        8.89844021      18.15138852       6.88188041       0.00001470       0.00001026       0.00001143
H        9.61731106      24.18914532       8.69165635      -0.00000667      -0.00000078       0.00000101
H        1.11298467      19.28299793       1.79157066       0.00000049      -0.00000533      -0.00000900
H        8.70487327      18.84095680       1.27020381      -0.00000890      -0.00000162      -0.00001404
H        1.11086514      25.42496434       7.93250617       0.00000866      -0.00000448      -0.00000936
H        8.70282287      24.98294617       7.41107402      -0.00000237      -0.00001732       0.00000024
C        1.68049484      17.41856911       2.33847900       0.00000165       0.00000212      -0.00001692
C        8.05982772      16.99093661       1.75505984      -0.00000550      -0.00000000      -0.00000175
C        8.05992884      16.76063597       8.12737156      -0.00000674       0.00000622      -0.00002517
C        8.05776436      23.13293981       7.89596633      -0.00000409       0.00000703       0.00000654
N        8.17553239      23.89075116       0.56116136      -0.00002142      -0.00001631      -0.00000437
N        8.17822614      15.87489442       2.43646921      -0.00000238       0.00001219      -0.00001543
N        8.83546406      16.89943719       9.17659276       0.00002086       0.00001838       0.00000546
N        1.79881231      16.66079155       9.67329961      -0.00001654       0.00001395       0.00000646
N        8.83321236      23.34828620       2.72660489      -0.00001074      -0.00000261       0.00001600
N        8.83504081      18.04045493       1.89341986      -0.00000199      -0.00001316       0.00000322
N        1.79606795      24.67667224       7.79800907      -0.00002288       0.00000185       0.00001993
N        8.83299805      24.18244685       8.03429280       0.00000450       0.00001375      -0.00000054
Pb      24.22859077      20.17220992      11.46001682       0.00000325       0.00000322      -0.00000570
Pb       5.09099364      20.07900292      11.36531876      -0.00000714      -0.00000049      -0.00000131
Pb      24.23064277      14.03024949       5.31910135      -0.00000507       0.00000552       0.00000114
Pb      24.22854444      20.32965222       5.16058110      -0.00000098       0.00000415      -0.00000727
I        1.89263688      20.33080426      11.15041599       0.00000538      -0.00000409       0.00000363
I        8.27198427      19.91395709      11.67492061       0.00000499       0.00000138      -0.00000437
I        8.27178834      20.53910339       4.90767897      -0.00000301       0.00000004       0.00000516
I        1.89275322      20.01257308       5.32674253      -0.00000724      -0.00000832       0.00000199