768
Lattice="25.62772557592309 -0.0028270208384106343 0.05710735460182048 0.10482260132218972 25.723409477736357 0.047260622994914694 -0.09656011532637802 -0.043133790745477865 25.624327926327204" Properties=species:S:1:pos:R:3:forces:R:3 energy=-3656.7441323950834 stress="0.003720636982644252 -0.0008205677303589672 -3.72362653269745e-05 -0.0008205677303589672 0.004160542232046124 4.496567814837971e-06 -3.72362653269745e-05 4.496567814837971e-06 0.0025091207864756564" free_energy=-3656.7441323950834 pbc="T T T"
H        4.62518750      13.93045523       1.77783270      -0.00002758       0.00000733       0.00003162
H        5.60744137       8.51851663       1.77511313       0.00001390      -0.00000842       0.00001299
H        5.70847917       6.35370798       8.17815744       0.00002559       0.00003137      -0.00001095
H        6.74120609      13.79932906       8.19002348       0.00001851       0.00001042       0.00000726
H        5.90093059      15.87208403       1.70777650      -0.00000440      -0.00001105       0.00000189
H        3.67030781       7.23704794       1.69771588      -0.00002560       0.00002647       0.00001996
H       23.23052999      13.14208713       6.72385614       0.00002244       0.00000593       0.00001319
H        5.45944131      11.86177090       8.11084089      -0.00000024       0.00000556      -0.00001503
H       25.50892069       6.61397847      -0.50101017      -0.00000467      -0.00000325       0.00001342
H       25.74878623      13.26767195      -0.48312801       0.00002922       0.00005227       0.00006483
H       24.07158498      14.46424961       5.91767708       0.00002228      -0.00001679       0.00004305
H        4.52173886      12.41542480       6.74163053       0.00002192      -0.00002477       0.00001527
H       26.04351284       8.88969170       0.37478659       0.00003451       0.00001109      -0.00005597
H       23.47187035      12.72378238       0.38655401      -0.00002165      -0.00003145      -0.00004347
H       26.34368526      15.00800591       6.79844722      -0.00000501      -0.00000846      -0.00001912
H       23.71651860       5.98231956       6.77254817      -0.00001653      -0.00000708      -0.00002544
H        4.99384722      12.20300759       0.27386493      -0.00001956      -0.00001706      -0.00000237
H       22.91735785      13.66603478       1.75252685      -0.00002464       0.00003588       0.00004287
H        7.64551949       7.63591395       8.11112310      -0.00002412      -0.00002461       0.00000309
H       24.65416084       5.42878187       8.14183910       0.00000691       0.00000552       0.00000426
C        5.40979416      14.02971188       1.02110998       0.00004609       0.00003861       0.00000410
C       24.75939370      14.16452760       1.07063584       0.00008416       0.00001878      -0.00003935
C       25.05388253      13.56588379       7.47492744       0.00000091       0.00004738      -0.00003440
C       25.15570598       7.27007021       7.45928122       0.00003183       0.00000263       0.00002651
N       24.80211206       6.58479019       0.24008596      -0.00000050      -0.00001433       0.00001040
N       25.77396583      13.97213045       0.26023809      -0.00004835      -0.00004244      -0.00002404
N       24.04313728      13.75880232       6.65989756      -0.00002818       0.00000801      -0.00003483
N        5.27921407      12.58103380       7.40361794       0.00000972       0.00004029      -0.00004172
N       25.28254125       8.72120991       1.03202659      -0.00004902      -0.00002152       0.00004811
N       23.63719448      13.48313750       1.04647796       0.00001011      -0.00001668      -0.00002526
N        6.92893663       7.81924381       7.40185877       0.00001273      -0.00001527       0.00001697
N       24.47392049       6.14801997       7.43459413      -0.00000112       0.00002377       0.00001498
Pb       2.45827957       4.17650722      10.40504044      -0.00000879      -0.00001207      -0.00000365
Pb      21.66812322       4.16697924      10.44802045      -0.00000527       0.00000726       0.00000747
Pb       2.44014441      10.69296357       4.01041604      -0.00000913       0.00001774      -0.00001682
Pb       2.40301888       4.25520281       3.99889170       0.00000432      -0.00000851       0.00000139
I        5.63438452       4.74919902      10.70911226      -0.00000001      -0.00000478      -0.00000594
I       24.90608402      16.65966743      10.26533919      -0.00000831      -0.00000726      -0.00000783
I       24.85321494       3.67917474       4.34368997       0.00000671       0.00000196      -0.00001189
I        5.63650708       4.62955598       3.79309645       0.00000798      -0.00000280       0.00000515
I        2.86805525      13.84722296      10.22495690       0.00000482      -0.00001081      -0.00000550
I        1.85497026       7.39514405      23.50366432      -0.00000242      -0.00000167      -0.00001320
I        2.04836620       7.44650935       3.80224889       0.00000578      -0.00000011       0.00000314
I        3.00685311      13.87519111       4.29598030      -0.00001366       0.00000792      -0.00001636
I        2.33564262      16.81391129       0.81678741      -0.00000988       0.00001347       0.00000249
I       21.96652669       4.38313424       0.83852646       0.00000225      -0.00001238       0.00000508
I       21.36249023       4.05487991       7.24197252      -0.00000142       0.00000088       0.00002200
I        2.60391973       4.49004024       7.20145971      -0.00001005      -0.00000913       0.00001641
H       23.81972220       7.49778490       1.80889909      -0.00001881      -0.00001735       0.00001156
H       24.85470214      14.94723076       1.82973282      -0.00002277      -0.00001270       0.00002097
H       24.95514248      12.78225683       8.23263142       0.00001911      -0.00002272       0.00004391
H       25.93571053       7.36647945       8.22112299      -0.00003884       0.00001053      -0.00004264
H       24.18816350       5.77020282       0.30501694       0.00003114       0.00004284      -0.00000188
H       26.58633979      14.58865290       0.32872216       0.00001417       0.00001242      -0.00000705
H        3.98360414       6.71307816       6.66954784      -0.00005731      -0.00002741      -0.00000168
H       25.58198663       9.09600501       6.71569905       0.00002140       0.00002545      -0.00001045
H        6.84872281      15.32276380       0.34370983      -0.00003908       0.00001121       0.00005963
H        4.22507735       6.29488791       0.33176554       0.00000280       0.00004902       0.00003023
H        4.82439131       8.03521539       5.86306043       0.00000687       0.00002800      -0.00000885
H       24.26425633       8.25611458       5.90057541      -0.00004054       0.00000607      -0.00003298
H        6.31447325      13.04699771      -0.53214732       0.00001092       0.00000465       0.00001060
H        6.50200010       6.83911969      -0.53767660      -0.00000841       0.00001867       0.00002418
H        7.09652500       8.57935522       6.74333684       0.00000841      -0.00001189       0.00002068
H        5.06967750      14.68913639       5.86960211      -0.00000023       0.00000335      -0.00000683
H       25.09574472       9.43921332       1.73878901      -0.00001500      -0.00002009       0.00000283
H        7.33928492       8.16021055       0.27426117       0.00002370       0.00002740       0.00000577
H       26.89233610      14.06425853       8.16613451      -0.00001163      -0.00000326      -0.00000664
H        6.38754127      15.52890506       6.68463756       0.00001938       0.00000321       0.00000986
C       24.60435964       7.59688977       1.05218735       0.00003616       0.00001054      -0.00004635
C        5.51232308       7.73581057       1.01599533       0.00002838      -0.00002142      -0.00000194
C        5.80701576       7.13721980       7.42030441      -0.00003489       0.00001926      -0.00001993
C        5.96113399      13.70300453       7.42824367      -0.00001346      -0.00003655       0.00006542
N        6.08780804      15.15413379       1.00098183       0.00003674      -0.00000679      -0.00006692
N        4.39022770       7.05425177       0.99172734       0.00003995      -0.00004213      -0.00007022
N        4.79612364       7.32988905       6.60539434       0.00005105      -0.00002931       0.00002331
N       24.96650319       8.28291931       6.64609533       0.00003115      -0.00005093       0.00004623
N        5.60768085      13.01767878       0.20896059      -0.00000450      -0.00001471       0.00000776
N        6.52700316       7.54357272       0.20569421      -0.00005276      -0.00005140      -0.00002167
N       26.17588957      14.24777631       7.45677860       0.00000579      -0.00000146       0.00000704
N        5.77198033      14.71587246       6.61507265      -0.00005045       0.00001273      -0.00006239
Pb      21.70528670      10.60522964      10.45962416       0.00000598      -0.00000283      -0.00001264
Pb       2.47356131      10.59994031      10.41707850      -0.00001507      -0.00000781       0.00000349
Pb      21.63465949       4.26003212       4.04134906       0.00000442      -0.00000020       0.00000087
Pb      21.65006897      10.68396418       4.05352853       0.00000104       0.00000298       0.00001336
I       24.88141150      11.17786786      10.76363547       0.00000617      -0.00000939       0.00001703
I        5.65911053      10.23089562      10.21065861      -0.00000814      -0.00000132      -0.00000945
I        5.65870569      10.11203969       4.31274415       0.00000611      -0.00000229       0.00000598
I       24.88358625      11.05831093       3.84776963      -0.00000540      -0.00000405      -0.00000346
I       22.06259113       7.41427621      10.25581323       0.00000745       0.00001470      -0.00000416
I       21.10203300      13.82390810      23.55820642      -0.00000422      -0.00001586       0.00000400
I       21.29530162      13.87528975       3.85691271       0.00000414       0.00000322       0.00000546
I       22.20144411       7.44226608       4.32693404      -0.00001624       0.00000833      -0.00001005
I        8.71647697      10.38246505       0.81922381      -0.00000747       0.00001184      -0.00000908
I        2.77209479      10.81604293       0.80757739       0.00001000      -0.00000407       0.00001660
I        2.16793546      10.48774195       7.21102856      -0.00001152       0.00000528       0.00000065
I       21.85100248      10.91892850       7.25608010      -0.00000828      -0.00000162      -0.00000489
H        4.57690744      13.90888833      14.58999666      -0.00002758       0.00000733       0.00003162
H        5.55916131       8.49694973      14.58727709       0.00001391      -0.00000842       0.00001299
H        5.66019911       6.33214108      20.99032140       0.00002559       0.00003137      -0.00001095
H        6.69292603      13.77776216      21.00218744       0.00001852       0.00001042       0.00000726
H        5.85265053      15.85051713      14.51994046      -0.00000440      -0.00001105       0.00000189
H        3.62202775       7.21548104      14.50987984      -0.00002560       0.00002647       0.00001996
H       23.18224993      13.12052023      19.53602011       0.00002244       0.00000593       0.00001319
H        5.41116125      11.84020400      20.92300485      -0.00000024       0.00000556      -0.00001503
H       25.46064063       6.59241157      12.31115380      -0.00000483      -0.00000325       0.00001359
H       25.70050618      13.24610505      12.32903594       0.00002917       0.00005234       0.00006494
H       24.02330492      14.44268271      18.72984105       0.00002228      -0.00001680       0.00004305
H        4.47345880      12.39385790      19.55379449       0.00002192      -0.00002477       0.00001527
H       25.99523278       8.86812480      13.18695055       0.00003432       0.00001106      -0.00005578
H       23.42359029      12.70221548      13.19871798      -0.00002165      -0.00003145      -0.00004347
H       26.29540520      14.98643901      19.61061118      -0.00000503      -0.00000846      -0.00001913
H       23.66823854       5.96075266      19.58471214      -0.00001653      -0.00000708      -0.00002543
H        4.94556716      12.18144069      13.08602889      -0.00001955      -0.00001706      -0.00000237
H       22.86907779      13.64446788      14.56469082      -0.00002464       0.00003587       0.00004287
H        7.59723943       7.61434705      20.92328706      -0.00002412      -0.00002461       0.00000309
H       24.60588078       5.40721497      20.95400307       0.00000691       0.00000552       0.00000426
C        5.36151410      14.00814498      13.83327394       0.00004609       0.00003860       0.00000409
C       24.71111364      14.14296070      13.88279981       0.00008436       0.00001870      -0.00003962
C       25.00560247      13.54431689      20.28709141       0.00000091       0.00004742      -0.00003449
C       25.10742592       7.24850331      20.27144519       0.00003170       0.00000261       0.00002634
N       24.75383200       6.56322329      13.05224993      -0.00000034      -0.00001433       0.00001024
N       25.72568577      13.95056355      13.07240205      -0.00004854      -0.00004243      -0.00002389
N       23.99485722      13.73723542      19.47206153      -0.00002821       0.00000800      -0.00003482
N        5.23093401      12.55946690      20.21578190       0.00000972       0.00004029      -0.00004172
N       25.23426119       8.69964301      13.84419056      -0.00004884      -0.00002149       0.00004792
N       23.58891442      13.46157060      13.85864193       0.00001013      -0.00001668      -0.00002525
N        6.88065657       7.79767691      20.21402273       0.00001273      -0.00001527       0.00001697
N       24.42564043       6.12645307      20.24675810      -0.00000112       0.00002377       0.00001499
Pb       2.40999951       4.15494032      23.21720440      -0.00000879      -0.00001207      -0.00000364
Pb      21.61984316       4.14541234      23.26018442      -0.00000527       0.00000727       0.00000746
Pb       2.39186435      10.67139667      16.82258000      -0.00000913       0.00001774      -0.00001682
Pb       2.35473882       4.23363591      16.81105566       0.00000432      -0.00000851       0.00000139
I        5.58610446       4.72763212      23.52127622      -0.00000001      -0.00000477      -0.00000593
I       24.85780396      16.63810053      23.07750316      -0.00000831      -0.00000725      -0.00000784
I       24.80493488       3.65760784      17.15585394       0.00000671       0.00000196      -0.00001189
I        5.58822702       4.60798908      16.60526041       0.00000798      -0.00000280       0.00000515
I        2.81977519      13.82565606      23.03712086       0.00000482      -0.00001079      -0.00000550
I        1.90325032       7.41671094      10.69150035      -0.00000243      -0.00000165      -0.00001319
I        2.00008614       7.42494245      16.61441285       0.00000578      -0.00000010       0.00000314
I        2.95857305      13.85362421      17.10814426      -0.00001366       0.00000792      -0.00001636
I        2.28736256      16.79234439      13.62895137      -0.00000988       0.00001347       0.00000250
I       21.91824663       4.36156734      13.65069043       0.00000225      -0.00001238       0.00000505
I       21.31421017       4.03331301      20.05413649      -0.00000142       0.00000088       0.00002198
I        2.55563967       4.46847334      20.01362367      -0.00001004      -0.00000913       0.00001642
H       23.77144214       7.47621800      14.62106306      -0.00001881      -0.00001735       0.00001156
H       24.80642208      14.92566386      14.64189679      -0.00002274      -0.00001270       0.00002096
H       24.90686242      12.76068993      21.04479539       0.00001913      -0.00002271       0.00004392
H       25.88743047       7.34491255      21.03328695      -0.00003869       0.00001054      -0.00004247
H       24.13988344       5.74863592      13.11718091       0.00003114       0.00004284      -0.00000188
H       26.53805973      14.56708600      13.14088612       0.00001416       0.00001242      -0.00000704
H        3.93532408       6.69151126      19.48171180      -0.00005731      -0.00002741      -0.00000168
H       25.53370657       9.07443811      19.52786302       0.00002141       0.00002545      -0.00001045
H        6.80044275      15.30119690      13.15587379      -0.00003909       0.00001121       0.00005963
H        4.17679729       6.27332101      13.14392950       0.00000281       0.00004902       0.00003023
H        4.77611125       8.01364849      18.67522439       0.00000687       0.00002800      -0.00000885
H       24.21597627       8.23454768      18.71273938      -0.00004054       0.00000608      -0.00003297
H        6.26619319      13.02543081      12.28001664       0.00001077       0.00000465       0.00001077
H        6.45372004       6.81755279      12.27448736      -0.00000844       0.00001874       0.00002428
H        7.04824494       8.55778832      19.55550080       0.00000841      -0.00001189       0.00002068
H        5.02139744      14.66756949      18.68176607      -0.00000023       0.00000335      -0.00000683
H       25.04746466       9.41764642      14.55095298      -0.00001499      -0.00002009       0.00000283
H        7.29100486       8.13864365      13.08642513       0.00002369       0.00002740       0.00000578
H       26.84405604      14.04269163      20.97829847      -0.00001161      -0.00000324      -0.00000665
H        6.33926121      15.50733816      19.49680152       0.00001938       0.00000321       0.00000986
C       24.55607958       7.57532287      13.86435132       0.00003616       0.00001054      -0.00004636
C        5.46404302       7.71424367      13.82815929       0.00002839      -0.00002143      -0.00000196
C        5.75873570       7.11565290      20.23246837      -0.00003489       0.00001926      -0.00001993
C        5.91285393      13.68143763      20.24040763      -0.00001346      -0.00003655       0.00006542
N        6.03952798      15.13256689      13.81314579       0.00003674      -0.00000679      -0.00006692
N        4.34194764       7.03268487      13.80389130       0.00003995      -0.00004213      -0.00007022
N        4.74784358       7.30832215      19.41755830       0.00005105      -0.00002931       0.00002331
N       24.91822313       8.26135241      19.45825930       0.00003114      -0.00005093       0.00004622
N        5.55940079      12.99611188      13.02112455      -0.00000434      -0.00001470       0.00000760
N        6.47872310       7.52200582      13.01785817      -0.00005273      -0.00005146      -0.00002175
N       26.12760951      14.22620941      20.26894256       0.00000582      -0.00000150       0.00000713
N        5.72370027      14.69430556      19.42723661      -0.00005045       0.00001273      -0.00006239
Pb      21.65700664      10.58366274      23.27178813       0.00000598      -0.00000283      -0.00001265
Pb       2.42528125      10.57837341      23.22924246      -0.00001507      -0.00000781       0.00000350
Pb      21.58637943       4.23846522      16.85351303       0.00000442      -0.00000020       0.00000087
Pb      21.60178891      10.66239728      16.86569250       0.00000104       0.00000298       0.00001335
I       24.83313144      11.15630096      23.57579944       0.00000617      -0.00000939       0.00001703
I        5.61083047      10.20932872      23.02282257      -0.00000814      -0.00000132      -0.00000944
I        5.61042563      10.09047279      17.12490811       0.00000611      -0.00000229       0.00000598
I       24.83530619      11.03674403      16.65993360      -0.00000540      -0.00000405      -0.00000346
I       22.01431107       7.39270931      23.06797720       0.00000745       0.00001472      -0.00000416
I       21.15031306      13.84547499      10.74604246      -0.00000422      -0.00001584       0.00000400
I       21.24702156      13.85372285      16.66907668       0.00000414       0.00000322       0.00000545
I       22.15316405       7.42069918      17.13909801      -0.00001624       0.00000833      -0.00001005
I        8.66819691      10.36089815      13.63138777      -0.00000747       0.00001184      -0.00000907
I        2.72381473      10.79447603      13.61974135       0.00001000      -0.00000407       0.00001661
I        2.11965540      10.46617505      20.02319252      -0.00001152       0.00000528       0.00000066
I       21.80272242      10.89736160      20.06824407      -0.00000828      -0.00000162      -0.00000490
H        4.57277620       1.06875049       1.75420239      -0.00002758       0.00000733       0.00003163
H        5.65985267      21.38022137       1.79874344       0.00001391      -0.00000841       0.00001298
H        5.76089047      19.21541272       8.20178775       0.00002559       0.00003137      -0.00001095
H        6.68879479       0.93762432       8.16639317       0.00001851       0.00001041       0.00000726
H        5.84851929       3.01037929       1.68414619      -0.00000440      -0.00001105       0.00000189
H        3.72271911      20.09875268       1.72134619      -0.00002560       0.00002647       0.00001996
H       23.17811869       0.28038239       6.70022583       0.00002244       0.00000593       0.00001319
H        5.40703001      -0.99993384       8.08721058      -0.00000025       0.00000555      -0.00001504
H       25.56133199      19.47568321      -0.47737986      -0.00000486      -0.00000325       0.00001364
H       25.69637493       0.40596721      -0.50675833       0.00002922       0.00005245       0.00006505
H       24.01917368       1.60254487       5.89404677       0.00002228      -0.00001680       0.00004305
H        4.46932756      -0.44627994       6.71800022       0.00002192      -0.00002476       0.00001527
H       26.09592414      21.75139644       0.39841690       0.00003432       0.00001106      -0.00005578
H       23.41945905      -0.13792236       0.36292371      -0.00002167      -0.00003163      -0.00004364
H       26.29127396       2.14630117       6.77481691      -0.00000500      -0.00000846      -0.00001912
H       23.76892990      18.84402430       6.79617849      -0.00001653      -0.00000708      -0.00002543
H        4.94143592      -0.65869715       0.25023462      -0.00001959      -0.00001710      -0.00000236
H       22.86494655       0.80433004       1.72889654      -0.00002463       0.00003589       0.00004287
H        7.69793079      20.49761869       8.13475341      -0.00002412      -0.00002461       0.00000309
H       24.70657214      18.29048661       8.16546942       0.00000691       0.00000551       0.00000426
C        5.35738286       1.16800714       0.99747967       0.00004610       0.00003860       0.00000408
C       24.70698240       1.30282286       1.04700553       0.00008417       0.00001877      -0.00003938
C       25.00147123       0.70417905       7.45129713       0.00000090       0.00004733      -0.00003430
C       25.20811728      20.13177495       7.48291154       0.00003170       0.00000261       0.00002634
N       24.85452336      19.44649493       0.26371628      -0.00000031      -0.00001434       0.00001018
N       25.72155453       1.11042571       0.23660778      -0.00004835      -0.00004262      -0.00002425
N       23.99072598       0.89709758       6.63626725      -0.00002818       0.00000801      -0.00003483
N        5.22680277      -0.28067094       7.37998763       0.00000971       0.00004021      -0.00004168
N       25.33495255      21.58291465       1.05565691      -0.00004884      -0.00002149       0.00004792
N       23.58478318       0.62143276       1.02284765       0.00001012      -0.00001651      -0.00002509
N        6.98134793      20.68094855       7.42548908       0.00001273      -0.00001527       0.00001697
N       24.52633179      19.00972471       7.45822445      -0.00000112       0.00002378       0.00001498
Pb       2.51069087      17.03821196      10.42867075      -0.00000880      -0.00001207      -0.00000365
Pb      21.72053452      17.02868398      10.47165077      -0.00000527       0.00000726       0.00000746
Pb       2.49255571      23.55466831       4.03404635      -0.00000913       0.00001774      -0.00001682
Pb       2.45543018      17.11690755       4.02252201       0.00000432      -0.00000851       0.00000139
I        5.68679582      17.61090376      10.73274257      -0.00000001      -0.00000478      -0.00000594
I       24.85367272       3.79796269      10.24170888      -0.00000831      -0.00000725      -0.00000784
I       24.90562624      16.54087948       4.36732029       0.00000672       0.00000196      -0.00001190
I        5.68891838      17.49126072       3.81672676       0.00000798      -0.00000280       0.00000515
I        2.81564395       0.98551822      10.20132659       0.00000482      -0.00001081      -0.00000550
I        1.90738157      20.25684879      23.52729463      -0.00000244      -0.00000167      -0.00001319
I        2.10077750      20.30821409       3.82587920       0.00000578      -0.00000011       0.00000314
I        2.95444181       1.01348637       4.27234999      -0.00001366       0.00000792      -0.00001636
I        2.28323132       3.95220655       0.79315710      -0.00000988       0.00001347       0.00000249
I       22.01893799      17.24483898       0.86215678       0.00000225      -0.00001238       0.00000506
I       21.41490153      16.91658465       7.26560284      -0.00000142       0.00000088       0.00002199
I        2.65633103      17.35174498       7.22509002      -0.00001004      -0.00000913       0.00001641
H       23.87213350      20.35948964       1.83252941      -0.00001881      -0.00001735       0.00001156
H       24.80229084       2.08552602       1.80610251      -0.00002277      -0.00001270       0.00002097
H       24.90273118      -0.07944791       8.20900112       0.00001912      -0.00002266       0.00004383
H       25.98812183      20.22818419       8.24475330      -0.00003869       0.00001054      -0.00004247
H       24.24057480      18.63190756       0.32864726       0.00003113       0.00004284      -0.00000188
H       26.53392849       1.72694816       0.30509185       0.00001417       0.00001242      -0.00000705
H        4.03601544      19.57478290       6.69317815      -0.00005731      -0.00002742      -0.00000168
H       25.63439793      21.95770975       6.73932937       0.00002140       0.00002545      -0.00001045
H        6.79631151       2.46105906       0.32007952      -0.00003909       0.00001121       0.00005963
H        4.27748865      19.15659265       0.35539585       0.00000281       0.00004902       0.00003023
H        4.87680261      20.89692013       5.88669074       0.00000687       0.00002800      -0.00000885
H       24.31666763      21.11781932       5.92420573      -0.00004054       0.00000608      -0.00003297
H        6.26206195       0.18529297      -0.55577764       0.00001074       0.00000466       0.00001082
H        6.55441141      19.70082443      -0.51404629      -0.00000847       0.00001865       0.00002419
H        7.14893630      21.44105996       6.76696715       0.00000841      -0.00001189       0.00002068
H        5.01726620       1.82743165       5.84597180      -0.00000023       0.00000335      -0.00000683
H       25.14815602      22.30091806       1.76241933      -0.00001499      -0.00002008       0.00000283
H        7.39169622      21.02191529       0.29789148       0.00002369       0.00002741       0.00000579
H       26.83992480       1.20255379       8.14250420      -0.00001163      -0.00000326      -0.00000664
H        6.33512997       2.66720032       6.66100725       0.00001938       0.00000321       0.00000985
C       24.65677094      20.45859451       1.07581767       0.00003617       0.00001054      -0.00004636
C        5.56473438      20.59751531       1.03962564       0.00002838      -0.00002144      -0.00000196
C        5.85942706      19.99892454       7.44393472      -0.00003490       0.00001926      -0.00001993
C        5.90872269       0.84129979       7.40461336      -0.00001346      -0.00003649       0.00006539
N        6.03539674       2.29242905       0.97735152       0.00003674      -0.00000679      -0.00006692
N        4.44263900      19.91595651       1.01535765       0.00003995      -0.00004213      -0.00007022
N        4.84853494      20.19159379       6.62902465       0.00005105      -0.00002931       0.00002331
N       25.01891449      21.14462405       6.66972565       0.00003114      -0.00005093       0.00004622
N        5.55526955       0.15597404       0.18533028      -0.00000429      -0.00001467       0.00000754
N        6.57941446      20.40527746       0.22932452      -0.00005270      -0.00005138      -0.00002167
N       26.12347827       1.38607157       7.43314829       0.00000579      -0.00000146       0.00000704
N        5.71956903       1.85416772       6.59144234      -0.00005044       0.00001275      -0.00006239
Pb      21.75769800      23.46693438      10.48325448       0.00000598      -0.00000284      -0.00001265
Pb       2.52597261      23.46164505      10.44070881      -0.00001507      -0.00000781       0.00000349
Pb      21.68707079      17.12173686       4.06497938       0.00000442      -0.00000020       0.00000087
Pb      21.70248027      23.54566892       4.07715885       0.00000104       0.00000298       0.00001335
I       24.93382280      24.03957260      10.78726579       0.00000617      -0.00000939       0.00001703
I        5.71152183      23.09260036      10.23428892      -0.00000814      -0.00000132      -0.00000944
I        5.71111699      22.97374443       4.33637446       0.00000611      -0.00000229       0.00000598
I       24.93599755      23.92001567       3.87139995      -0.00000540      -0.00000405      -0.00000346