96
Lattice="19.55313682719633 -0.21575486943419742 0.1287334694433578 -0.2020486773382509 11.73591154475948 0.13561091714802576 7.996125243805528e-05 0.06752455494203675 9.157972316699555" Properties=species:S:1:pos:R:3:forces:R:3 energy=-457.9444686962526 stress="0.0026762513597761925 -0.0006061725685182587 -0.00043165167123878414 -0.0006061725685182587 0.0018493582992964712 0.0005407007773145133 -0.00043165167123878414 0.0005407007773145133 0.0019038809585086882" free_energy=-457.9444686962526 pbc="T T T"
H        4.62041624       3.04568462       2.84304384       0.00001743      -0.00001580      -0.00000213
H        8.88537902      14.66552784       1.08017100       0.00000608      -0.00000044      -0.00000360
H       -0.91262307       8.99122538       3.35672274      -0.00002290      -0.00000632      -0.00000365
H       14.41845978       8.71992274       0.56651542       0.00000487      -0.00000668      -0.00001497
H        2.89875074       2.37628698       8.83397628      -0.00000251      -0.00000996       0.00000903
H        8.94826825      12.57207953       2.08106076      -0.00000225      -0.00000616       0.00001803
H        0.79432939       8.22196631       6.54753131      -0.00000665      -0.00001505      -0.00000832
H       14.30060840       6.57937158      -0.33585318       0.00000993      -0.00001337      -0.00000367
H        2.98628437       5.53585456       2.52863889       0.00000763       0.00000157      -0.00000046
H       10.51946318      12.17532037       1.39452163      -0.00001911      -0.00000996       0.00000272
H        1.68636471       9.73785676       6.64209332       0.00002365       0.00001711      -0.00001156
H       12.73039717       6.25284979       0.39099904       0.00001145       0.00000554      -0.00000302
H        2.02550821       3.86691827       4.08255679      -0.00000108      -0.00001048       0.00000586
H       11.48023358      13.84423841      -0.15941735       0.00001797       0.00001225       0.00000017
H        0.77533949      11.45837207       3.53212495      -0.00000249      -0.00000985       0.00000347
H       11.81951360       8.00707503       1.86020937       0.00000203       0.00000098      -0.00000315
H        2.89868718       2.34252859       4.25501020      -0.00000409       0.00000399      -0.00000026
H       10.60708682      15.36865328      -0.33183404       0.00000841      -0.00001579      -0.00000182
H       -0.79486178      11.13182695       4.25898631      -0.00000226      -0.00000609       0.00000408
H       14.30066074       6.61301300       4.24317890      -0.00001202       0.00001334       0.00000859
C        3.76766125       3.70721459       3.02779064       0.00000115       0.00002267      -0.00000876
C        9.73811570      14.00397969       0.89539962      -0.00005413       0.00000951       0.00001942
C       -0.04840319       9.62609986       3.13618962      -0.00000644       0.00003190       0.00003735
C       13.55421983       8.08506711       0.78702757      -0.00002505       0.00000672       0.00003203
N        3.76078419       4.87837392       2.43095995      -0.00001660       0.00000061       0.00000418
N        9.74498234      12.83281916       1.49222824       0.00005251       0.00000615      -0.00002947
N        0.87806331       9.17210097       6.92471875      -0.00001254      -0.00001021      -0.00002770
N       13.51651492       6.88719291       0.24531143      -0.00001293      -0.00000782       0.00000733
N        2.82320429       3.27445073       3.82970701      -0.00001199       0.00000695       0.00000294
N       10.68255964      14.43672544       0.09345873       0.00000970       0.00000390      -0.00000634
N       -0.01075198      10.82400406       3.67784452       0.00000869       0.00000592       0.00000016
N       12.62781719       8.57282392       1.57757230      -0.00000319      -0.00001259      -0.00001649
Pb      -1.84819134       4.89086627       0.57995401      -0.00000444      -0.00000178      -0.00000249
Pb      15.35395364      12.82028511       3.34326061      -0.00000257       0.00000368       0.00000663
Pb       5.65331598      10.66236368       0.96226650       0.00000677       0.00000061      -0.00000491
Pb       7.85247051       7.04882313       2.96096736       0.00000116       0.00000098      -0.00000561
I       -2.91238476       6.94708713       2.87118823      -0.00000115       0.00000723       0.00000870
I       -3.13498182      10.97982292       0.92328880      -0.00000810      -0.00000059       0.00000505
I        6.61575423      12.76286388       3.23477205      -0.00000151      -0.00000047       0.00000876
I        6.89002676       4.94833192       0.68846234      -0.00000162      -0.00000147      -0.00001665
I       14.64967067       3.22826546       0.87524518      -0.00000109      -0.00000398       0.00000855
I       -1.14390401      14.48288855       3.04796657       0.00000324       0.00000339      -0.00000205
I        8.71328739       9.22438334       0.69362231       0.00000114      -0.00000254       0.00000192
I        4.79249398       8.48681817       3.22961466       0.00000022      -0.00001073       0.00000480
I        0.99313665       6.17858357       0.32761234      -0.00000333       0.00000440       0.00000767
I       12.51262117      11.53258019       3.59561854       0.00000221       0.00001198      -0.00000857
I        2.80467675      11.96764042       1.28257065      -0.00000434      -0.00000495       0.00000607
I       10.70110037       5.74354263       2.64063827      -0.00000023       0.00000394      -0.00000091
H        4.62043004       3.07943433       7.42194535      -0.00001090       0.00001673       0.00000725
H        8.88539696      14.69922769       5.65927919       0.00001584      -0.00000860      -0.00000253
H       -0.91261904       9.02500147       7.93570553      -0.00001400       0.00000316      -0.00000042
H       14.41855332       8.75360051       5.14545007      -0.00000015      -0.00000097       0.00000473
H        4.55749955       5.13912347       1.84213220      -0.00000199      -0.00000776       0.00001053
H        8.94832013      12.60571569       6.66004223       0.00000876       0.00001926      -0.00001691
H        0.79431219       8.18818501       1.96853731       0.00000752       0.00000915      -0.00001358
H       12.71165467       9.55674553       6.53363021      -0.00000765      -0.00001905       0.00000749
H        2.02559732       3.90069932       8.66159605      -0.00001823      -0.00000049       0.00000009
H       10.51946959      12.20898074       5.97338728       0.00001679       0.00000624       0.00000490
H        1.68632447       9.70409654       2.06304699       0.00000755      -0.00000124      -0.00002092
H       11.81956255       8.04088520       6.43912542      -0.00001091      -0.00000884       0.00001709
H        2.98634911       5.56965797       7.10769521      -0.00000016      -0.00000561      -0.00000342
H       11.48021632      13.87800863       4.41956909       0.00002349      -0.00000690       0.00000089
H        0.77539875      11.49210473       8.11123408      -0.00002142      -0.00002606      -0.00000236
H       12.73043753       6.28655790       4.97003940       0.00002823       0.00001366      -0.00000478
H        4.55752046       5.17290764       6.42110005       0.00000511      -0.00000816       0.00001225
H       10.60705855      15.40242364       4.24724460       0.00000908       0.00001394      -0.00001317
H       -0.79483299      11.16556846       8.83803746       0.00002962       0.00000005      -0.00001280
H       12.71156179       9.52296043       1.95475444      -0.00000036      -0.00000429       0.00000539
C        3.76769912       3.74098138       7.60674882       0.00003518      -0.00002324      -0.00001514
C        9.73812477      14.03768738       5.47443849       0.00000153       0.00000349      -0.00001176
C       -0.04837976       9.65986392       7.71521096       0.00001584       0.00001310       0.00001263
C       13.55429418       8.11877743       5.36598137       0.00001024       0.00003101       0.00000379
N        2.82326907       3.30821943       8.40869737       0.00000449       0.00000112      -0.00000939
N        9.74500915      12.86648810       6.07118972      -0.00002312      -0.00001107       0.00002796
N        0.87803225       9.13833515       2.34568987      -0.00000168      -0.00001284       0.00000010
N       12.62788715       8.60659827       6.15648117       0.00000446       0.00002017       0.00000082
N        3.76082134       4.91215564       7.00994795      -0.00001424       0.00002370      -0.00000297
N       10.68254701      14.47047943       4.67249559      -0.00003485       0.00001033       0.00001734
N       -0.01071406      10.85775055       8.25690263      -0.00001370       0.00003321       0.00001714
N       13.51657099       6.92087705       4.82432659      -0.00002421      -0.00005996      -0.00002553
Pb      -1.84816362       4.92463471       5.15893874       0.00000178       0.00000250       0.00000155
Pb      15.35400649      12.85404684       7.92224734      -0.00000195      -0.00000426       0.00000075
Pb       5.65334976      10.69612730       5.54125145      -0.00000771       0.00001059       0.00000284
Pb       7.85250862       7.08259905       7.53995446      -0.00000542      -0.00000981       0.00001103
I       -2.91234040       6.98084749       7.45018870       0.00000365       0.00001119      -0.00000680
I       -3.13494577      11.01358325       5.50226421       0.00000751      -0.00000123      -0.00000429
I        6.61579983      12.79662314       7.81376616       0.00000002       0.00000342      -0.00001167
I        6.89006542       4.98209832       5.26745014       0.00000127      -0.00001364      -0.00000930
I       14.64969169       3.26201545       5.45423908       0.00000249      -0.00000264       0.00000055
I       -1.14384356      14.51666579       7.62694492      -0.00000602      -0.00000113      -0.00000303
I        8.71333430       9.25813675       5.27260788      -0.00000555       0.00000548      -0.00000408
I        4.79252919       8.52057468       7.80860254       0.00000574       0.00000096      -0.00000443
I        0.99314406       6.21236693       4.90658771       0.00000990      -0.00000406       0.00001192
I       12.51269422      11.56633120       8.17459951       0.00000287      -0.00000723      -0.00000830
I        2.80470900      12.00139294       5.86156006       0.00001729      -0.00000608       0.00000169
I       10.70114974       5.77733500       7.21961704      -0.00000167       0.00000049      -0.00000005
