768
Lattice="25.33951204865166 0.014184333321381349 0.0023799888866038103 -0.038261598655198056 25.37959008395588 0.08521541152130947 -0.09668657868363563 -0.29184035148719795 25.338541248958023" Properties=species:S:1:pos:R:3:forces:R:3 energy=-3349.8068463291124 stress="0.003799845287093725 -3.2739757699758567e-05 -0.00011532653211627018 -3.2739757699758567e-05 0.00569956436570346 0.0015098473108289775 -0.00011532653211627018 0.0015098473108289775 0.005601681158177995" free_energy=-3349.8068463291124 pbc="T T T"
I        5.83195069       2.81312427       1.94728701      -0.00000024      -0.00000279      -0.00000221
I        6.50641568      14.05392224       8.28529217       0.00000136      -0.00000490      -0.00000391
I        5.81506127      11.59461180       4.44447918      -0.00000189      -0.00000411       0.00000556
I        6.52336858       5.27245340       5.78807275       0.00000953       0.00000308       0.00000021
I       24.79604418      14.06332496       8.28461322      -0.00000450      -0.00000588       0.00000400
I       12.88190579       2.81788423       1.95030539       0.00000249       0.00000547       0.00001042
I       12.15393563       5.27466202       5.79281205      -0.00000345       0.00001485       0.00000174
I       25.52394391      11.60655735       4.44209059      -0.00000114      -0.00001000      -0.00000202
I        9.30173199      15.12866686      12.03694393       0.00000559      -0.00000009       0.00000068
I        3.00296415       8.01035562       4.55157981      -0.00001641      -0.00000788      -0.00000087
I        3.01028295       2.64317919       5.53061902      -0.00001201      -0.00000309      -0.00001162
I        9.32814908      14.22387945       4.70199958       0.00000839      -0.00000057       0.00000028
H        3.91713441       6.22222104       1.04630380       0.00000339       0.00000187       0.00000399
H        9.34840533       5.78582509       3.48465959      -0.00000124      -0.00000056      -0.00000458
H        8.43986585      10.73491794       2.86260017      -0.00000893      -0.00000377       0.00000604
H        2.99208343       6.76894431       8.78247342      -0.00000520       0.00000261       0.00000028
H        2.08622007      12.48824816       7.40013970       0.00000807       0.00000518       0.00000065
H        8.45502224       4.37292923       2.83038560      -0.00000031       0.00000126       0.00000480
H       10.22241187       4.31311958       9.18786333      -0.00000173      -0.00000597       0.00000058
H        3.89863398       6.13215713       7.37008690      -0.00000554       0.00000249      -0.00000292
H        2.11995712       6.21643254       1.04438541       0.00000062      -0.00000292      -0.00000871
H       10.25219959       4.37872292       2.83232429       0.00000201       0.00000214      -0.00000731
H       10.23702760      10.73099496       2.87457561      -0.00001525       0.00000333      -0.00001314
H        2.10147115       6.13619880       7.35809021       0.00000815       0.00000370       0.00000228
H        3.86060198       4.37236704       2.61536804      -0.00000050       0.00000512       0.00000198
H       10.15431616      12.49904813       7.61850798      -0.00000054      -0.00000747       0.00001390
H       10.19182402      12.32470579       1.04485040       0.00000408      -0.00000659      -0.00000097
H        3.00577731      10.34603063       1.53998414      -0.00000157      -0.00000323       0.00000694
H        2.18402841       4.36802793       2.61406250      -0.00000042      -0.00000751       0.00000113
H        8.47774218      12.49464153       7.61727031       0.00000128       0.00000268       0.00000320
H        9.34726256      12.93894285       2.37924412      -0.00000011       0.00000775       0.00000560
H        2.16120493      10.96023285       2.87438701      -0.00000741       0.00000431       0.00000218
H        3.01809439       5.70121990       3.24451976       0.00000550       0.00000532      -0.00000934
H        9.35407596       4.89388765       0.63216730       0.00000156      -0.00000422       0.00000573
H        8.51497526      12.32846236       1.03589910       0.00000787      -0.00000954       0.00000583
H        3.83805544      10.95642723       2.88337364      -0.00000470      -0.00000337      -0.00000087
C        2.98669210      11.87516824       7.50093122      -0.00000340      -0.00000371      -0.00000690
C        9.35173622       4.99181924       2.73155678      -0.00001139       0.00000107       0.00000102
C        9.32817461       4.42295133       8.56727151      -0.00000572      -0.00000170       0.00000164
C        2.99568737       6.02627509       7.97869600       0.00000267      -0.00000094      -0.00001048
Pb       6.16923072       8.43353427       5.11628207      -0.00000627       0.00000508       0.00000044
Pb       6.15965213      14.77843691       5.13759197      -0.00000410       0.00000466      -0.00000345
Pb      25.14011714      14.71608957      11.47400877       0.00000482       0.00000865      -0.00001167
Pb      25.16426982      14.78906802       5.13935946       0.00000485      -0.00000585      -0.00000827
N        3.02090674       4.97700952       2.49872226       0.00000672       0.00000169      -0.00000427
N        9.31746716      11.89004001       7.73391635       0.00000507       0.00000616      -0.00001622
N        9.34990006      12.20251786       1.64550470       0.00000047      -0.00000686      -0.00001825
N        3.00314685      11.08242263       2.27375799       0.00000195       0.00000273      -0.00000029
I        5.79827735       9.08509594       8.30321809       0.00000176       0.00000003       0.00000329
I        6.54020590       7.78199593       1.92935750       0.00000620       0.00000030       0.00000159
I        5.80042852       5.17675145      10.75781511      -0.00000369      -0.00000107      -0.00000758
I        6.44132365      11.39848177      24.81329051      -0.00000410      -0.00001203       0.00000429
I       24.82973758       7.79139382       1.92868449       0.00000240       0.00000244       0.00000170
I       12.84821526       9.08981640       8.30625687      -0.00000296      -0.00000342      -0.00000597
I       12.07186111      11.40067633      24.81802355       0.00000058      -0.00000187       0.00000198
I        0.16980423       5.17450802      10.75307925       0.00000975       0.00001048      -0.00000566
I        9.33548490       8.85672351       5.68102324       0.00000873       0.00000224       0.00000278
I        2.92087599      14.13634357      23.57676492       0.00000395      -0.00000585       0.00000164
I        2.97655233       8.91509897      11.88648232      -0.00001765       0.00000541       0.00000733
I        9.26518767       7.66008487      23.68457792       0.00001143      -0.00000179      -0.00000010
H        2.99003542      11.08113598       6.74785625       0.00000104      -0.00000350       0.00000157
H       10.21853976      10.65075277       9.18829373      -0.00001077       0.00000301       0.00000420
H        9.33181948       3.68024807       7.76352546      -0.00000604       0.00001075       0.00000179
H        3.00667003      13.18680933       2.46913639       0.00000064      -0.00000315      -0.00000325
H        3.02374237       4.80934102       0.39201008      -0.00000637      -0.00000123       0.00000073
H        9.31469057      12.05782514       9.84061924       0.00000509       0.00000117      -0.00000364
H        9.34644292      10.09811860       1.45023457      -0.00000374       0.00000739      -0.00000830
H        3.91326131      12.55005441       1.05676077      -0.00000092       0.00000440      -0.00000618
H        3.88339960      12.49406464       7.40208291      -0.00000947       0.00000108      -0.00000095
H        8.42136120      10.64485616       9.18643195       0.00000573       0.00000253       0.00000044
H        8.42525013       4.31702744       9.17590585      -0.00000100       0.00000517      -0.00000557
H        2.11609890      12.55403870       1.04473994      -0.00000006      -0.00000212      -0.00000021
H        2.15029730      10.63993866       8.96992424      -0.00000064       0.00000489       0.00000172
H       10.18813945       6.22709168       1.26260281      -0.00000562      -0.00000118       0.00000040
H        8.50033301       5.91058761       7.34921471       0.00000640      -0.00000514       0.00000045
H        2.99110039       3.92816414       7.85332761       0.00000229      -0.00001061      -0.00000046
H        2.98434576      11.97317313       9.60031742       0.00000141      -0.00001307       0.00000796
H        8.51156462       6.22275200       1.26128633       0.00000010       0.00000319       0.00000360
H       10.17718333       5.90684205       7.35815374      -0.00000367      -0.00000338       0.00000435
H        2.14653973       4.54239195       9.18772818       0.00001346      -0.00000134      -0.00000117
H        3.82687274      10.64429509       8.97124598      -0.00000513       0.00001099      -0.00000662
H        9.32027954      11.16578871       6.98815728       0.00000186       0.00000500      -0.00000155
H        9.33262807       6.52106532       8.69255695       0.00000195       0.00000390      -0.00000099
H        3.82339076       4.53853976       9.19671585      -0.00000671       0.00000821       0.00000278
C        3.02042002       5.60333136       1.14512907      -0.00000175      -0.00000056      -0.00000034
C        9.31803592      11.26379340       9.08754384       0.00000144      -0.00000918       0.00000028
C        9.34279682      10.84082869       2.25397386       0.00000432       0.00000648       0.00000298
C        3.01031016      12.44414182       1.66535732      -0.00000154      -0.00000305      -0.00000008
Pb       6.13546926      14.70545433      11.47223466       0.00000402      -0.00000334       0.00000078
Pb       6.14504855       8.36058530      11.45091764       0.00001456      -0.00000474       0.00000361
Pb      25.17384856       8.44417509       5.11805766      -0.00000574       0.00000574      -0.00000340
Pb      25.14965934       8.37120995      11.45270399       0.00000396      -0.00000836      -0.00000682
N        2.98717153      11.24892140       8.85455862       0.00000475       0.00000141       0.00000265
N        9.35125935       5.61811313       1.37795074       0.00000839      -0.00000151       0.00000152
N        9.33526374       5.78464509       7.95881275       0.00000631       0.00000541       0.00000104
N        2.98848682       4.66455775       8.58709974       0.00000286       0.00000225       0.00001944
I        5.78365740       2.66722032      14.61655727       0.00000555      -0.00000394      -0.00000489
I        6.45811346      13.90800368      20.95456525      -0.00000152      -0.00000236      -0.00000878
I        5.76666066      11.44867425      17.11377808      -0.00000745      -0.00000075      -0.00000002
I        6.47506219       5.12652996      18.45733775      -0.00000059      -0.00000743      -0.00000338
I       24.74768497      13.91739476      20.95389177      -0.00000253      -0.00000059      -0.00000753
I       12.83359219       2.67195522      14.61958244       0.00000121      -0.00000541       0.00001129
I       12.10567064       5.12875082      18.46211477      -0.00000584      -0.00000370      -0.00000144
I       25.47563637      11.46062730      17.11140050       0.00000296       0.00000699       0.00000044
I        9.25340685      14.98273112      24.70621617      -0.00000567       0.00000699       0.00000303
I        2.95459607       7.86438611      17.22083593       0.00000921       0.00000144      -0.00000486
I        2.96193188       2.49724065      18.19984134       0.00001433       0.00000730       0.00000411
I        9.27979179      14.07793632      17.37125584       0.00000360       0.00000045      -0.00000068
H        3.86875199       6.07622940      13.71539586      -0.00000247      -0.00000410       0.00000627
H        9.30010944       5.63988336      16.15394738      -0.00000279      -0.00000076      -0.00000212
H       10.18847433      10.58484467      15.54384739       0.00000672       0.00000856      -0.00000309
H        2.94367297       6.62300155      21.45156489       0.00001261       0.00000789       0.00000513
H        2.94170840      10.93526446      19.41718907      -0.00000152       0.00000796      -0.00000484
H        8.40677649       4.22694054      15.49970356      -0.00000063       0.00000738       0.00000320
H       10.17391427       4.16714625      21.85720971      -0.00000143      -0.00000609      -0.00000461
H        3.85023530       5.98615054      20.03921109      -0.00000073       0.00000214       0.00001072
H        2.07157278       6.07037185      13.71350791       0.00000404       0.00000598       0.00001070
H       10.20395373       4.23283908      15.50155537      -0.00000461      -0.00000141       0.00000833
H        9.29798912       9.95217022      14.11935435      -0.00000574      -0.00000476       0.00000073
H        2.05307403       5.99008651      20.02725231      -0.00000517      -0.00000805      -0.00000892
H        3.81230822       4.22647075      15.28458457       0.00000178      -0.00000156      -0.00000029
H       10.10607028      12.35310681      20.28785963      -0.00000605       0.00000416      -0.00000870
H       10.14369123      12.17865994      13.71418139      -0.00002468       0.00001234      -0.00000681
H        2.95740792      10.20001307      14.20927182       0.00000324       0.00000907       0.00000700
H        2.13573344       4.22209551      15.28331746      -0.00000044       0.00000211       0.00000669
H        8.42949398      12.34878584      20.28652318       0.00000891       0.00000159       0.00000064
H        9.29907556      12.79294204      15.04852595       0.00000008       0.00000781       0.00000567
H        2.11281748      10.81428448      15.54363370       0.00000997      -0.00000437      -0.00000296
H        2.96978563       5.55534412      15.91367304      -0.00000753       0.00000168      -0.00000809
H        9.30568553       4.74796688      13.30144952      -0.00000717       0.00000047      -0.00000058
H        8.46684011      12.18263619      13.70507502       0.00000576      -0.00000322       0.00000317
H        3.78966651      10.81042899      15.55266448      -0.00001516       0.00000248      -0.00000940
C        2.93835218      11.72927719      20.17028446      -0.00001083      -0.00000193      -0.00000082
C        9.30344942       4.84588393      15.40083790      -0.00000397       0.00000260      -0.00000237
C        9.27973394       4.27702886      21.23654510       0.00000980       0.00000752       0.00000424
C        2.94730867       5.88026613      20.64784931      -0.00000185      -0.00001316       0.00002463
Pb       6.12086356       8.28761177      17.78555286      -0.00000176       0.00000113       0.00000306
Pb       6.11130465      14.63250137      17.80685961      -0.00000174      -0.00000489       0.00000477
Pb      25.09176966      14.57017566      24.14326926      -0.00000896      -0.00001056       0.00000769
Pb      25.11595191      14.64313626      17.80864183      -0.00000812      -0.00000449       0.00001466
N        2.97259637       4.83108661      15.16791971      -0.00000848      -0.00000254      -0.00000227
N        9.26918145      11.74413780      20.40319695      -0.00000873       0.00000248       0.00000362
N        9.30169060      12.05655359      14.31474961      -0.00001639      -0.00000931      -0.00001053
N        2.95477881      10.93642881      14.94302093       0.00000609      -0.00002087       0.00000745
I        5.74989197       8.93912628      20.97249432      -0.00000015      -0.00000343      -0.00000189
I        6.49179863       7.63603620      14.59862393      -0.00000205       0.00000011       0.00000073
I        5.75206167       5.03083032      23.42712712       0.00000195      -0.00000147       0.00000795
I        6.48973476      11.54438760      12.14403700      -0.00000008       0.00000357      -0.00000675
I       24.78140481       7.64547771      14.59795698       0.00000690       0.00000213      -0.00001735
I       12.79981109       8.94391456      20.97551654      -0.00000429       0.00000248      -0.00000459
I       12.12032378      11.54660973      12.14874264       0.00000299      -0.00000463       0.00000752
I        0.12151795       5.02858743      23.42233890      -0.00000095      -0.00000975       0.00001024
I        9.28711874       8.71081947      18.35028172       0.00000330      -0.00000527       0.00000319
I        2.96921518      14.28221919      10.90748704      -0.00000561      -0.00000924       0.00000260
I        2.92820015       8.76920473      24.55580555       0.00001008      -0.00000515      -0.00000167
I        9.31355439       7.80601564      11.01532932      -0.00000715      -0.00000399      -0.00000774
H        3.83504787      12.34819292      20.07145209       0.00000169      -0.00000442      -0.00000029
H        9.26632253      11.91185056      22.50990526      -0.00000074      -0.00000116      -0.00000055
H        9.28338897       3.53431411      20.43281013       0.00000115      -0.00000062      -0.00000134
H        2.06782954      12.40801694      13.71389852       0.00000053      -0.00000359       0.00000316
H        2.97539828       4.66326841      13.06122296       0.00000502       0.00000406      -0.00001074
H        8.37290143      10.49898055      21.85562862      -0.00000749      -0.00000362       0.00000089
H        8.39131431      10.58899619      15.53164408       0.00000735       0.00000191      -0.00000416
H        2.95832167      13.04082069      15.13832973       0.00000728      -0.00000235      -0.00001076
H        2.03787003      12.34234525      20.06951221       0.00000182       0.00000456      -0.00000793
H       10.17007872      10.50472127      21.85757314      -0.00000657       0.00001021       0.00000224
H        8.37675314       4.17117746      21.84510896       0.00000875      -0.00001114       0.00000372
H        3.86499106      12.40400653      13.72603013      -0.00001029      -0.00000254      -0.00000145
H        2.10197260      10.49400332      21.63924830      -0.00000218       0.00000051       0.00000387
H       10.13972295       6.08120129      13.93185062      -0.00000104      -0.00000110       0.00000594
H        8.45207122       5.76469965      20.01842010       0.00001122       0.00001137       0.00000507
H        2.94284863       3.78214984      20.52265041      -0.00001086      -0.00001151      -0.00000541
H        2.93601917      11.82722244      22.26967325       0.00000199       0.00000158       0.00000127
H        8.46314783       6.07679360      13.93061834       0.00000044      -0.00000048      -0.00000668
H       10.12892264       5.76084673      20.02745489       0.00000106       0.00000117       0.00000018
H        2.09827128       4.39642439      21.85701574      -0.00000274       0.00001616      -0.00000476
H        3.77854669      10.49836482      21.64055802      -0.00000416       0.00000589       0.00000240
H        9.27199803      11.01991335      19.65741327       0.00000145      -0.00000775      -0.00000391
H        9.28432745       6.37514248      21.36180118       0.00000430       0.00001255       0.00000065
H        3.77512073       4.39267837      21.86598309       0.00000792      -0.00000950       0.00000834
C        2.97206191       5.45731446      13.81428330      -0.00000278      -0.00000628      -0.00000164
C        9.26963345      11.11784426      21.75680295       0.00002464      -0.00000306      -0.00000537
C        9.29433733      10.69483068      14.92313957       0.00000906       0.00000214       0.00001253
C        2.96200069      12.29812681      14.33457505      -0.00000965       0.00002615      -0.00000281
Pb       6.08713821      14.55955957      24.14148931       0.00000353      -0.00000022      -0.00000256
Pb       6.09669914       8.21466219      24.12019986      -0.00000985      -0.00000638       0.00000076
Pb      25.12549727       8.29824589      17.78734233      -0.00000269      -0.00000823       0.00000276
Pb      25.10133262       8.22526530      24.12197244       0.00000389       0.00000566       0.00000442
N        2.93884323      11.10299287      21.52389452       0.00000289       0.00000490       0.00000139
N        9.30287421       5.47218817      14.04723696       0.00000696       0.00000048      -0.00000162
N        9.28695924       5.63871302      20.62806687      -0.00000874      -0.00000483      -0.00000705
N        2.94020104       4.51859761      21.25636560      -0.00000179       0.00000944      -0.00003335
I        5.81286998      15.50294300       1.98988300       0.00000516       0.00000120       0.00000201
I        6.52559788       1.36412592       8.24268775      -0.00000340       0.00000390       0.00000599
I        5.79584830      24.28439855       4.48710879       0.00000097      -0.00000224      -0.00000142
I        6.50428723      17.96225530       5.83068355       0.00000185      -0.00000782      -0.00000802
I       24.81512517       1.37353857       8.24202871       0.00000253       0.00000709      -0.00000714
I       12.86283044      15.50768698       1.99292389      -0.00000806      -0.00000541       0.00001075
I       12.13486119      17.96446602       5.83543020       0.00000348      -0.00000457      -0.00000364
I       25.50483996      24.29634514       4.48474602       0.00000461      -0.00000018      -0.00000124
I        9.32086771       2.43887085      11.99435042      -0.00000122      -0.00000021      -0.00000482
I        2.98381742      20.70009259       4.59416677       0.00000442       0.00000128      -0.00000616
I        2.99114770      15.33295942       5.57315720      -0.00000224      -0.00000169      -0.00000545
I        9.34726582       1.53407639       4.65938838       0.00000289      -0.00000677      -0.00000462
H        3.89798096      18.91189614       1.08868517      -0.00000134       0.00000084       0.00000474
H        8.43591358      17.06272558       2.87305420       0.00000461       0.00000503      -0.00000290
H        8.42064298      23.42475104       2.90514379      -0.00000005       0.00000290      -0.00000292
H        2.97293311      19.45866779       8.82494566      -0.00000342      -0.00000208      -0.00000258
H        3.86423638      25.18395455       7.44481923       0.00000527       0.00000351       0.00000043
H       10.23309159      17.06855300       2.87493482       0.00000077      -0.00000032       0.00000861
H        9.31257033      16.37006482       7.80611639       0.00000644       0.00000477       0.00001306
H        3.87946660      18.82181144       7.41257793       0.00000154       0.00000456       0.00000223
H        2.10080204      18.90608438       1.08680908       0.00000443      -0.00000178       0.00000416
H        9.32929080      18.47565345       3.52726629       0.00000258      -0.00000224      -0.00000058
H       10.21780402      23.42071595       2.91718092      -0.00000042       0.00000221       0.00000003
H        2.08230538      18.82583885       7.40060884       0.00000153       0.00000216       0.00000443
H        3.84151535      17.06218826       2.65791532      -0.00001272      -0.00000032      -0.00000342
H       10.13529728      25.18882015       7.66125108      -0.00000597      -0.00000367      -0.00000558
H       10.17276719      25.01444686       1.08746848      -0.00000230       0.00000131      -0.00000056
H        2.98659163      23.03570588       1.58262645       0.00000293      -0.00000085       0.00000299
H        2.16494029      17.05781860       2.65664926      -0.00000132       0.00000109      -0.00000968
H        8.45872149      25.18450134       7.65987238       0.00000048      -0.00000910       0.00000471
H        9.32818789      25.62872670       2.42183304       0.00000170      -0.00000525       0.00000144
H        2.14202974      23.65000484       2.91699330      -0.00000721       0.00000937      -0.00000541
H        2.99899664      18.39107773       3.28697519      -0.00000439      -0.00000207       0.00000770
H       10.16894984      18.91688277       1.30517906      -0.00001064       0.00000011      -0.00000116
H        8.49591771      25.01829800       1.07845586      -0.00000278      -0.00000061      -0.00000001
H        3.81887740      23.64619683       2.92596804       0.00000245      -0.00000480      -0.00000515
C        2.96753195      24.56505171       7.54365075      -0.00000647      -0.00000175      -0.00000150
C        9.33261304      17.68162971       2.77418237       0.00000148      -0.00000914       0.00000707
C        9.30895464      17.11276293       8.60986749       0.00000214       0.00001606      -0.00000314
C        2.97653111      18.71595555       8.02120805       0.00000360       0.00000135      -0.00000537
Pb       6.15007470      21.12333171       5.15889753       0.00000251      -0.00000789      -0.00000012
Pb       6.17877674       2.08862474       5.09498911      -0.00000631      -0.00000877       0.00000037
Pb      25.15924338       2.02630705      11.43140286      -0.00000882      -0.00000670       0.00001534
Pb      25.18342476       2.09926280       5.09677059      -0.00000826       0.00000172       0.00000327
N        3.00180476      17.66680385       2.54123736       0.00000483      -0.00000744      -0.00000133
N        9.29840437      24.57984894       7.77655627       0.00000372      -0.00001002      -0.00001030
N        9.33081241      24.89230455       1.68809058      -0.00000064       0.00000090       0.00000060
N        2.98396642      23.77214980       2.31634658       0.00001367       0.00000549       0.00000222
I        5.77909602      21.77482647       8.34583258      -0.00000652      -0.00000026      -0.00000893
I        6.52101628      20.47175790       1.97195774       0.00000152      -0.00000113       0.00000005
I        5.78122830      17.86652787      10.80045949       0.00000290       0.00000113      -0.00000322
I        6.42221427      24.08826375      24.85590267      -0.00000327      -0.00000013      -0.00000591
I       24.81063706      20.48119104       1.97128615       0.00000196      -0.00000086      -0.00000793
I       12.82902820      21.77963516       8.34885812      -0.00000288       0.00000100       0.00001506
I       12.05279486      24.09046923      24.86064245      -0.00000675       0.00000640      -0.00000097
I        0.15072242      17.86429597      10.79571741       0.00000936      -0.00000567      -0.00000777
I        9.31633922      21.54654041       5.72362103      -0.00000418       0.00000570       0.00000431
I        2.93999241       1.44654955      23.53415607       0.00001151      -0.00000894       0.00000422
I        2.95740523      21.60490254      11.92914599       0.00000975       0.00000311      -0.00000519
I        9.24606536      20.34989499      23.72720625      -0.00000401      -0.00000302       0.00000309
H        2.06705921      25.17814330       7.44293393       0.00000866      -0.00000380       0.00000244
H        9.29546006      24.74751291       9.88327013       0.00000683       0.00000488      -0.00000821
H        8.40598773      17.00691904       9.21845338       0.00000555      -0.00000546       0.00000052
H        2.09690322      25.24367806       1.08723494       0.00000304      -0.00000612       0.00000296
H        3.00458855      17.49894676       0.43454149       0.00000164      -0.00000162      -0.00000081
H        8.40209832      23.33463807       9.22892501       0.00000246       0.00000618       0.00000274
H        9.32722864      22.78790921       1.49280313      -0.00000261       0.00000068      -0.00000080
H        2.98751514      25.87655328       2.51155936       0.00000286       0.00000089       0.00000684
H        2.97084796      23.77107572       6.79051667       0.00000221      -0.00000835       0.00000683
H       10.19927475      23.34041985       9.23093918       0.00000190       0.00000845      -0.00000354
H       10.20314933      17.00284779       9.23050552      -0.00000245      -0.00000909      -0.00000352
H        3.89406421      25.23967761       1.09921034       0.00000219       0.00000035       0.00000425
H        2.13118460      23.32971283       9.01258129      -0.00000529       0.00000174      -0.00000278
H        8.49237455      18.91251194       1.30390706       0.00000750      -0.00000099       0.00000300
H        9.31358139      19.21087798       8.73516127      -0.00001025      -0.00001604       0.00000152
H        2.97196471      16.61784157       7.89594642       0.00000121      -0.00000371       0.00000083
H        2.96524697      24.66290481       9.64304148       0.00000034       0.00000869      -0.00000284
H        9.33489600      17.58364835       0.67479531       0.00000329       0.00000614      -0.00000130
H        8.48130968      18.60047123       7.39177465      -0.00001326      -0.00000246      -0.00000054
H        2.12741258      17.23212528       9.23032813       0.00000415       0.00000076      -0.00000706
H        3.80775830      23.33407129       9.01385394      -0.00000318       0.00001169       0.00000344
H        9.30123923      23.85563791       7.03075946      -0.00000431       0.00000555      -0.00000185
H       10.15815815      18.59658988       7.40080073       0.00000938      -0.00000772      -0.00001381
H        3.80426015      17.22829032       9.23929976      -0.00000196       0.00000508       0.00000170
C        3.00127604      18.29300532       1.18758880      -0.00000498       0.00000518      -0.00000138
C        9.29882016      23.95352531       9.13014830       0.00000195      -0.00000388       0.00000196
C        9.32360227      23.53061160       2.29654975      -0.00000231      -0.00000053      -0.00000111
C        2.99112834      25.13382194       1.70783986      -0.00000294       0.00000072       0.00000417