96
Lattice="15.883274852704567 -0.1324334276934708 0.004608059120389071 -0.0769647924750794 15.203122014631758 -0.016286663203828104 -0.23802955791096808 0.00408083178044577 8.722823787283836" Properties=species:S:1:pos:R:3:forces:R:3 energy=-457.54932259488163 stress="0.002840907833712597 -0.0002989674186696949 0.0005002830926845472 -0.0002989674186696949 0.0011480656267101287 0.00010024481750907816 0.0005002830926845472 0.00010024481750907816 0.001082857662259959" free_energy=-457.54932259488163 pbc="T T T"
H        3.02974789       4.19729754       6.73771438      -0.00000775      -0.00003297       0.00001052
H        2.99094996       1.93606456       6.22307501      -0.00000796      -0.00002119      -0.00003203
H        2.90372952       1.42838839       7.89827536      -0.00000019      -0.00002845       0.00000274
H        2.86800145       3.31735676       9.60173243       0.00000816      -0.00000627       0.00001570
H        2.96376872       4.92825726       8.95015066      -0.00000467      -0.00002155      -0.00000528
H        6.66263603       6.97577026       2.60103378       0.00000716       0.00001900      -0.00001099
H        5.15158100       5.75058092       3.89631123       0.00001979      -0.00000078       0.00000167
H        6.31168711       4.48717998       4.23457196       0.00000309       0.00001538      -0.00001748
H        8.61896828       4.81548246       3.28582819       0.00000955      -0.00002829       0.00002682
H        8.86029428       6.24578540       2.33293940      -0.00001343      -0.00000613       0.00001303
C        2.97354302       3.45889491       7.54539186      -0.00000006      -0.00006731      -0.00003956
C        6.97665408       6.03879471       3.06711122       0.00002854       0.00000602      -0.00003326
N        2.95420084       2.18983390       7.21008560       0.00001028       0.00007334       0.00002003
N        2.92456077       3.91770264       8.77400502       0.00002031       0.00007147       0.00002314
N        6.08531514       5.36405816       3.75594501      -0.00004063      -0.00002707       0.00002105
N        8.22539447       5.66858423       2.88879013      -0.00003430       0.00001354       0.00000600
Pb       5.10101104       0.61927610       3.18022860      -0.00000813       0.00000160      -0.00000010
Pb       1.13657876       0.37379568       3.26427229      -0.00001059       0.00000005      -0.00000490
I        7.12452508       2.04668106       5.37450252       0.00000588      -0.00000205       0.00000530
I        2.97856590       6.82446426       5.45943623       0.00000732       0.00001389       0.00001257
I        6.75661428       2.20166868       9.81856126      -0.00001502       0.00000770       0.00000570
I        3.17129218       7.30102463       9.97985760       0.00000279       0.00000202      -0.00000048
I        6.97156407       5.61322919       7.64792280       0.00000123      -0.00001110       0.00000401
I        2.97801748       3.03609230       3.57192888       0.00000714      -0.00000207       0.00001019
H        3.79124046      11.02667825       4.44626162       0.00000728      -0.00002089      -0.00002185
H        1.63453460      10.18672071       4.24271019      -0.00000131      -0.00000118      -0.00000505
H        1.65418506      10.20973116       2.50932302       0.00001095      -0.00000136      -0.00001033
H        3.82689569      10.99539167       1.44375402      -0.00000731      -0.00000062       0.00001740
H        5.06529168      11.52233157       2.55915065       0.00003083       0.00000100      -0.00001495
H        7.02758053      12.54386789       8.51771077       0.00000215       0.00000567      -0.00000815
H        7.21887646      11.49381548       6.43540816       0.00000691      -0.00000122      -0.00001583
H        7.21153535      12.99136248       5.55568891      -0.00000735       0.00000360      -0.00000267
H        7.00856669      15.10445368       6.94301034      -0.00000106       0.00001766       0.00000165
H       16.66533671      12.34117777       7.11550686      -0.00002637      -0.00000002       0.00000710
C        3.37810282      10.85434086       3.44919572      -0.00004530      -0.00000012       0.00003700
C        7.06033001      13.15081732       7.60706787       0.00000992      -0.00001581      -0.00003172
N        2.15028119      10.39013385       3.38679527       0.00001009       0.00000710       0.00000373
N        4.13796111      11.12071241       2.41304432      -0.00003020       0.00000743      -0.00004724
N        7.18673127      12.51698027       6.46489042      -0.00001521       0.00000130       0.00002676
N        6.97545080      14.45445371       7.73723932      -0.00000079       0.00001651       0.00000586
Pb       5.08767571       8.20976585       7.49619496       0.00000463      -0.00000951       0.00001555
Pb       1.12586934       8.30659776       7.66712884       0.00000453       0.00000387       0.00000717
I        7.16403349       9.62709555       9.52697237       0.00000133       0.00000186       0.00000445
I        2.80185604      14.63884937       9.62062800      -0.00000127       0.00000314       0.00001242
I        7.02273466       9.21099534       5.09261246       0.00000450       0.00000447      -0.00002066
I        3.19440402      14.23937273       5.27602124       0.00001748       0.00000192       0.00000152
I        7.13261598      13.33164306       2.88792007      -0.00000435      -0.00001185       0.00001208
I        3.10412375      10.86729600       7.46733250      -0.00000061       0.00000029      -0.00000938
H       10.64839660       3.42116344       6.28870364       0.00000424       0.00001002      -0.00002957
H       12.74775156       2.51221591       6.75691327       0.00002431      -0.00001507      -0.00001975
H       12.51594536       2.56804236       8.47136210       0.00000673      -0.00000984       0.00002728
H       10.30257075       3.46809711       9.26769374      -0.00000747      -0.00000527      -0.00002770
H        9.18719985       3.99562592       8.02402137       0.00002266      -0.00002077       0.00002647
H       15.25459180       4.49770499       2.42276188      -0.00001738       0.00001447       0.00002597
H       15.19723580       3.82488997       4.65186198       0.00000742      -0.00000022      -0.00002329
H       15.15302598       5.45384695       5.26562124       0.00000074      -0.00001403       0.00004059
H       15.16695768       7.29263412       3.51488164       0.00000872       0.00001272       0.00001363
H       15.23158321       6.73882625       1.84842052       0.00001160       0.00000128      -0.00000798
C       10.94294822       3.25697808       7.32831442       0.00004626      -0.00002780       0.00001416
C       15.21815686       5.25650797       3.21201104       0.00000177      -0.00005663       0.00001114
N       12.13809582       2.75278046       7.54010708      -0.00007498       0.00002130      -0.00003665
N       10.08416612       3.57176222       8.27058017      -0.00002187       0.00002313       0.00005320
N       15.18706827       4.83174873       4.45347253       0.00000387       0.00001474      -0.00004246
N       15.20763148       6.51602272       2.84372578       0.00000800       0.00002423      -0.00001438
Pb      13.04957595       0.53772966       3.24422100      -0.00000609       0.00000251       0.00000963
Pb       9.08720095       0.81237817       3.12609975       0.00000821      -0.00000159       0.00000063
I       15.04483673       1.44543668       5.63883573      -0.00000888      -0.00000396      -0.00001011
I       11.21110253       6.60339752       5.49686002       0.00000808       0.00000508       0.00000393
I       14.90109128       1.81931735       9.88314332       0.00000921       0.00000640       0.00002338
I       10.93338263       7.10393838       9.87431075      -0.00000134       0.00000210      -0.00001664
I       15.02969621       5.61958469       7.99227333      -0.00000692       0.00000496      -0.00000167
I       11.15751669       3.26166484       3.20141090      -0.00001376       0.00001155      -0.00000066
H       10.91444311      11.82468192       4.01629291      -0.00000575       0.00001477       0.00001846
H       10.84882905      12.45953620       1.77549559       0.00000889      -0.00001208       0.00000341
H       10.90951967      10.82103542       1.18833774       0.00001162       0.00000675       0.00000373
H       11.04104452       9.01635932       2.96500365       0.00000747      -0.00000456      -0.00000799
H       11.04582018       9.59765621       4.62438484       0.00000668      -0.00000362      -0.00000599
H       15.21191254      12.91555862       8.85682628       0.00000986       0.00000555      -0.00002118
H       13.10439150      13.80846044       8.39587026       0.00001369       0.00000900      -0.00000210
H       13.32845270      13.74258862       6.67963867      -0.00001994      -0.00001620      -0.00003748
H       15.53480329      12.84569808       5.87633264       0.00000105       0.00000930      -0.00000887
H        6.88635502      14.88272405       8.65957729       0.00000376       0.00001230       0.00000164
C       10.93723729      11.05405809       3.23812965      -0.00001324      -0.00005914      -0.00001141
C       14.91007645      13.07229144       7.81824515      -0.00003214       0.00002926       0.00008982
N       10.88420687      11.45681859       1.98979219       0.00001130       0.00002988      -0.00000811
N       11.01096893       9.80266557       3.62515467      -0.00002316       0.00004123       0.00001899
N       13.71064847      13.56807885       7.61039824       0.00005074      -0.00002476      -0.00000637
N       15.76341203      12.75349040       6.87210216       0.00001549      -0.00001039      -0.00003336
Pb      13.01003073       8.15251784       7.59995283      -0.00001726       0.00000316      -0.00001248
Pb       9.01892955       8.07291981       7.39660139       0.00001087      -0.00000966       0.00001099
I       15.03976115       9.72034756       9.68305769      -0.00000080       0.00000708      -0.00001094
I       10.76353689      14.84536903       9.50946157      -0.00000775       0.00000418      -0.00001135
I       15.03486253       9.23340120       5.30433409      -0.00000030       0.00000520       0.00000439
I       10.83781376      14.50301884       5.30755430       0.00000146      -0.00000325       0.00000968
I       14.72507330      13.05572349       3.24075962      -0.00000616      -0.00001685      -0.00000488
I       11.01557646      10.67318928       7.18687101       0.00000250       0.00000154       0.00000299
