40
Lattice="8.446639442253485 -0.1747635499762466 0.02919943830742628 0.2881758438629653 13.94133597346306 0.08212856960615805 -0.05925891291515133 -0.09321042408464457 16.045522233754028" Properties=species:S:1:pos:R:3:forces:R:3:energies:R:1 energy=-123.40062121530212 stress="4.131905486188656e-07 4.140931920059601e-07 -1.8784517080789257e-06 4.140931920059601e-07 -3.538300165757884e-07 -5.79058464775073e-07 -1.8784517080789257e-06 -5.79058464775073e-07 -6.471186584698364e-07" free_energy=-123.40062121530212 pbc="T T T"
Cs       4.00500786       0.66888735       2.91579832       0.00002989      -0.00003913      -0.00016995      -2.29959690
Cs       8.26682737       3.13946651       6.80390914       0.00016387       0.00050450       0.00021101      -2.29957448
Cs      -0.07344835       7.72781538       2.78936825      -0.00009452       0.00008614      -0.00001961      -2.29961845
Cs       4.18825705      10.19733513       6.98374487       0.00002297      -0.00010187      -0.00022165      -2.29958807
Cs       3.97540649       0.62245108      10.93857296      -0.00005293       0.00002685       0.00012558      -2.29957887
Cs       8.23695291       3.09363176      14.82699413       0.00007086      -0.00024767      -0.00022112      -2.29962026
Cs      -0.10253427       7.68145835      10.81198475      -0.00007667      -0.00025308      -0.00000852      -2.29959980
Cs       4.15919059      10.15031824      15.00628568      -0.00017573       0.00018931       0.00008279      -2.29962633
Pb       8.46060276      12.31611527       5.65172376       0.00005704      -0.00010148      -0.00022456      -3.49019914
Pb       8.44684426      12.28585457       9.66327008       0.00023415      -0.00030009       0.00032220      -3.49016667
Pb       4.09869813       5.43404368       4.15027715      -0.00034498       0.00063259       0.00016942      -3.49024310
Pb       4.11469763       5.46449345       0.13892111      -0.00015635       0.00002361      -0.00056501      -3.49023753
Pb       8.43197175      12.26935317      13.67440737       0.00029002       0.00008525       0.00087828      -3.49031738
Pb       8.41819416      12.23912218      17.68598202      -0.00032556       0.00014290      -0.00073028      -3.49033291
Pb       4.06995942       5.38768267      12.17285431       0.00006043      -0.00036066       0.00017295      -3.49030339
Pb       4.08529265       5.41768703       8.16148757      -0.00015941      -0.00001078      -0.00006329      -3.49030113
I        1.92308518      -0.20553870       7.65102260       0.00070783      -0.00000851       0.00065642      -3.21629068
I        1.90137675       4.19023907       2.03757696       0.00014158      -0.00009230       0.00009291      -3.21579422
I        6.01364503      -0.29113810       7.66693727      -0.00057069       0.00049257      -0.00026349      -3.21593224
I        6.25778152       4.09913588       2.05507796       0.00025478      -0.00001598      -0.00039074      -3.21629675
I        4.04022569       2.90093214       6.03415252       0.00019299      -0.00013478      -0.00007138      -3.20330647
I        8.23412552       0.90791522       3.68550442      -0.00027826      -0.00050686       0.00019802      -3.20328939
I        6.29762658       6.68683009       6.07980053      -0.00014808      -0.00020883      -0.00007754      -3.21577497
I        6.26302813      11.06422089       3.71971047      -0.00003248      -0.00032019       0.00042479      -3.21611221
I        1.94107078       6.77672067       6.06637996      -0.00007511       0.00007795      -0.00042846      -3.21603960
I        2.17287708      11.14769602       3.70896735       0.00050169      -0.00019558       0.00004344      -3.21585749
I        8.40094059       9.77492148       7.74952243       0.00005001      -0.00002261      -0.00023807      -3.20329199
I        4.15893738       7.97539850       2.05258674      -0.00001617       0.00025622       0.00027396      -3.20325550
I        1.89452801      -0.25168462      15.67415681       0.00003308      -0.00019402      -0.00003564      -3.21600530
I        1.87298960       4.14260258      10.06082795      -0.00023040      -0.00002046      -0.00001924      -3.21579410
I        5.98484929      -0.33811758      15.68942055      -0.00021522       0.00010160      -0.00001609      -3.21577428
I        6.22947857       4.05331069      10.07683301      -0.00002580      -0.00011988       0.00044154      -3.21605705
I        4.01253150       2.85459585      14.05712283      -0.00020674      -0.00003729      -0.00037776      -3.20322450
I        8.20313505       0.86121965      11.70850590      -0.00004457       0.00011402      -0.00006297      -3.20327493
I        6.26827012       6.64060538      14.10316595      -0.00016093       0.00012488       0.00010042      -3.21580672
I        6.23413774      11.01629600      11.74383814       0.00033051       0.00023460      -0.00035515      -3.21614662
I        1.91147929       6.72972633      14.08794985       0.00079667      -0.00032471       0.00028930      -3.21608680
I        2.14431170      11.10192392      11.73080911      -0.00018576      -0.00000390      -0.00048146      -3.21578570
I        8.37388800       9.72809580      15.77209113      -0.00028125       0.00013685       0.00035572      -3.20321469
I        4.12946669       7.92869680      10.07508443      -0.00008072       0.00039080       0.00020325      -3.20330464
