40
Lattice="9.568181641412153 -0.029930202120730835 0.0075188151796647396 0.032854438927632575 10.523079170719853 -0.027676648314287372 -0.014010362609593471 0.04655050196793157 17.75686389433346" Properties=species:S:1:pos:R:3:forces:R:3:energies:R:1 energy=-124.37140040041005 stress="-3.7792201361212655e-07 -1.6935578485693342e-07 -1.305196337644257e-06 -1.6935578485693342e-07 -3.568653688436304e-07 -9.217835403233522e-08 -1.305196337644257e-06 -9.217835403233522e-08 -1.744598510827158e-06" free_energy=-124.37140040041005 pbc="T T T"
Cs       4.48317826       1.95350415       6.76699897      -0.00005904       0.00001268      -0.00003630      -2.36719288
Cs       2.11344362      10.76024399      12.85401322      -0.00000208       0.00001551       0.00026040      -2.36723743
Cs       4.50141599       7.20752985       3.98668387      -0.00001404       0.00000168       0.00019560      -2.36720238
Cs       2.09503964       5.50629224      15.63415308      -0.00015352      -0.00015755       0.00000607      -2.36726602
Cs       9.26707275       1.93824046       6.77069415       0.00007803       0.00004316      -0.00000008      -2.36720407
Cs       6.89772070      10.74562241      12.85823653       0.00008000      -0.00012937      -0.00014829      -2.36725752
Cs       9.28564089       7.19279630       3.99066143      -0.00005759       0.00004565      -0.00001939      -2.36720919
Cs       6.87866259       5.49094262      15.63815780       0.00005243       0.00007739      -0.00017816      -2.36725407
Pb       2.09771398       2.77460310       2.02259171       0.00004358       0.00017672      -0.00037336      -3.45926816
Pb       4.49993017       9.93907762      17.59864102      -0.00013251      -0.00004501      -0.00026825      -3.45932046
Pb       2.10777379       8.05421462       8.72310531      -0.00007833       0.00005076       0.00060869      -3.45929578
Pb       4.48738407       4.65976858      10.89761651       0.00001514      -0.00020267       0.00078584      -3.45930660
Pb       6.88196328       2.76017932       2.02631399       0.00001601      -0.00010006      -0.00049496      -3.45924551
Pb       9.28385786       9.92373584      17.60249247       0.00023429      -0.00000319      -0.00020984      -3.45927915
Pb       6.89176445       8.03876984       8.72701356      -0.00012868       0.00028852       0.00007174      -3.45930342
Pb       9.27162236       4.64513234      10.90193738      -0.00007286       0.00001680       0.00009382      -3.45931910
I        4.49697412       4.64274896       0.90733469      -0.00001834       0.00007064       0.00008561      -3.24578859
I        2.11581595       8.02431902       0.95691324       0.00004010       0.00009032       0.00003048      -3.24577346
I        4.50436618       9.92806336       9.83224288       0.00006379      -0.00012528      -0.00015784      -3.24575581
I        2.08961232       2.78587474       9.78908256      -0.00005611      -0.00004073      -0.00018838      -3.24583741
I        2.08205592       1.46152679      16.69442253       0.00000438       0.00002502       0.00005113      -3.35703142
I        4.51600043      11.25214338       2.92667007       0.00008390       0.00004105       0.00024058      -3.35711129
I        2.10114813       6.71083795      11.81528298      -0.00004752      -0.00037458      -0.00018698      -3.35708507
I        4.49354404       6.00326909       7.80562538       0.00018457      -0.00005991       0.00016810      -3.35716885
I        2.09946600       4.24357334       4.75185907       0.00016420       0.00007053       0.00017349      -3.11701492
I        4.49695699       8.47011680      14.86927649      -0.00000474       0.00014876       0.00004736      -3.11694684
I        2.11523671       9.50848114       5.98610905      -0.00011768       0.00040730      -0.00045755      -3.11709196
I        4.48107676       3.20506342      13.63481849       0.00013703       0.00037118      -0.00036564      -3.11695377
I        9.28152507       4.62801013       0.91099817      -0.00015213      -0.00002492       0.00019503      -3.24577950
I        6.89946986       8.00929335       0.96074832       0.00030845      -0.00021123      -0.00001653      -3.24582821
I        9.28796544       9.91298189       9.83585894       0.00014270      -0.00021290       0.00000199      -3.24577413
I        6.87424533       2.77105350       9.79275451      -0.00029801       0.00016778      -0.00000023      -3.24579025
I        6.86666810       1.44671070      16.69820563      -0.00026738       0.00005739       0.00014308      -3.35711660
I        9.29950378      11.23718589       2.93038809       0.00033192      -0.00029118       0.00036570      -3.35718720
I        6.88461883       6.69565426      11.81914975       0.00020746      -0.00023252      -0.00008883      -3.35704991
I        9.27832849       5.98835773       7.80972320      -0.00029565      -0.00005356      -0.00008364      -3.35710089
I        6.88405147       4.22895764       4.75561350      -0.00023637       0.00005010       0.00039478      -3.11709479
I        9.28092729       8.45480829      14.87316797      -0.00010960       0.00011069      -0.00020575      -3.11698697
I        6.89895189       9.49342252       5.99005248       0.00008389      -0.00000486      -0.00023619      -3.11700547
I        9.26548516       3.19054556      13.63896176       0.00003031      -0.00007007      -0.00020332      -3.11696537
