40
Lattice="12.322836622492032 0.2651812711233073 0.0899059240754377 -0.26734709248831307 12.49627694631569 -0.17744521406478403 0.9220840077251645 0.19407438531210314 12.289685177752117" Properties=species:S:1:pos:R:3:forces:R:3:energies:R:1 energy=-123.20447574847448 stress="1.0628602545526425e-06 6.615950242669815e-07 3.3334209341546925e-07 6.615950242669815e-07 -1.198027286381293e-07 -5.467521790861803e-07 3.3334209341546925e-07 -5.467521790861803e-07 -1.0412185567909567e-06" free_energy=-123.20447574847448 pbc="T T T"
Cs      10.68817047      13.08056238       5.55769225      -0.00001872       0.00002782       0.00052081      -2.38145065
Cs       3.46186700       6.65775078       4.48369338       0.00049856       0.00021528       0.00013362      -2.38134314
Cs       3.49662164       6.75267709      11.08409237      -0.00000101      -0.00006307      -0.00011414      -2.38131516
Cs      10.72202458      13.17463498      12.16103017      -0.00028956      -0.00008502      -0.00036614      -2.38135852
Cs       4.98669133      13.04484118      11.65907321       0.00011085       0.00020468       0.00001593      -2.38122715
Cs      10.08575557       6.88707650      10.67212508      -0.00032733       0.00031072       0.00032299      -2.38135239
Cs       9.19663478       6.78866257       4.98645153      -0.00001280      -0.00023949      -0.00018733      -2.38143672
Cs       4.09922286      12.94495756       5.97065919      -0.00011349      -0.00011226       0.00007306      -2.38125938
Pb       1.06410390       3.53513072       8.36451904       0.00005455      -0.00026785       0.00025097      -3.28698111
Pb       7.09171332       9.91816910       8.32194175       0.00019518      -0.00044890      -0.00036406      -3.28709577
Pb       7.22523686       3.66926511       8.41078153       0.00025323      -0.00022459       0.00023035      -3.28712000
Pb       0.93083195       9.78390292       8.27715196      -0.00012273      -0.00034866       0.00020407      -3.28696805
Pb       0.60364938       3.43992080       2.22022279      -0.00021828      -0.00022783       0.00056716      -3.28705444
Pb       6.63094451       9.81851791       2.17731582       0.00006960       0.00005240       0.00011110      -3.28726171
Pb       6.76465089       3.57076264       2.26522994       0.00019652      -0.00002926       0.00000997      -3.28728092
Pb       0.46940172       9.68724672       2.13181564       0.00006078      -0.00020528      -0.00047241      -3.28708507
I        4.15824828       3.11598659       9.19867579       0.00027964       0.00013077      -0.00044238      -3.24423397
I       10.18072585       9.47506341       7.54897948      -0.00053400      -0.00007024      -0.00032674      -3.24419792
I       10.02634773      16.71610058       7.44549281      -0.00020260       0.00037945      -0.00056356      -3.24580757
I        4.00259060      10.35973613       9.09599624       0.00025263      -0.00005469      -0.00006040      -3.24583341
I        7.49928343      13.04400623       7.74060674      -0.00017574      -0.00006009       0.00010374      -3.24206052
I       13.82124435       6.92807616       7.90214789       0.00023516       0.00025807      -0.00013282      -3.24227427
I        6.68571343       6.79082197       8.90205310      -0.00004590      -0.00001237      -0.00025438      -3.24214600
I        0.36123080      12.90409771       8.74179224      -0.00013365       0.00001503      -0.00028883      -3.24220014
I        9.59168175      15.64824690       2.92047708      -0.00014034       0.00007552      -0.00002217      -3.24412179
I        3.55828712       9.24314740       1.35822741      -0.00052098       0.00039456       0.00049035      -3.24419609
I        4.59356505       4.18646121      13.72244472       0.00009308      -0.00010505      -0.00018735      -3.24579948
I       10.62502115      10.58913626      15.28488851       0.00020963      -0.00013025       0.00038229      -3.24579109
I        8.12424591       6.89243256      14.00193811      -0.00015236       0.00035366       0.00009828      -3.24198499
I        1.79873823      13.00799618      13.84263522      -0.00000925       0.00000767      -0.00013751      -3.24223476
I        6.06097754      12.93955387       2.64172565       0.00045845      -0.00036481      -0.00016425      -3.24198597
I       12.38498733       6.82588137       2.80319992      -0.00011755       0.00024855      -0.00020006      -3.24210718
I       12.80661886       4.33059314      11.57206773      -0.00036931      -0.00028824      -0.00015092      -3.24430815
I        8.11278211      10.47923845      11.33573296       0.00038791       0.00008006       0.00028885      -3.24424560
I        1.37898874      15.50170495       5.07016348       0.00009360       0.00030860       0.00016351      -3.24576128
I        6.07031771       9.35365406       5.30884706      -0.00014422      -0.00009427      -0.00005209      -3.24564563
I        6.18354499       4.10105479       5.38244620      -0.00028045      -0.00001509       0.00022813      -3.24418992
I       13.81337204      10.51421318       5.23576590       0.00040945       0.00003939      -0.00004780      -3.24426287
I        8.00112038      15.73109514      11.26026745       0.00004053       0.00010353      -0.00009286      -3.24571200
I        0.37020352       9.31778995      11.40850975       0.00003096       0.00024155       0.00043300      -3.24578494
