40
Lattice="15.82698092071837 -0.063865077431778 0.08319086292993337 0.022604544149267842 14.42260876202848 0.3691811689187753 0.016120384917261452 -0.21933452380922763 8.499206269778437" Properties=species:S:1:pos:R:3:forces:R:3 energy=-123.39491929760437 stress="0.0009845268143131277 -6.532085609061229e-05 8.594355880931303e-05 -6.532085609061229e-05 0.002791125320573178 2.6397003302608006e-05 8.594355880931303e-05 2.6397003302608006e-05 0.0017334150497578282" free_energy=-123.39491929760437 pbc="T T T"
Cs       5.36168607       0.61363855       6.37080588      -0.00000902      -0.00001811       0.00000504
Cs       9.20123113       3.06790612      10.74095875      -0.00001599       0.00001786       0.00001753
Cs       5.23370400       7.94600072       2.33877533      -0.00001284       0.00000320      -0.00000531
Cs       9.33569479      10.37751015       6.64302185      -0.00000044      -0.00001757       0.00000515
Cs      13.27520652       0.58162776       6.41238666      -0.00000873       0.00000659       0.00000054
Cs      17.11466341       3.03600681      10.78263078       0.00001047       0.00000914       0.00000013
Cs      13.14716324       7.91406438       2.38035165      -0.00000235       0.00001007       0.00000950
Cs      17.24919727      10.34563103       6.68470887       0.00000457      -0.00001708      -0.00002624
Pb       7.96205538      12.60017427      10.96121482      -0.00000491       0.00001074       0.00000049
Pb      11.91790014      12.58995198      10.97110481      -0.00002260       0.00000038      -0.00003612
Pb       6.62342050       5.50399359       6.51979498      -0.00003285       0.00001200       0.00001340
Pb       2.66755546       5.51420372       6.50994704       0.00006132       0.00001733      -0.00000001
Pb      15.87553352      12.56826283      11.00280516       0.00005796      -0.00001102      -0.00002022
Pb      19.83140219      12.55801192      11.01271354      -0.00002979       0.00003753      -0.00004665
Pb      14.53691484       5.47206908       6.56140596      -0.00005276      -0.00000985      -0.00000226
Pb      10.58106368       5.48225177       6.55146921       0.00001539       0.00001972       0.00003099
I        9.96893301      -0.45245174       4.38748690      -0.00000651      -0.00000241       0.00000139
I        4.57781708       4.35335643       4.22515715      -0.00002959       0.00000257      -0.00000399
I        9.99125273      -0.35471393       8.50075310      -0.00000209      -0.00000906       0.00002360
I        4.57163540       4.03627136       8.61108364      -0.00001809      -0.00002226       0.00000522
I        8.50942826       2.94263485       6.34884330       0.00000654      -0.00000694       0.00000465
I        6.05342958       0.73892273      10.76296433       0.00001376      -0.00001465      -0.00001092
I        8.52114187       6.65528682       8.81759059       0.00000350       0.00001301       0.00002585
I        6.06436986      11.44884601       8.66341130      -0.00000470       0.00000408       0.00000274
I        8.55836841       6.95954522       4.42807641       0.00002660       0.00001101      -0.00001605
I        6.01096219      11.36394503       4.55373200       0.00000831       0.00001527      -0.00000178
I       10.01584161      10.04310998      10.76753688       0.00000726      -0.00000022      -0.00001910
I        4.56960439       8.06105228       6.71354053       0.00000400      -0.00002382       0.00000190
I       17.88239568      -0.48434310       4.42905782       0.00001109      -0.00000900       0.00001257
I       12.49135004       4.32150162       4.26666574       0.00000632      -0.00000668      -0.00001189
I       17.90476033      -0.38665419       8.54233494      -0.00000320      -0.00001457       0.00004945
I       12.48508929       4.00421279       8.65256899      -0.00000667       0.00001153       0.00000403
I       16.42290958       2.91070708       6.39049428       0.00002252      -0.00001582      -0.00000386
I       13.96688914       0.70699494      10.80455818       0.00003238      -0.00001051       0.00000055
I       16.43457959       6.62335367       8.85924448       0.00001913       0.00001036       0.00003367
I       13.97785645      11.41697339       8.70497032      -0.00001027      -0.00002783       0.00000002
I       16.47188649       6.92767281       4.46975395       0.00000447      -0.00000160      -0.00004566
I       13.92446136      11.33199696       4.59528946      -0.00000073      -0.00000744       0.00002490
I       17.92934538      10.01118339      10.80913771      -0.00002289       0.00001966      -0.00001079
I       12.48310784       8.02910125       6.75520783      -0.00001861       0.00001440      -0.00001244
