96
Lattice="16.012501366688056 -0.16915490165020436 0.11686457400493676 0.125863522486991 15.453647376591423 0.1638484766817915 -0.18258188318142257 -0.06395806479543718 8.823134359588456" Properties=species:S:1:pos:R:3:forces:R:3 energy=-457.5176337488889 stress="0.0030974445970803886 -4.505925167801844e-05 1.8899438733415988e-06 -4.505925167801844e-05 0.0012291929702073108 9.017502246221439e-05 1.8899438733415988e-06 9.017502246221439e-05 0.0016978734397089777" free_energy=-457.5176337488889 pbc="T T T"
H        2.89060665       2.01228778       8.20916380      -0.00000190       0.00000504      -0.00000246
H        2.70017116       2.63642284       5.98014390       0.00001372      -0.00000269      -0.00001501
H        3.02307661       1.03758051       5.37496438       0.00000907      -0.00001146      -0.00000846
H        3.41414165      -0.74772034       7.15302800      -0.00000543      -0.00001830      -0.00000464
H        3.36462541      -0.17067933       8.81000913      -0.00002431       0.00000475       0.00001433
H        6.93005395       2.36374656       3.84711215       0.00000220       0.00000909       0.00000431
H        7.24974440       1.79606502       1.61813184       0.00000095      -0.00002178       0.00000036
H        6.94978397       3.40697608       1.03496045       0.00000037      -0.00000123      -0.00001644
H        6.44353470       5.14463114       2.83042851      -0.00000687       0.00000909       0.00000709
H        6.40240165       4.52615467       4.47364098       0.00000644       0.00000278      -0.00002720
C        3.02551132       1.25562147       7.42836863       0.00000644      -0.00002123       0.00001258
C        6.83184018       3.13843343       3.07873409      -0.00000443       0.00000365       0.00002187
N        2.89359558       1.65113237       6.18320772      -0.00000095       0.00001197       0.00002685
N        3.29999393       0.03050151       7.81154566      -0.00001234       0.00003378      -0.00001327
N        7.04306237       2.77562175       1.83426496      -0.00000284       0.00002002      -0.00000181
N        6.52081920       4.35050834       3.47507651       0.00000048      -0.00000240       0.00000233
Pb       5.49492054      -1.64944880       2.96443385       0.00000318      -0.00001105       0.00000860
Pb       1.49148880      -1.61760084       2.89974767       0.00000622      -0.00000110      -0.00000385
I        7.53228805      -0.18069057       5.01928923       0.00000538       0.00000619      -0.00001696
I        2.39420926       5.08461048       5.02758977      -0.00000260      -0.00000472      -0.00000500
I        7.34488374      -0.70846487       9.41994132       0.00000099       0.00000509       0.00000554
I        2.32551386       4.54115015       9.44118535       0.00000109      -0.00000979      -0.00000897
I        6.37708362       3.48450936       7.09326053      -0.00000415      -0.00000953       0.00000346
I        3.51481941       0.91551070       2.63122497      -0.00000147       0.00000837      -0.00000501
H        3.05260327       9.78740030       2.19806938      -0.00000397      -0.00001032       0.00000517
H        2.54761377       7.62372248       1.55589045      -0.00000539      -0.00000372       0.00000372
H        2.48528134       7.01666928       3.20225424       0.00000452      -0.00000958       0.00001543
H        2.90060080       8.76371407       5.01378686       0.00001784      -0.00000316      -0.00000140
H        3.24809068      10.36785050       4.43818604      -0.00001638       0.00000021       0.00001022
H        7.02949918      10.07479016       6.65622101      -0.00000136       0.00000515       0.00002055
H        6.70325829       9.46846333       8.87434077      -0.00001477      -0.00000820       0.00000233
H        7.02442115      11.06425003       9.48823520       0.00000688      -0.00001338       0.00000086
H        7.55281783      12.82896962       7.72631020      -0.00000353      -0.00000862      -0.00000134
H       15.59124544      12.15797173       6.13018914       0.00000503      -0.00000291      -0.00003140
C        2.90488862       9.01848283       2.96446038      -0.00000662       0.00000724       0.00000342
C        7.13807083      10.83300006       7.43954214      -0.00000085      -0.00000430       0.00001646
N        2.61307653       7.80489983       2.55823214       0.00000011       0.00000185      -0.00002116
N        3.04001073       9.38962788       4.21682050       0.00000203       0.00001736      -0.00001258
N        6.92319827      10.44927119       8.67707056       0.00000438      -0.00000255       0.00000810
N        7.46434374      12.04850042       7.06657037       0.00000030       0.00000226      -0.00000023
Pb       4.39177200       6.04461939       7.44284655      -0.00000273       0.00000046      -0.00000881
Pb       0.38855087       6.09802218       7.38026852      -0.00001622      -0.00000587      -0.00000182
I        6.38193786       7.01480971       9.82509550      -0.00000543       0.00001014      -0.00000283
I        3.47151399      12.26297132       9.85980549       0.00001162       0.00000350      -0.00000599
I        6.39011126       7.56127366       5.41195233       0.00000556       0.00000754      -0.00000954
I        3.59225914      12.79098959       5.46118458       0.00000603       0.00000378       0.00000338
I        7.58570594      11.22900533       3.42926383       0.00000429       0.00001315      -0.00000289
I        2.42077162       8.61560415       7.75861676       0.00000469      -0.00000475       0.00002136
H       10.89670904       1.92756481       8.26763242       0.00001362      -0.00001273      -0.00002529
H       11.37042919      -0.25551928       8.86833617      -0.00000364       0.00001298      -0.00000021
H       11.42008190      -0.83240990       7.21131384       0.00000418      -0.00001326       0.00000531
H       11.02943303       0.95309380       5.43336101      -0.00000669      -0.00001633      -0.00002828
H       10.70660309       2.55191232       6.03863861       0.00000257       0.00000070      -0.00000431
H       14.93625584       2.27927477       3.90554871      -0.00000124       0.00001570      -0.00000478
H       15.25585590       1.71146030       1.67659116      -0.00000046       0.00002521       0.00000497
H       14.95593782       3.32234910       1.09333549      -0.00000742      -0.00000653       0.00001280
H       14.44980691       5.06012699       2.88873652      -0.00000325       0.00003211      -0.00001496
H       14.40871106       4.44174141       4.53197812      -0.00000257       0.00000920       0.00002431
C       11.03163147       1.17095252       7.48678652       0.00000820      -0.00000987       0.00005506
C       14.83804505       3.05392514       3.13713289      -0.00000357      -0.00000514       0.00000981
N       11.30592021      -0.05423495       7.86988668      -0.00000369       0.00002738      -0.00001267
N       10.89993665       1.56659251       6.24164392      -0.00001350       0.00001174      -0.00000589
N       15.04920293       2.69103499       1.89267549       0.00000793      -0.00000906      -0.00001344
N       14.52708843       4.26603410       3.53342184       0.00000153      -0.00003909      -0.00001029
Pb      13.50117113      -1.73408517       3.02281164      -0.00000666      -0.00000104       0.00000640
Pb       9.49773060      -1.70230629       2.95821292       0.00001127      -0.00000344       0.00000085
I       15.53846316      -0.26519046       5.07763664       0.00000596      -0.00000780       0.00000806
I       10.40047666       5.00006329       5.08597672       0.00000734      -0.00000885      -0.00000341
I       15.35112002      -0.79303255       9.47833036       0.00000398       0.00000086       0.00000537
I       10.33183933       4.45649013       9.49955231      -0.00000310       0.00000040       0.00000499
I       14.38334839       3.40002544       7.15166464       0.00001217      -0.00000791      -0.00000081
I       11.52099057       0.83082647       2.68965134      -0.00000219       0.00000610      -0.00001225
H       11.05854230       9.70284646       2.25652843       0.00000320      -0.00000355       0.00001675
H       10.55361256       7.53922712       1.61416036      -0.00001307      -0.00001480       0.00000442
H       10.49131458       6.93201358       3.26047500       0.00001931       0.00002295       0.00001060
H       10.90664711       8.67889077       5.07215154      -0.00001219      -0.00000765       0.00002535
H       11.25407326      10.28309539       4.49670164       0.00000965       0.00001309      -0.00000367
H       15.03587232       9.99021447       6.71470358      -0.00000971      -0.00001699       0.00000641
H       14.70965585       9.38397234       8.93284975      -0.00001030      -0.00001642       0.00000238
H       15.03092666      10.97975970       9.54668731      -0.00001217       0.00000068       0.00001247
H       15.55929904      12.74440707       7.78468940       0.00001456       0.00001142      -0.00001656
H        7.58480743      12.24259326       6.07179506       0.00000185      -0.00001132      -0.00002513
C       10.91086171       8.93385858       3.02285541       0.00000280      -0.00001121       0.00001098
C       15.14449620      10.74844357       7.49799784       0.00000923       0.00003382      -0.00001466
N       10.61907402       7.72030545       2.61652182       0.00000558      -0.00000516       0.00000441
N       11.04600273       9.30489093       4.27524710       0.00001367       0.00001397      -0.00002268
N       14.92964639      10.36476220       8.73554460       0.00000729       0.00002156      -0.00002071
N       15.47080806      11.96391872       7.12497590      -0.00002949      -0.00002260       0.00004497
Pb      12.39802370       5.96010804       7.50124639       0.00000290      -0.00000020      -0.00000869
Pb       8.39480403       6.01335190       7.43869165      -0.00000987       0.00000033      -0.00000369
I       14.38815061       6.93034299       9.88349771      -0.00000317       0.00000406      -0.00001162
I       11.47774299      12.17833581       9.91820133       0.00000012      -0.00000724       0.00000827
I       14.39635867       7.47677308       5.47036124       0.00000784      -0.00000286       0.00000182
I       11.59855585      12.70624301       5.51956464      -0.00000338       0.00000005       0.00000354
I       15.59210354      11.14448345       3.48770215       0.00000707       0.00000156      -0.00000413
I       10.42690362       8.53101016       7.81706236      -0.00000775      -0.00000461      -0.00001142
