320
Lattice="24.607401948706578 1.2151502340825495 0.6924352519196291 0.21003694048790955 24.645720018005427 -0.15161042468032782 -0.7109697277104609 0.15973132280520982 24.984822455312255" Properties=species:S:1:pos:R:3:forces:R:3 energy=-986.9016828782969 stress="1.5649973693332078e-07 -8.871861160124836e-08 -1.7067951810611873e-08 -8.871861160124836e-08 -1.5553688449961333e-07 -5.0134234081143056e-08 -1.7067951810611873e-08 -5.0134234081143056e-08 -1.4088842095188003e-08" free_energy=-986.9016828782969 pbc="T T T"
Cs      12.39871225      11.61728451       6.33413512       0.00003938       0.00002505      -0.00001511
Cs       6.19437672       5.15214955       6.19890847       0.00002239      -0.00000506       0.00000467
Cs       5.36473484       3.77310882      12.43564416      -0.00003864       0.00002289      -0.00000882
Cs      11.56906286      10.23835891      12.57083142       0.00000887      -0.00001169       0.00000622
Cs      11.14717614       4.43168651      12.59595907       0.00001040      -0.00001628       0.00001395
Cs       5.04788138      10.28924990      12.38494496      -0.00000865      -0.00000774      -0.00000625
Cs       6.61619709      10.95884612       6.17380167      -0.00000778       0.00000082      -0.00001456
Cs      12.71555940       5.10121396       6.38481967       0.00002211      -0.00000060      -0.00002567
Pb       2.67731111       1.23002630       9.24967355       0.00004971       0.00000363       0.00000748
Pb       8.88173024       7.69523274       9.38486100      -0.00002358       0.00002037       0.00002291
Pb       2.72987600       7.39144173       9.21176775      -0.00000198      -0.00000954      -0.00003349
Pb       8.82919456       1.53380500       9.42279085      -0.00001876       0.00000267      -0.00000377
Pb       2.85509371       1.19005908       3.00345935      -0.00000473       0.00002848      -0.00003766
Pb       9.05947371       7.65531112       3.13866350       0.00001494      -0.00000621       0.00000529
Pb       2.90764125       7.35148384       2.96556020      -0.00001956       0.00002114      -0.00001796
Pb       9.00695219       1.49387288       3.17657947       0.00001637       0.00001317      -0.00000314
I        3.47329532       4.30513229       8.76091059      -0.00000574       0.00001876       0.00000499
I        9.67763863      10.77036749       8.89614603      -0.00000851      -0.00001701       0.00001338
I       14.29014573      11.08533544      10.00881830      -0.00000177      -0.00000934      -0.00000003
I        8.08577835       4.62012739       9.87359233       0.00000035      -0.00001031       0.00000173
I       11.97693578       7.09502483       9.96849878       0.00000656       0.00000857      -0.00001185
I        5.87757080      12.95268650       9.75751853       0.00002345      -0.00000605      -0.00000066
I        5.78649684       8.29545414       8.80124282       0.00001873      -0.00000214       0.00001037
I       11.88582494       2.43781482       9.01222874      -0.00003255      -0.00000636       0.00000213
I       14.49585261      11.03910798       2.77998706       0.00001219      -0.00000689       0.00000556
I        8.29147805       4.57390564       2.64482567       0.00001941       0.00001170       0.00000269
I        3.26762425       4.35134350      15.98975810      -0.00002339      -0.00001395      -0.00001254
I        9.47195188      10.81658341      16.12495336      -0.00000858      -0.00002894      -0.00000913
I        5.58082097       8.34168550      16.03003367      -0.00001257      -0.00000080       0.00000411
I       11.68015788       2.48402383      16.24110741      -0.00007712      -0.00001111      -0.00001748
I       12.18266150       7.04881469       2.73969730      -0.00001278       0.00000586       0.00001866
I        6.08329636      12.90643785       2.52865063       0.00004820       0.00001096       0.00001380
I        2.20194777      14.05057365      12.27990201       0.00000878      -0.00001322       0.00007006
I        8.30134076       8.19283938      12.49093333       0.00000139       0.00000198       0.00002154
I       15.56142354       1.33998212       6.48981673       0.00000376      -0.00002270      -0.00001171
I        9.46214206       7.19765502       6.27882445      -0.00001951      -0.00001238      -0.00005831
I        2.32165158       7.84328560       6.07148737      -0.00000505       0.00001054      -0.00000658
I        8.52593530      14.30848629       6.20671082       0.00000353       0.00002413       0.00000350
I       15.44178560       7.54715795      12.69822005       0.00003674      -0.00001604       0.00006394
I        9.23754534       1.08198391      12.56305160      -0.00003603       0.00000362      -0.00000224
Cs      12.04322739      11.69715017      18.82654635       0.00003938       0.00002505      -0.00001511
Cs       5.83889186       5.23201521      18.69131970       0.00002239      -0.00000506       0.00000467
Cs       5.00924998       3.85297448      24.92805539      -0.00003864       0.00002289      -0.00000882
Cs      11.21357800      10.31822457      25.06324265       0.00000887      -0.00001169       0.00000622
Cs      10.79169128       4.51155217      25.08837030       0.00001040      -0.00001628       0.00001395
Cs       4.69239652      10.36911556      24.87735619      -0.00000866      -0.00000774      -0.00000625
Cs       6.26071223      11.03871178      18.66621290      -0.00000779       0.00000082      -0.00001456
Cs      12.36007454       5.18107962      18.87723090       0.00002211      -0.00000060      -0.00002567
Pb       2.32182625       1.30989196      21.74208478       0.00004970       0.00000362       0.00000748
Pb       8.52624538       7.77509840      21.87727223      -0.00002358       0.00002037       0.00002291
Pb       2.37439114       7.47130739      21.70417898      -0.00000198      -0.00000953      -0.00003350
Pb       8.47370970       1.61367066      21.91520208      -0.00001876       0.00000267      -0.00000377
Pb       2.49960885       1.26992474      15.49587058      -0.00000474       0.00002848      -0.00003766
Pb       8.70398885       7.73517678      15.63107473       0.00001494      -0.00000621       0.00000528
Pb       2.55215639       7.43134950      15.45797143      -0.00001956       0.00002114      -0.00001797
Pb       8.65146733       1.57373854      15.66899070       0.00001638       0.00001317      -0.00000314
I        3.11781046       4.38499795      21.25332182      -0.00000574       0.00001876       0.00000499
I        9.32215377      10.85023315      21.38855726      -0.00000851      -0.00001701       0.00001338
I       13.93466087      11.16520110      22.50122953      -0.00000177      -0.00000934      -0.00000003
I        7.73029349       4.69999305      22.36600356       0.00000035      -0.00001031       0.00000173
I       11.62145092       7.17489049      22.46091001       0.00000656       0.00000857      -0.00001185
I        5.52208594      13.03255216      22.24992976       0.00002345      -0.00000605      -0.00000066
I        5.43101198       8.37531980      21.29365405       0.00001872      -0.00000213       0.00001037
I       11.53034008       2.51768048      21.50463997      -0.00003255      -0.00000636       0.00000213
I       14.14036775      11.11897364      15.27239829       0.00001219      -0.00000689       0.00000556
I        7.93599319       4.65377130      15.13723690       0.00001941       0.00001170       0.00000269
I        3.62310911       4.27147784       3.49734687      -0.00002339      -0.00001395      -0.00001254
I        9.82743674      10.73671775       3.63254213      -0.00000858      -0.00002894      -0.00000913
I        5.93630583       8.26181984       3.53762244      -0.00001257      -0.00000080       0.00000411
I       12.03564274       2.40415817       3.74869618      -0.00007712      -0.00001110      -0.00001747
I       11.82717664       7.12868035      15.23210853      -0.00001280       0.00000586       0.00001865
I        5.72781150      12.98630351      15.02106186       0.00004819       0.00001096       0.00001380
I        1.84646291      14.13043931      24.77231324       0.00000878      -0.00001321       0.00007005
I        7.94585590       8.27270504      24.98334456       0.00000138       0.00000198       0.00002153
I       15.20593868       1.41984778      18.98222796       0.00000376      -0.00002270      -0.00001174
I        9.10665720       7.27752068      18.77123568      -0.00001951      -0.00001238      -0.00005831
I        1.96616672       7.92315126      18.56389860      -0.00000505       0.00001054      -0.00000658
I        8.17045044      14.38835195      18.69912205       0.00000353       0.00002413       0.00000350
I       15.08630074       7.62702361      25.19063128       0.00003674      -0.00001604       0.00006394
I        8.88206048       1.16184957      25.05546283      -0.00003603       0.00000362      -0.00000225
Cs      12.50373072      23.94014452       6.25832991       0.00003938       0.00002505      -0.00001511
Cs       6.29939519      17.47500956       6.12310326       0.00002239      -0.00000506       0.00000467
Cs       5.46975331      16.09596883      12.35983895      -0.00003864       0.00002289      -0.00000882
Cs      11.67408133      22.56121892      12.49502621       0.00000887      -0.00001169       0.00000622
Cs      11.25219461      16.75454652      12.52015386       0.00001040      -0.00001628       0.00001395
Cs       5.15289985      22.61210991      12.30913975      -0.00000865      -0.00000774      -0.00000625
Cs       6.72121556      23.28170613       6.09799646      -0.00000778       0.00000082      -0.00001456
Cs      12.82057787      17.42407397       6.30901446       0.00002211      -0.00000060      -0.00002567
Pb       2.78232958      13.55288631       9.17386834       0.00004971       0.00000362       0.00000748
Pb       8.98674871      20.01809275       9.30905579      -0.00002358       0.00002037       0.00002291
Pb       2.83489447      19.71430174       9.13596254      -0.00000198      -0.00000954      -0.00003349
Pb       8.93421303      13.85666501       9.34698564      -0.00001876       0.00000267      -0.00000377
Pb       2.96011218      13.51291909       2.92765414      -0.00000473       0.00002848      -0.00003766
Pb       9.16449218      19.97817113       3.06285829       0.00001494      -0.00000621       0.00000529
Pb       3.01265972      19.67434385       2.88975499      -0.00001957       0.00002114      -0.00001796
Pb       9.11197066      13.81673289       3.10077426       0.00001637       0.00001316      -0.00000314
I        3.57831379      16.62799230       8.68510538      -0.00000574       0.00001876       0.00000499
I        9.78265710      23.09322750       8.82034082      -0.00000851      -0.00001702       0.00001337
I       14.39516420      23.40819545       9.93301309      -0.00000177      -0.00000934      -0.00000003
I        8.19079682      16.94298740       9.79778712       0.00000035      -0.00001031       0.00000173
I       12.08195425      19.41788484       9.89269357       0.00000656       0.00000857      -0.00001185
I        5.77255233       0.62982649       9.83332374       0.00002345      -0.00000605      -0.00000066
I        5.89151531      20.61831415       8.72543761       0.00001873      -0.00000214       0.00001037
I       11.99084341      14.76067483       8.93642353      -0.00003255      -0.00000636       0.00000213
I       14.60087108      23.36196799       2.70418185       0.00001220      -0.00000690       0.00000556
I        8.39649652      16.89676565       2.56902046       0.00001941       0.00001170       0.00000269
I        3.37264272      16.67420351      15.91395289      -0.00002339      -0.00001395      -0.00001254
I        9.57697035      23.13944342      16.04914815      -0.00000858      -0.00002894      -0.00000913
I        5.68583944      20.66454551      15.95422846      -0.00001257      -0.00000080       0.00000411
I       11.78517635      14.80688384      16.16530220      -0.00007713      -0.00001111      -0.00001747
I       12.28767997      19.37167470       2.66389209      -0.00001279       0.00000586       0.00001866
I        5.97827789       0.58357784       2.60445584       0.00004820       0.00001097       0.00001380
I        2.09692930       1.72771364      12.35570722       0.00000878      -0.00001322       0.00007007
I        8.40635923      20.51569939      12.41512812       0.00000139       0.00000198       0.00002154
I       15.66644201      13.66284213       6.41401152       0.00000376      -0.00002270      -0.00001173
I        9.56716053      19.52051503       6.20301924      -0.00001951      -0.00001238      -0.00005831
I        2.42667005      20.16614561       5.99568216      -0.00000505       0.00001054      -0.00000658
I        8.42091683       1.98562628       6.28251603       0.00000353       0.00002414       0.00000350
I       15.54680407      19.87001796      12.62241484       0.00003674      -0.00001604       0.00006392
I        9.34256381      13.40484392      12.48724639      -0.00003603       0.00000362      -0.00000225
Cs      12.14824586      24.02001018      18.75074114       0.00003938       0.00002505      -0.00001511
Cs       5.94391033      17.55487522      18.61551449       0.00002239      -0.00000506       0.00000467
Cs       5.11426845      16.17583449      24.85225018      -0.00003864       0.00002289      -0.00000882
Cs      11.31859647      22.64108458      24.98743744       0.00000887      -0.00001169       0.00000622
Cs      10.89670975      16.83441218      25.01256509       0.00001040      -0.00001628       0.00001395
Cs       4.79741499      22.69197557      24.80155098      -0.00000866      -0.00000774      -0.00000625
Cs       6.36573070      23.36157179      18.59040769      -0.00000779       0.00000082      -0.00001456
Cs      12.46509301      17.50393963      18.80142569       0.00002211      -0.00000060      -0.00002567
Pb       2.42684472      13.63275197      21.66627957       0.00004970       0.00000362       0.00000748
Pb       8.63126385      20.09795841      21.80146702      -0.00002358       0.00002037       0.00002291
Pb       2.47940961      19.79416740      21.62837377      -0.00000198      -0.00000953      -0.00003350
Pb       8.57872817      13.93653067      21.83939687      -0.00001876       0.00000267      -0.00000377
Pb       2.60462732      13.59278475      15.42006537      -0.00000474       0.00002848      -0.00003767
Pb       8.80900732      20.05803679      15.55526952       0.00001494      -0.00000621       0.00000528
Pb       2.65717486      19.75420951      15.38216622      -0.00001956       0.00002114      -0.00001797
Pb       8.75648580      13.89659855      15.59318549       0.00001638       0.00001317      -0.00000314
I        3.22282893      16.70785796      21.17751661      -0.00000574       0.00001876       0.00000499
I        9.42717224      23.17309316      21.31275205      -0.00000851      -0.00001702       0.00001337
I       14.03967934      23.48806111      22.42542432      -0.00000177      -0.00000934      -0.00000003
I        7.83531196      17.02285306      22.29019835       0.00000035      -0.00001031       0.00000173
I       11.72646939      19.49775050      22.38510480       0.00000656       0.00000857      -0.00001185
I        5.41706747       0.70969215      22.32573497       0.00002345      -0.00000605      -0.00000066
I        5.53603045      20.69817981      21.21784884       0.00001872      -0.00000214       0.00001037
I       11.63535855      14.84054049      21.42883476      -0.00003255      -0.00000636       0.00000212
I       14.24538622      23.44183365      15.19659308       0.00001219      -0.00000689       0.00000555
I        8.04101166      16.97663131      15.06143169       0.00001941       0.00001170       0.00000269
I        3.72812758      16.59433785       3.42154166      -0.00002339      -0.00001395      -0.00001254
I        9.93245521      23.05957776       3.55673692      -0.00000858      -0.00002894      -0.00000913
I        6.04132430      20.58467985       3.46181723      -0.00001257      -0.00000080       0.00000411
I       12.14066121      14.72701818       3.67289097      -0.00007712      -0.00001110      -0.00001747
I       11.93219511      19.45154036      15.15630332      -0.00001280       0.00000586       0.00001865
I        5.62279303       0.66344350      15.09686707       0.00004819       0.00001097       0.00001380
I        1.74144444       1.80757930      24.84811845       0.00000878      -0.00001321       0.00007005
I        8.05087437      20.59556505      24.90753935       0.00000138       0.00000198       0.00002153
I       15.31095715      13.74270779      18.90642275       0.00000377      -0.00002270      -0.00001174
I        9.21167567      19.60038069      18.69543047      -0.00001951      -0.00001238      -0.00005831
I        2.07118519      20.24601127      18.48809339      -0.00000505       0.00001054      -0.00000658
I        8.06543197       2.06549194      18.77492726       0.00000353       0.00002414       0.00000350
I       15.19131921      19.94988362      25.11482607       0.00003674      -0.00001604       0.00006393
I        8.98707895      13.48470958      24.97965762      -0.00003603       0.00000362      -0.00000225
Cs       0.09501128      11.00970939       5.98791749       0.00003938       0.00002505      -0.00001510
Cs      18.49807769       5.75972467       6.54512610       0.00002239      -0.00000506       0.00000468
Cs      17.66843581       4.38068394      12.78186179      -0.00003864       0.00002289      -0.00000882
Cs      23.87276383      10.84593403      12.91704905       0.00000888      -0.00001169       0.00000621
Cs      23.45087711       5.03926163      12.94217670       0.00001040      -0.00001628       0.00001395
Cs      17.35158235      10.89682502      12.73116259      -0.00000865      -0.00000774      -0.00000625
Cs      18.91989806      11.56642124       6.52001930      -0.00000778       0.00000082      -0.00001456
Cs       0.41185843       4.49363884       6.03860204       0.00002211      -0.00000059      -0.00002566
Pb      14.98101208       1.83760142       9.59589118       0.00004972       0.00000362       0.00000747
Pb      21.18543121       8.30280786       9.73107863      -0.00002358       0.00002038       0.00002290
Pb      15.03357697       7.99901685       9.55798538      -0.00000197      -0.00000953      -0.00003350
Pb      21.13289553       2.14138012       9.76900848      -0.00001875       0.00000267      -0.00000378
Pb      15.15879468       1.79763420       3.34967698      -0.00000473       0.00002849      -0.00003766
Pb      21.36317468       8.26288624       3.48488113       0.00001496      -0.00000620       0.00000528
Pb      15.21134222       7.95905896       3.31177783      -0.00001954       0.00002114      -0.00001797
Pb      21.31065316       2.10144800       3.52279710       0.00001639       0.00001315      -0.00000315
I       15.77699629       4.91270741       9.10712822      -0.00000574       0.00001876       0.00000499
I       21.98133960      11.37794261       9.24236366      -0.00000850      -0.00001702       0.00001337
I        1.98644476      10.47776032       9.66260067      -0.00000178      -0.00000934      -0.00000003
I       20.38947932       5.22770251      10.21980996       0.00000035      -0.00001031       0.00000173
I       24.28063675       7.70259995      10.31471641       0.00000657       0.00000857      -0.00001186
I       18.18127177      13.56026162      10.10373616       0.00002345      -0.00000605      -0.00000066
I       18.09019781       8.90302926       9.14746045       0.00001873      -0.00000214       0.00001037
I       24.18952591       3.04538994       9.35844637      -0.00003254      -0.00000636       0.00000213
I        2.19215164      10.43153286       2.43376943       0.00001219      -0.00000689       0.00000556
I       20.59517902       5.18148076       2.99104330       0.00001941       0.00001169       0.00000269
I       15.57132522       4.95891862      16.33597573      -0.00002339      -0.00001395      -0.00001255
I       21.77565285      11.42415853      16.47117099      -0.00000858      -0.00002894      -0.00000914
I       17.88452194       8.94926062      16.37625130      -0.00001257      -0.00000080       0.00000411
I       23.98385885       3.09159895      16.58732504      -0.00007711      -0.00001111      -0.00001748
I       24.48636247       7.65638981       3.08591493      -0.00001278       0.00000586       0.00001866
I       18.38699733      13.51401297       2.87486826       0.00004820       0.00001096       0.00001379
I       14.50564874      14.65814877      12.62611964       0.00000879      -0.00001322       0.00007005
I       20.60504173       8.80041450      12.83715096       0.00000138       0.00000199       0.00002153
I        3.25772257       0.73240700       6.14359910       0.00000377      -0.00002270      -0.00001171
I       21.76584303       7.80523014       6.62504208      -0.00001950      -0.00001238      -0.00005831
I       14.62535255       8.45086072       6.41770500      -0.00000505       0.00001054      -0.00000658
I       20.82963627      14.91606141       6.55292845       0.00000353       0.00002413       0.00000346
I        3.13808463       6.93958283      12.35200242       0.00003674      -0.00001604       0.00006396
I       21.54124631       1.68955903      12.90926923      -0.00003603       0.00000362      -0.00000225
Cs      -0.26047359      11.08957505      18.48032872       0.00003939       0.00002505      -0.00001511
Cs      18.14259283       5.83959033      19.03753732       0.00002239      -0.00000506       0.00000468
Cs      17.31295095       4.46054960      25.27427301      -0.00003864       0.00002289      -0.00000882
Cs      23.51727897      10.92579969      25.40946027       0.00000887      -0.00001169       0.00000622
Cs      23.09539225       5.11912729      25.43458792       0.00001040      -0.00001628       0.00001395
Cs      16.99609749      10.97669068      25.22357381      -0.00000865      -0.00000774      -0.00000625
Cs      18.56441320      11.64628690      19.01243052      -0.00000778       0.00000082      -0.00001455
Cs       0.05637356       4.57350450      18.53101327       0.00002212      -0.00000059      -0.00002567
Pb      14.62552722       1.91746708      22.08830240       0.00004973       0.00000362       0.00000750
Pb      20.82994635       8.38267352      22.22348985      -0.00002358       0.00002037       0.00002291
Pb      14.67809211       8.07888251      22.05039660      -0.00000197      -0.00000953      -0.00003348
Pb      20.77741067       2.22124578      22.26141970      -0.00001876       0.00000267      -0.00000376
Pb      14.80330982       1.87749986      15.84208820      -0.00000473       0.00002848      -0.00003764
Pb      21.00768982       8.34275190      15.97729235       0.00001494      -0.00000621       0.00000530
Pb      14.85585736       8.03892462      15.80418905      -0.00001955       0.00002114      -0.00001795
Pb      20.95516830       2.18131366      16.01520832       0.00001638       0.00001317      -0.00000312
I       15.42151143       4.99257307      21.59953944      -0.00000574       0.00001876       0.00000500
I       21.62585474      11.45780827      21.73477488      -0.00000851      -0.00001701       0.00001338
I        1.63095989      10.55762598      22.15501190      -0.00000176      -0.00000934      -0.00000003
I       20.03399446       5.30756817      22.71222118       0.00000035      -0.00001031       0.00000173
I       23.92515189       7.78246561      22.80712763       0.00000657       0.00000857      -0.00001185
I       17.82578691      13.64012728      22.59614738       0.00002345      -0.00000605      -0.00000066
I       17.73471295       8.98289492      21.63987167       0.00001872      -0.00000214       0.00001037
I       23.83404105       3.12525560      21.85085759      -0.00003253      -0.00000636       0.00000213
I        1.83666677      10.51139852      14.92618066       0.00001220      -0.00000688       0.00000556
I       20.23969416       5.26134642      15.48345452       0.00001941       0.00001170       0.00000269
I       15.92681009       4.87905296       3.84356450      -0.00002340      -0.00001395      -0.00001255
I       22.13113772      11.34429287       3.97875976      -0.00000859      -0.00002894      -0.00000914
I       18.24000681       8.86939496       3.88384007      -0.00001260      -0.00000080       0.00000411
I       24.33934372       3.01173329       4.09491381      -0.00007714      -0.00001112      -0.00001748
I       24.13087761       7.73625547      15.57832615      -0.00001278       0.00000586       0.00001866
I       18.03151247      13.59387863      15.36727948       0.00004819       0.00001097       0.00001380
I       14.15016388      14.73801443      25.11853086       0.00000878      -0.00001322       0.00007008
I       20.24955687       8.88028016      25.32956218       0.00000139       0.00000198       0.00002155
I        2.90223770       0.81227266      18.63601033       0.00000377      -0.00002270      -0.00001172
I       21.41035817       7.88509580      19.11745330      -0.00001950      -0.00001238      -0.00005831
I       14.26986769       8.53072638      18.91011622      -0.00000505       0.00001054      -0.00000656
I       20.47415141      14.99592707      19.04533967       0.00000353       0.00002414       0.00000350
I        2.78259976       7.01944849      24.84441365       0.00003675      -0.00001604       0.00006395
I       21.18576145       1.76942469      25.40168045      -0.00003603       0.00000362      -0.00000222
Cs       0.20002975      23.33256940       5.91211228       0.00003938       0.00002505      -0.00001511
Cs      18.60309616      18.08258468       6.46932088       0.00002239      -0.00000506       0.00000468
Cs      17.77345428      16.70354395      12.70605657      -0.00003864       0.00002289      -0.00000882
Cs      23.97778230      23.16879404      12.84124383       0.00000888      -0.00001169       0.00000622
Cs      23.55589558      17.36212164      12.86637148       0.00001040      -0.00001628       0.00001395
Cs      17.45660082      23.21968503      12.65535737      -0.00000865      -0.00000774      -0.00000625
Cs      19.02491653      23.88928125       6.44421408      -0.00000778       0.00000082      -0.00001456
Cs       0.51687690      16.81649885       5.96279683       0.00002211      -0.00000060      -0.00002567
Pb      15.08603055      14.16046143       9.52008596       0.00004973       0.00000362       0.00000750
Pb      21.29044968      20.62566787       9.65527341      -0.00002358       0.00002037       0.00002291
Pb      15.13859544      20.32187686       9.48218016      -0.00000197      -0.00000954      -0.00003349
Pb      21.23791400      14.46424013       9.69320326      -0.00001875       0.00000267      -0.00000376
Pb      15.26381315      14.12049421       3.27387176      -0.00000473       0.00002848      -0.00003765
Pb      21.46819315      20.58574625       3.40907591       0.00001496      -0.00000621       0.00000529
Pb      15.31636069      20.28191897       3.23597261      -0.00001954       0.00002112      -0.00001795
Pb      21.41567163      14.42430801       3.44699188       0.00001638       0.00001316      -0.00000312
I       15.88201476      17.23556742       9.03132300      -0.00000574       0.00001876       0.00000500
I       22.08635807      23.70080262       9.16655844      -0.00000851      -0.00001701       0.00001338
I        2.09146323      22.80062033       9.58679546      -0.00000177      -0.00000934      -0.00000003
I       20.49449779      17.55056252      10.14400474       0.00000035      -0.00001031       0.00000173
I       24.38565522      20.02545996      10.23891119       0.00000657       0.00000857      -0.00001185
I       18.07625330       1.23740161      10.17954137       0.00002345      -0.00000605      -0.00000066
I       18.19521628      21.22588927       9.07165523       0.00001872      -0.00000214       0.00001037
I       24.29454438      15.36824995       9.28264115      -0.00003253      -0.00000636       0.00000213
I        2.29717011      22.75439287       2.35796422       0.00001219      -0.00000689       0.00000556
I       20.70019749      17.50434077       2.91523808       0.00001941       0.00001169       0.00000269
I       15.67634369      17.28177863      16.26017051      -0.00002339      -0.00001395      -0.00001254
I       21.88067132      23.74701854      16.39536577      -0.00000858      -0.00002894      -0.00000913
I       17.98954041      21.27212063      16.30044608      -0.00001257      -0.00000080       0.00000412
I       24.08887732      15.41445896      16.51151982      -0.00007711      -0.00001111      -0.00001748
I       24.59138094      19.97924982       3.01010971      -0.00001277       0.00000586       0.00001866
I       18.28197886       1.19115296       2.95067347       0.00004820       0.00001096       0.00001380
I       14.40063027       2.33528876      12.70192485       0.00000878      -0.00001322       0.00007006
I       20.71006020      21.12327451      12.76134574       0.00000139       0.00000198       0.00002154
I        3.36274104      13.05526701       6.06779389       0.00000377      -0.00002270      -0.00001171
I       21.87086150      20.12809015       6.54923686      -0.00001950      -0.00001239      -0.00005831
I       14.73037102      20.77372073       6.34189978      -0.00000505       0.00001054      -0.00000656
I       20.72461780       2.59320140       6.62873366       0.00000353       0.00002413       0.00000349
I        3.24310310      19.26244284      12.27619721       0.00003674      -0.00001604       0.00006396
I       21.64626478      14.01241904      12.83346401      -0.00003603       0.00000362      -0.00000223