768
Lattice="24.575581651121396 0.7416697976708901 0.15387293743346603 0.3505458393684867 24.58438882133517 -0.12641785145120224 -0.16290094509945566 0.13281252467177995 25.384332118474646" Properties=species:S:1:pos:R:3:forces:R:3 energy=-3353.454090453265 stress="4.1495420640995694e-08 -6.573590672314742e-08 2.4913653812425698e-08 -6.573590672314742e-08 -9.006573742499749e-08 1.1646701696846381e-08 2.4913653812425698e-08 1.1646701696846381e-08 1.0333741877670719e-07" free_energy=-3353.454090453265 pbc="T T T"
I        6.10089231       2.12778323       4.14777780       0.00000087      -0.00000302      -0.00000292
I        5.19884276      14.97041483      10.42129262      -0.00000899      -0.00000703       0.00000195
I        4.81696939      11.63672184       7.51051249       0.00001235      -0.00000158      -0.00000910
I        6.48271936       5.46146607       7.05859003      -0.00000487      -0.00000032       0.00000551
I       24.41563466      14.75391350      10.54578021       0.00002046      -0.00000577       0.00000257
I       11.45964962       3.08593124       4.17716577       0.00000655      -0.00000029       0.00000108
I       10.87323287       5.67602103       7.58056336       0.00000293       0.00000239       0.00000156
I        0.42647103      11.42212212       6.98851940       0.00001231       0.00000645      -0.00000961
I        8.79751164      13.94498462      13.37551914       0.00000781      -0.00000079       0.00000652
I        2.60353581       7.58288304       7.51745079      -0.00000808      -0.00000054       0.00000422
I        2.46466836       3.18376222       7.04471864      -0.00000562       0.00001016       0.00000154
I        8.83507267      13.91440966       7.52433097      -0.00000600      -0.00000917       0.00001073
H        3.75797760       6.16288397       3.21188772       0.00001424       0.00000282       0.00000932
H        9.47433007       6.76730686       5.04474565      -0.00000144      -0.00000490      -0.00000205
H        9.98962672      12.49448632       3.21892618      -0.00000124      -0.00000319       0.00000182
H        0.86565669       6.08453578      10.43992486      -0.00000194       0.00002347       0.00000492
H        1.81399514      10.34021809      11.32346712       0.00000805       0.00000984      -0.00002788
H        9.48578990       6.75788104       3.24564451      -0.00000010      -0.00000046       0.00001069
H        7.87020305       4.37954645      11.39347270       0.00000157       0.00000013       0.00000119
H        1.32168904       4.59424975       9.55115505      -0.00000488       0.00001580       0.00000081
H        4.20256126       4.68217356       4.12220021      -0.00000469       0.00001274       0.00001027
H        7.98757981       7.18914308       4.13345385      -0.00000033      -0.00000095      -0.00000437
H       10.43408550      11.01359710       4.12900811       0.00001283      -0.00000179       0.00000526
H        1.31017483       4.60381481      11.35025294      -0.00001774      -0.00000278       0.00000355
H        1.49381480       5.95562297       4.09818364       0.00000679      -0.00000015      -0.00000823
H        9.34848946      12.54113613      11.30250200       0.00000003       0.00001440       0.00002111
H        7.72540543      12.28719530       4.10503466       0.00002680      -0.00001208      -0.00000768
H        1.84115634      10.89596643       4.91646434       0.00000229       0.00000220      -0.00000848
H        1.94058363       4.56582999       4.95031088       0.00000353       0.00000162      -0.00001357
H        9.35924428      12.53230632       9.61873886      -0.00001371      -0.00001726       0.00004640
H        8.17206056      10.89729085       4.95703644       0.00000388       0.00000984       0.00001424
H        3.24781522      10.46173878       4.08580119      -0.00003931       0.00002905       0.00000295
H        1.95132176       4.55694059       3.26654519      -0.00001352       0.00001166       0.00000510
H        9.30409739       4.50104982       4.15593956       0.00002903      -0.00001051       0.00000689
H        8.18289636      10.88858110       3.27327125      -0.00002783      -0.00000456       0.00003405
H        1.85195017      10.88721007       3.23269704       0.00000481      -0.00001278       0.00002536
C        2.41021126      10.52956192      10.42663874      -0.00006519       0.00003329       0.00000625
C        8.88952560       6.56858398       4.14245030      -0.00000654       0.00001205      -0.00001398
C        8.46647946       4.56888871      10.49668508       0.00000205       0.00001478       0.00001665
C        1.50050444       5.19258866      10.44872960       0.00002522      -0.00001994      -0.00001507
Pb       5.64985343       8.54910747       7.28449996       0.00001452      -0.00000579       0.00001218
Pb       5.73750089      14.69518622       7.25293046       0.00000824      -0.00000164       0.00000258
Pb      24.12844215      15.28464196      13.71442515       0.00000245       0.00000299      -0.00000628
Pb      24.16918802      15.25142699       7.36833997      -0.00000028       0.00000629      -0.00000814
N        2.14257295       5.14150638       4.10661868      -0.00001858       0.00000077       0.00000086
N        9.15719172      11.95661898      10.46240853      -0.00001155       0.00004475      -0.00004376
N        8.37412614      11.47304753       4.11341983      -0.00001507       0.00001825      -0.00004112
N        2.42345993      11.09743672       4.07720973       0.00003646      -0.00006980      -0.00000415
I        5.89632984       8.05158934      10.46195469       0.00000700      -0.00000501       0.00000604
I        5.40339498       9.04666142       4.10706895       0.00000090      -0.00001352      -0.00000630
I        6.43888477       5.49726416      13.89956008      -0.00002146       0.00000195      -0.00000600
I        4.86089554      11.60093645       0.66950103       0.00000779      -0.00000059       0.00001025
I       24.62023054       8.83011118       4.23155414      -0.00000327       0.00000139      -0.00000289
I       11.25510699       9.00968686      10.49134271      -0.00000091      -0.00000496      -0.00000593
I       12.75182498      11.76235986       1.21423500      -0.00000755       0.00000395      -0.00000630
I       23.12347590       6.07748309      13.50868300       0.00001254      -0.00000156      -0.00000239
I        8.69619655       9.51527660       7.05153536      -0.00002254       0.00002199       0.00000372
I        2.67747368      15.44534087       1.13032244       0.00000709      -0.00000216      -0.00000273
I        2.56600593       7.61352309      13.36863021      -0.00000744      -0.00001475      -0.00000197
I        8.73376119       9.48467537       1.20035016      -0.00000085      -0.00000192      -0.00000695
H        3.31216827       9.90902068      10.43556482       0.00004107      -0.00001162       0.00001698
H        7.09725372      12.41616508      10.44686500      -0.00001331      -0.00001649      -0.00000633
H        9.36844587       3.94836008      10.50568085       0.00000016      -0.00000612       0.00000669
H        1.93133314      13.14985001       4.06342257       0.00001599      -0.00000630      -0.00000342
H        3.74650194       6.17244491       5.01098618       0.00000377      -0.00001321       0.00001342
H        7.55315489      10.92592522       9.55795070       0.00000629      -0.00000216       0.00000453
H        9.97808026      12.50374181       5.01802804      -0.00001387      -0.00001149      -0.00002615
H        3.41808011      12.72794430       4.97469283      -0.00002667       0.00000268      -0.00003162
H        1.82536460      10.33086364       9.52436466       0.00001307      -0.00000493       0.00001190
H        7.54167721      10.93533085      11.35705209      -0.00000178      -0.00001007       0.00000863
H        7.88169924       4.37017340       9.59437254      -0.00000074      -0.00000021      -0.00000467
H        3.42953569      12.71860592       3.17559098       0.00000815       0.00000204       0.00000439
H        3.40224904      12.16288231       9.58250745       0.00000675       0.00002532       0.00001226
H        7.90821073       4.92646950       3.30285141       0.00003013       0.00000205       0.00003731
H        8.05183928       6.63641245      10.48324792       0.00001458      -0.00000763      -0.00001043
H        3.57436250       4.81099642      10.46399908       0.00000475       0.00001283       0.00000257
H        3.39148789      12.17168604      11.26627244       0.00001893      -0.00000526       0.00002372
H        7.89745337       4.93529794       4.98661791      -0.00000372      -0.00000592      -0.00001566
H        9.45850845       6.20222973       9.65258126       0.00002126       0.00001267      -0.00000694
H        3.11689093       6.20969305      11.29563013       0.00000783       0.00001082       0.00001117
H        1.99559326      12.59708870      10.41318684       0.00001556      -0.00001378       0.00000244
H        9.80587578      11.14244375      10.47082351       0.00001534      -0.00003384       0.00000574
H        9.44772804       6.21101332      11.33634487       0.00000632       0.00000338       0.00000806
H        3.12765709       6.20080541       9.61186590      -0.00000635       0.00001496      -0.00000199
C        3.56768570       5.57410266       4.11341455       0.00002453      -0.00002999      -0.00001021
C        7.73203428      11.52416809      10.45557652      -0.00000195       0.00002487      -0.00002510
C        9.79926289      11.90556429       4.12034544       0.00000842       0.00000332       0.00001832
C        2.83326942      12.52927577       4.07238810      -0.00000301       0.00003504       0.00001572
Pb       5.69678114      14.72840703      13.59901458       0.00000086      -0.00000525      -0.00000367
Pb       5.60915631       8.58229998      13.63059343      -0.00000009       0.00000319       0.00000402
Pb      24.08154302       9.10532183       7.39991429       0.00000505      -0.00000472       0.00000631
Pb      24.04084490       9.13853299      13.74600417      -0.00000742      -0.00000082       0.00000019
N        2.81996797      11.96141781      10.42177974      -0.00004750      -0.00000144      -0.00004688
N        8.47973774       5.13673797       4.14734132      -0.00005120       0.00000863      -0.00004571
N        8.87622015       6.00074893      10.49184284      -0.00003865      -0.00000245      -0.00000586
N        2.92563290       5.62513646      10.45555328      -0.00001232      -0.00004153      -0.00000013
I        6.01944184       2.19418949      16.83994386       0.00000087      -0.00000302      -0.00000293
I        5.11739229      15.03682109      23.11345868      -0.00000899      -0.00000703       0.00000195
I        4.73551892      11.70312810      20.20267855       0.00001235      -0.00000158      -0.00000910
I        6.40126889       5.52787233      19.75075609      -0.00000487      -0.00000032       0.00000551
I       24.33418419      14.82031976      23.23794627       0.00002046      -0.00000577       0.00000257
I       11.37819915       3.15233750      16.86933183       0.00000654      -0.00000029       0.00000107
I       10.79178240       5.74242729      20.27272942       0.00000293       0.00000239       0.00000156
I        0.34502056      11.48852838      19.68068546       0.00001231       0.00000645      -0.00000961
I        8.87896211      13.87857836       0.68335308       0.00000782      -0.00000079       0.00000652
I        2.52208534       7.64928930      20.20961685      -0.00000809      -0.00000054       0.00000422
I        2.38321789       3.25016848      19.73688470      -0.00000563       0.00001016       0.00000154
I        8.75362220      13.98081592      20.21649703      -0.00000602      -0.00000918       0.00001073
H        3.67652713       6.22929023      15.90405378       0.00001424       0.00000282       0.00000932
H        9.39287960       6.83371312      17.73691171      -0.00000144      -0.00000490      -0.00000205
H        9.90817625      12.56089258      15.91109224      -0.00000124      -0.00000319       0.00000182
H        0.78420622       6.15094204      23.13209092      -0.00000194       0.00002347       0.00000492
H        1.73254467      10.40662435      24.01563318       0.00000804       0.00000984      -0.00002788
H        9.40433943       6.82428730      15.93781057      -0.00000010      -0.00000046       0.00001069
H        7.78875258       4.44595271      24.08563876       0.00000157       0.00000013       0.00000119
H        1.24023857       4.66065601      22.24332111      -0.00000488       0.00001580       0.00000081
H        4.12111079       4.74857982      16.81436627      -0.00000469       0.00001274       0.00001027
H        7.90612934       7.25554934      16.82561991      -0.00000033      -0.00000095      -0.00000437
H       10.35263503      11.08000336      16.82117417       0.00001283      -0.00000179       0.00000526
H        1.22872436       4.67022107      24.04241900      -0.00001774      -0.00000278       0.00000355
H        1.41236433       6.02202923      16.79034970       0.00000679      -0.00000015      -0.00000823
H        9.26703899      12.60754239      23.99466806       0.00000003       0.00001440       0.00002111
H        7.64395496      12.35360156      16.79720072       0.00002680      -0.00001208      -0.00000768
H        1.75970587      10.96237269      17.60863040       0.00000229       0.00000220      -0.00000848
H        1.85913316       4.63223625      17.64247694       0.00000353       0.00000162      -0.00001356
H        9.27779381      12.59871258      22.31090492      -0.00001371      -0.00001726       0.00004641
H        8.09061009      10.96369711      17.64920250       0.00000388       0.00000984       0.00001424
H        3.16636475      10.52814504      16.77796725      -0.00003931       0.00002905       0.00000295
H        1.86987129       4.62334685      15.95871125      -0.00001352       0.00001166       0.00000510
H        9.22264692       4.56745608      16.84810562       0.00002903      -0.00001051       0.00000689
H        8.10144589      10.95498736      15.96543731      -0.00002783      -0.00000456       0.00003405
H        1.77049970      10.95361633      15.92486310       0.00000481      -0.00001278       0.00002536
C        2.32876079      10.59596818      23.11880480      -0.00006520       0.00003329       0.00000625
C        8.80807513       6.63499024      16.83461636      -0.00000654       0.00001205      -0.00001398
C        8.38502899       4.63529497      23.18885114       0.00000204       0.00001478       0.00001665
C        1.41905397       5.25899492      23.14089566       0.00002522      -0.00001994      -0.00001507
Pb       5.56840296       8.61551373      19.97666602       0.00001452      -0.00000579       0.00001218
Pb       5.65605042      14.76159248      19.94509652       0.00000824      -0.00000164       0.00000258
Pb      24.20989262      15.21823570       1.02225909       0.00000245       0.00000298      -0.00000628
Pb      24.08773755      15.31783325      20.06050603      -0.00000030       0.00000629      -0.00000814
N        2.06112248       5.20791264      16.79878474      -0.00001858       0.00000076       0.00000085
N        9.07574125      12.02302524      23.15457459      -0.00001155       0.00004475      -0.00004376
N        8.29267567      11.53945379      16.80558589      -0.00001507       0.00001825      -0.00004112
N        2.34200946      11.16384298      16.76937579       0.00003646      -0.00006980      -0.00000415
I        5.81487937       8.11799560      23.15412075       0.00000700      -0.00000501       0.00000603
I        5.32194451       9.11306768      16.79923501       0.00000090      -0.00001352      -0.00000629
I        6.52033524       5.43085790       1.20739402      -0.00002146       0.00000195      -0.00000600
I        4.77944507      11.66734271      13.36166709       0.00000778      -0.00000059       0.00001024
I       24.53878007       8.89651744      16.92372020      -0.00000328       0.00000139      -0.00000289
I       11.17365652       9.07609312      23.18350877      -0.00000092      -0.00000496      -0.00000593
I       12.67037451      11.82876612      13.90640106      -0.00000756       0.00000395      -0.00000630
I       23.20492637       6.01107683       0.81651694       0.00001254      -0.00000157      -0.00000239
I        8.61474608       9.58168286      19.74370142      -0.00002256       0.00002199       0.00000372
I        2.59602321      15.51174713      13.82248850       0.00000709      -0.00000216      -0.00000272
I        2.64745640       7.54711683       0.67646415      -0.00000743      -0.00001475      -0.00000197
I        8.65231072       9.55108163      13.89251622      -0.00000086      -0.00000192      -0.00000695
H        3.23071780       9.97542694      23.12773088       0.00004107      -0.00001162       0.00001698
H        7.01580325      12.48257134      23.13903106      -0.00001331      -0.00001649      -0.00000633
H        9.28699540       4.01476634      23.19784691       0.00000016      -0.00000612       0.00000669
H        1.84988267      13.21625627      16.75558863       0.00001599      -0.00000630      -0.00000342
H        3.66505147       6.23885117      17.70315224       0.00000377      -0.00001321       0.00001342
H        7.47170442      10.99233148      22.25011676       0.00000629      -0.00000216       0.00000453
H        9.89662979      12.57014807      17.71019410      -0.00001387      -0.00001149      -0.00002615
H        3.33662964      12.79435056      17.66685889      -0.00002667       0.00000268      -0.00003162
H        1.74391413      10.39726990      22.21653072       0.00001307      -0.00000493       0.00001190
H        7.46022674      11.00173711      24.04921815      -0.00000178      -0.00001007       0.00000863
H        7.80024877       4.43657966      22.28653860      -0.00000074      -0.00000021      -0.00000467
H        3.34808522      12.78501218      15.86775704       0.00000815       0.00000204       0.00000439
H        3.32079857      12.22928857      22.27467351       0.00000675       0.00002531       0.00001226
H        7.82676026       4.99287576      15.99501747       0.00003013       0.00000205       0.00003731
H        7.97038881       6.70281871      23.17541398       0.00001458      -0.00000763      -0.00001043
H        3.49291203       4.87740268      23.15616514       0.00000475       0.00001283       0.00000257
H        3.31003742      12.23809230      23.95843850       0.00001893      -0.00000526       0.00002372
H        7.81600290       5.00170420      17.67878397      -0.00000372      -0.00000592      -0.00001566
H        9.37705798       6.26863599      22.34474732       0.00002125       0.00001267      -0.00000694
H        3.03544046       6.27609931      23.98779619       0.00000782       0.00001082       0.00001117
H        1.91414279      12.66349496      23.10535290       0.00001556      -0.00001378       0.00000244
H        9.72442531      11.20885001      23.16298957       0.00001534      -0.00003384       0.00000574
H        9.36627757       6.27741958      24.02851093       0.00000632       0.00000338       0.00000806
H        3.04620662       6.26721167      22.30403196      -0.00000635       0.00001496      -0.00000199
C        3.48623523       5.64050892      16.80558061       0.00002453      -0.00002999      -0.00001021
C        7.65058381      11.59057435      23.14774258      -0.00000195       0.00002487      -0.00002510
C        9.71781242      11.97197055      16.81251150       0.00000842       0.00000333       0.00001832
C        2.75181895      12.59568203      16.76455416      -0.00000301       0.00003504       0.00001572
Pb       5.77823161      14.66200077       0.90684852       0.00000085      -0.00000524      -0.00000366
Pb       5.69060678       8.51589372       0.93842737      -0.00000009       0.00000318       0.00000402
Pb      24.00009255       9.17172809      20.09208035       0.00000503      -0.00000472       0.00000632
Pb      24.12229537       9.07212673       1.05383811      -0.00000741      -0.00000083       0.00000019
N        2.73851750      12.02782407      23.11394580      -0.00004750      -0.00000144      -0.00004689
N        8.39828727       5.20314423      16.83950738      -0.00005121       0.00000863      -0.00004571
N        8.79476968       6.06715519      23.18400890      -0.00003865      -0.00000245      -0.00000586
N        2.84418243       5.69154272      23.14771934      -0.00001232      -0.00004153      -0.00000012
I        6.27616523      14.41997764       4.08456887       0.00000087      -0.00000302      -0.00000291
I        5.02356984       2.67822042      10.48450155      -0.00000899      -0.00000703       0.00000195
I        4.99224231      23.92891625       7.44730356       0.00001235      -0.00000158      -0.00000910
I        6.65799228      17.75366048       6.99538110      -0.00000487      -0.00000032       0.00000551
I       24.24036174       2.46171909      10.60898913       0.00002046      -0.00000577       0.00000259
I       11.63492254      15.37812565       4.11395684       0.00000655      -0.00000030       0.00000110
I       11.04850579      17.96821544       7.51735443       0.00000293       0.00000239       0.00000156
I        0.60174395      23.71431653       6.92531047       0.00001231       0.00000645      -0.00000961
I        8.62223872       1.65279021      13.43872807       0.00000781      -0.00000079       0.00000651
I        2.77880873      19.87507745       7.45424186      -0.00000808      -0.00000054       0.00000422
I        2.63994128      15.47595663       6.98150971      -0.00000563       0.00001016       0.00000155
I        8.65979975       1.62221525       7.58753990      -0.00000600      -0.00000917       0.00001072
H        3.93325052      18.45507838       3.14867879       0.00001424       0.00000282       0.00000932
H        9.64960299      19.05950127       4.98153672      -0.00000144      -0.00000490      -0.00000205
H       10.16489964      24.78668073       3.15571725      -0.00000124      -0.00000319       0.00000182
H        1.04092961      18.37673019      10.37671593      -0.00000194       0.00002347       0.00000492
H        1.98926806      22.63241250      11.26025819       0.00000805       0.00000984      -0.00002788
H        9.66106282      19.05007545       3.18243558      -0.00000010      -0.00000046       0.00001069
H        8.04547597      16.67174086      11.33026377       0.00000157       0.00000013       0.00000119
H        1.49696196      16.88644416       9.48794612      -0.00000488       0.00001580       0.00000081
H        4.37783418      16.97436797       4.05899128      -0.00000469       0.00001274       0.00001027
H        8.16285273      19.48133749       4.07024492      -0.00000033      -0.00000095      -0.00000437
H       10.60935842      23.30579151       4.06579918       0.00001283      -0.00000179       0.00000526
H        1.48544775      16.89600922      11.28704401      -0.00001774      -0.00000278       0.00000355
H        1.66908772      18.24781738       4.03497471       0.00000679      -0.00000015      -0.00000823
H        9.52376238      24.83333054      11.23929307       0.00000003       0.00001440       0.00002110
H        7.90067835      24.57938971       4.04182573       0.00002680      -0.00001208      -0.00000767
H        1.66588342      -1.39622798       4.97967326       0.00000229       0.00000218      -0.00000848
H        2.11585655      16.85802440       4.88710195       0.00000353       0.00000162      -0.00001357
H        9.53451720      24.82450073       9.55552993      -0.00001371      -0.00001726       0.00004640
H        8.34733348      23.18948526       4.89382751       0.00000388       0.00000984       0.00001424
H        3.07254230      -1.83045563       4.14901011      -0.00003931       0.00002906       0.00000295
H        2.12659468      16.84913500       3.20333626      -0.00001352       0.00001166       0.00000510
H        9.47937031      16.79324423       4.09273063       0.00002903      -0.00001051       0.00000689
H        8.35816928      23.18077551       3.21006232      -0.00002783      -0.00000456       0.00003405
H        1.67667725      -1.40498434       3.29590596       0.00000482      -0.00001276       0.00002535
C        2.58548418      22.82175633      10.36342981      -0.00006520       0.00003329       0.00000625
C        9.06479852      18.86077839       4.07924137      -0.00000654       0.00001205      -0.00001398
C        8.64175238      16.86108312      10.43347615       0.00000205       0.00001478       0.00001665
C        1.67577736      17.48478307      10.38552067       0.00002522      -0.00001994      -0.00001506
Pb       5.82512635      20.84130188       7.22129103       0.00001452      -0.00000580       0.00001219
Pb       5.56222797       2.40299181       7.31613939       0.00000824      -0.00000164       0.00000258
Pb      23.95316923       2.99244755      13.77763407       0.00000246       0.00000299      -0.00000627
Pb      23.99391510       2.95923258       7.43154889      -0.00000029       0.00000629      -0.00000814
N        2.31784587      17.43370079       4.04340975      -0.00001858       0.00000077       0.00000086
N        9.33246464      24.24881339      10.39919960      -0.00001155       0.00004476      -0.00004374
N        8.54939906      23.76524194       4.05021090      -0.00001507       0.00001825      -0.00004112
N        2.24818701      -1.19475769       4.14041865       0.00003647      -0.00006978      -0.00000407
I        6.07160276      20.34378375      10.39874576       0.00000700      -0.00000501       0.00000604
I        5.57866790      21.33885583       4.04386002       0.00000090      -0.00001352      -0.00000629
I        6.61415769      17.78945857      13.83635115      -0.00002146       0.00000195      -0.00000600
I        5.03616846      23.89313086       0.60629210       0.00000779      -0.00000058       0.00001025
I       24.79550346      21.12230559       4.16834521      -0.00000327       0.00000139      -0.00000289
I       11.43037991      21.30188127      10.42813378      -0.00000091      -0.00000496      -0.00000593
I       12.92709790      24.05455427       1.15102607      -0.00000755       0.00000395      -0.00000630
I       23.29874882      18.36967750      13.44547407       0.00001254      -0.00000155      -0.00000239
I        8.87146947      21.80747101       6.98832643      -0.00002254       0.00002199       0.00000372
I        2.50220076       3.15314646       1.19353137       0.00000709      -0.00000217      -0.00000273
I        2.74127885      19.90571750      13.30542128      -0.00000744      -0.00001475      -0.00000197
I        8.90903411      21.77686978       1.13714123      -0.00000085      -0.00000192      -0.00000695
H        3.48744119      22.20121509      10.37235589       0.00004107      -0.00001162       0.00001698
H        7.27252664      24.70835949      10.38365607      -0.00001331      -0.00001649      -0.00000633
H        9.54371879      16.24055449      10.44247192       0.00000016      -0.00000612       0.00000669
H        1.75606022       0.85765560       4.12663150       0.00001599      -0.00000630      -0.00000342
H        3.92177486      18.46463932       4.94777725       0.00000377      -0.00001321       0.00001342
H        7.72842781      23.21811963       9.49474177       0.00000629      -0.00000216       0.00000453
H       10.15335318      24.79593622       4.95481911      -0.00001387      -0.00001149      -0.00002615
H        3.24280719       0.43574989       5.03790176      -0.00002668       0.00000265      -0.00003162
H        2.00063752      22.62305805       9.46115573       0.00001307      -0.00000493       0.00001190
H        7.71695013      23.22752526      11.29384316      -0.00000178      -0.00001007       0.00000863
H        8.05697216      16.66236781       9.53116361      -0.00000074      -0.00000021      -0.00000467
H        3.25426277       0.42641151       3.23879991       0.00000815       0.00000206       0.00000439
H        3.57752196      24.45507672       9.51929852       0.00000673       0.00002533       0.00001226
H        8.08348365      17.21866391       3.23964248       0.00003013       0.00000205       0.00003731
H        8.22711220      18.92860686      10.42003899       0.00001458      -0.00000763      -0.00001043
H        3.74963542      17.10319083      10.40079015       0.00000475       0.00001283       0.00000257
H        3.56676081      24.46388045      11.20306351       0.00001895      -0.00000528       0.00002372
H        8.07272629      17.22749235       4.92340898      -0.00000372      -0.00000592      -0.00001566
H        9.63378137      18.49442414       9.58937233       0.00002126       0.00001267      -0.00000694
H        3.29216385      18.50188746      11.23242120       0.00000783       0.00001082       0.00001117
H        2.17086618      24.88928311      10.34997792       0.00001560      -0.00001381       0.00000240
H        9.98114870      23.43463816      10.40761458       0.00001534      -0.00003384       0.00000574
H        9.62300096      18.50320773      11.27313594       0.00000632       0.00000338       0.00000806
H        3.30293001      18.49299982       9.54865697      -0.00000635       0.00001496      -0.00000199
C        3.74295862      17.86629707       4.05020562       0.00002453      -0.00002999      -0.00001021
C        7.90730720      23.81636250      10.39236759      -0.00000195       0.00002487      -0.00002510
C        9.97453581      24.19775870       4.05713651       0.00000842       0.00000333       0.00001832
C        2.65799650       0.23708136       4.13559703      -0.00000301       0.00003502       0.00001565