768
Lattice="39.10627365439266 -0.43150973886839483 0.2574669388867156 -0.4040973546765018 23.47182308951896 0.2712218342960515 0.00015992250487611057 0.1350491098840735 18.31594463339911" Properties=species:S:1:pos:R:3:forces:R:3 energy=-3663.684504453501 stress="0.002008703303721986 -0.0004060224416311489 0.000326638938838791 -0.0004060224416311489 0.0021038301353538567 -0.00028921356598772546 0.000326638938838791 -0.00028921356598772546 0.0016997385282325956" free_energy=-3663.684504453501 pbc="T T T"
H        6.43289101      12.18418517       3.36918862      -0.00000884       0.00000417       0.00000304
H       10.85553148      12.08605038       1.03526995       0.00002086      -0.00000043      -0.00000810
H        1.10352008       6.40439925       3.11306786      -0.00000774      -0.00000831      -0.00000043
H       16.30481799       6.38465520       1.17063005       0.00000132       0.00000410       0.00000265
H        4.62849409      11.75379489      15.73450664       0.00000270       0.00000236      -0.00000227
H       12.74298856      12.67529473       2.25355437       0.00000111       0.00002019       0.00001511
H        2.77727240       5.77598948      18.31579263       0.00000493      -0.00000001      -0.00000136
H       16.69503005       4.58201998       2.61735292      -0.00000861       0.00000066      -0.00000739
H        4.86057637       2.93133354       3.79647729      -0.00000068       0.00000849      -0.00000806
H       13.60087459      11.19967946       1.83331084      -0.00000986      -0.00000125      -0.00000593
H        3.63358285       7.31403313      18.21780245      -0.00000437      -0.00000631       0.00000052
H       15.03819266       4.00548650       2.46379497       0.00000775       0.00000900       0.00000493
H        3.91993727       1.18494851       2.33403136       0.00000213       0.00000242       0.00000377
H       12.46013196       9.70070620       0.17715447       0.00001261      -0.00000441       0.00000383
H        3.63348119       7.21274505       4.48086534      -0.00000219      -0.00000365      -0.00000101
H       13.54786140       5.24020476       0.92951848       0.00000839       0.00001181      -0.00000867
H        4.83183463      -0.32477631       2.19714386       0.00000127       0.00000012      -0.00000927
H       10.88861143      21.91051041       2.62138323      -0.00000156      -0.00000617       0.00000313
H        2.77719027       5.67468867       4.57882905       0.00000309       0.00000860      -0.00000891
H       16.69505223       4.61572795       7.19638607      -0.00000182      -0.00000564      -0.00000684
C        5.66653622       1.09421527       3.38378230      -0.00000526       0.00002267       0.00000273
C       11.72611603      11.42126978       1.02873830      -0.00000205       0.00000791       0.00000705
C        1.94167137       7.06665721       3.35149489      -0.00002088       0.00002292      -0.00002830
C       15.50395434       5.66623770       1.37347488      -0.00000898       0.00002676      -0.00003107
N        5.63778342       2.28463390       3.94088895       0.00000210      -0.00001501       0.00000397
N       12.76395063      11.77995676       1.74909579      -0.00000806      -0.00002522      -0.00000962
N        2.84846468       6.72208645      17.92576549       0.00000860      -0.00000266       0.00000116
N       15.76826169       4.67264935       2.19241456      -0.00000210      -0.00002826       0.00001681
N        4.72942287       0.61596530       2.59896174       0.00000121      -0.00000914      -0.00000507
N       11.65686480      10.32563294       0.30742460      -0.00002269       0.00000856       0.00001104
N        2.84837336       6.62079172       4.18881423       0.00001428      -0.00001708       0.00002083
N       14.34832406       5.85716235       0.77956769       0.00000462      -0.00002307       0.00002893
Pb      39.19996019       1.92507452       1.72174487       0.00000293       0.00000206      -0.00000056
Pb      17.39462420      10.20228306       3.67647207       0.00000387      -0.00001208      -0.00000054
Pb       7.49312757       8.15045394       0.78054706      -0.00000179       0.00000717       0.00000536
Pb       9.66363431       4.56326334       3.25558694       0.00000264       0.00000124      -0.00000365
I       38.15494791       3.99063873       3.98191977      -0.00000185      -0.00000104      -0.00000520
I       37.98771960       8.01111677       1.16882359      -0.00000945       0.00000140       0.00000725
I        8.53599420      10.20735600       3.07317477      -0.00000736      -0.00000028      -0.00000107
I        8.80664770       2.42276576       0.99157698      -0.00000308      -0.00000235      -0.00000462
I       16.64747888       0.75945603       1.91445481      -0.00000602       0.00000313       0.00000639
I        0.93064877      11.95436364       3.29066397       0.00000650      -0.00000351       0.00000149
I       10.53586176       6.72008302       0.93297264      -0.00000220       0.00000687       0.00000244
I        6.59629697       5.98917030       3.11154470       0.00000030      -0.00000216       0.00000246
I        2.94323853       3.62553767       1.62474579      -0.00000055      -0.00000391       0.00000573
I       14.56349586       8.87128871       3.33506215      -0.00000100       0.00000140      -0.00001300
I        4.68284239       9.54046497       0.53214999       0.00001225      -0.00000599       0.00000579
I       12.55819111       3.37250529       3.06392470       0.00000624      -0.00000750       0.00000148
H        6.43294216      12.21797068       7.94825699      -0.00000131       0.00000590       0.00000439
H       10.85559670      12.11987807       5.61424088      -0.00000382       0.00000090       0.00000241
H        1.10353734       6.43814144       7.69202365       0.00000491       0.00001006       0.00001058
H       16.30486561       6.41841721       5.74972725      -0.00000618      -0.00000056      -0.00000016
H        6.53181718      14.23444072       4.47028204      -0.00000199       0.00000437       0.00000212
H       12.74303320      12.70904674       6.83259156       0.00000455       0.00000532       0.00000140
H        1.19969216       8.53323815       2.17394395       0.00000163       0.00000355       0.00000839
H       14.23007439       6.72298673       4.76986000      -0.00000552       0.00000495      -0.00000592
H        3.92002134       1.21869382       6.91296673      -0.00000057       0.00001228       0.00000275
H       13.60087886      11.23339924       6.41236668      -0.00000359       0.00000574       0.00000929
H        2.72883414       8.91532202       2.95991745       0.00000409       0.00000600      -0.00001392
H       13.54790892       5.27398344       5.50852911       0.00000403       0.00000350       0.00000534
H        4.86061557       2.96510517       8.37540791       0.00000667      -0.00001420      -0.00000296
H       12.46013680       9.73447909       4.75617030       0.00000414      -0.00000318      -0.00000509
H        2.72884181       8.94906961       7.53883865       0.00000745       0.00000463      -0.00000520
H       15.03821611       4.03920135       7.04278470      -0.00000563       0.00000343       0.00000322
H        6.43423609       2.61596359       9.09162302       0.00001725       0.00000261       0.00001010
H       11.29274479      -1.52755999       6.92914745       0.00000437      -0.00000355      -0.00000395
H        1.19969210       8.56697757       6.75288789       0.00000738      -0.00000791       0.00000494
H       14.23001232       6.75672073       9.34884145       0.00000299       0.00001919       0.00000480
C        5.66658447       1.12797626       7.96277757       0.00004031      -0.00001029       0.00001498
C       11.72615556      11.45506437       5.60773670      -0.00000211      -0.00000169      -0.00000715
C        1.94168668       7.10040632       7.93044197      -0.00001379      -0.00001419      -0.00000035
C       15.50399646       5.69999408       5.95253335      -0.00000140      -0.00000164      -0.00000709
N        4.72950080       0.64971639       7.17792815      -0.00002200      -0.00002201      -0.00002253
N       12.76397970      11.81370993       6.32812940       0.00001006      -0.00001779      -0.00000572
N        1.97131343       8.25304389       2.78532008      -0.00000483      -0.00002788       0.00001357
N       14.34837462       5.89094669       5.35861972      -0.00000144      -0.00000936      -0.00000432
N        5.63781171       2.31840183       8.51986722      -0.00002108       0.00001968       0.00000019
N       11.65688691      10.35943213       4.88641731       0.00000490       0.00001045       0.00000804
N        1.97132240       8.28678689       7.36425515      -0.00000983       0.00001972      -0.00000471
N       15.76829018       4.70637112       6.77143643       0.00001583       0.00000623       0.00000339
Pb       0.09373095       2.39034001       6.04326585      -0.00000913       0.00000439      -0.00000173
Pb      17.39468022      10.23603452       8.25545740       0.00000492      -0.00000224       0.00000238
Pb       7.49317177       8.18423000       5.35954259       0.00000840      -0.00000060      -0.00000259
Pb       9.66366275       4.59701282       7.83456787      -0.00000096      -0.00000778       0.00000554
I       38.15496373       4.02439798       8.56088890       0.00000117      -0.00000506       0.00000055
I       37.98771918       8.04487182       5.74780512       0.00000459       0.00000144       0.00000052
I        8.53602551      10.24112617       7.65217560      -0.00000100      -0.00000248      -0.00000074
I        8.80667560       2.45653487       5.57054146      -0.00000305      -0.00000738       0.00000782
I       16.64750215       0.79321278       6.49344132      -0.00000639       0.00000669       0.00000254
I        0.93069383      11.98810868       7.86965873       0.00000377      -0.00000184      -0.00000300
I       10.53590290       6.75386498       5.51199045       0.00000090      -0.00000104      -0.00000253
I        6.59633520       6.02293904       7.69053115      -0.00000020      -0.00000211      -0.00000022
I        2.94329137       3.65927852       6.20372043       0.00000137      -0.00000063       0.00000443
I       14.56354678       8.90504123       7.91405361      -0.00000675      -0.00000260      -0.00000976
I        4.68288884       9.57423372       5.11114244      -0.00000288       0.00000206       0.00000563
I       12.55821029       3.40623622       7.64289129      -0.00000313       0.00000069       0.00000126
H        6.43298894      12.25175662      12.52716933       0.00000561      -0.00000299       0.00000608
H       10.85560484      12.15359411      10.19321969      -0.00000135       0.00000833       0.00000754
H        1.10356448       6.47192517      12.27100012       0.00000939       0.00000251       0.00000564
H       16.30484906       6.45220310      10.32862762      -0.00001300      -0.00001859       0.00000992
H        4.62844551      11.68626850       6.57658633      -0.00000602       0.00001074       0.00000324
H       12.74303007      12.74280626      11.41157067       0.00000335      -0.00000110      -0.00000223
H        2.77721791       5.70845489       9.15778793      -0.00000893      -0.00000267      -0.00000744
H       16.69511426       4.64955336      11.77532174       0.00000042       0.00000656       0.00000931
H        4.86061849       2.99886757      12.95446117       0.00000195      -0.00000613      -0.00001358
H       13.60090310      11.26717311      10.99135518       0.00000419      -0.00000752       0.00000649
H        3.63349828       7.24651502       9.05980870      -0.00000379      -0.00000092      -0.00000218
H       15.03827477       4.07301547      11.62181196      -0.00001079      -0.00000263      -0.00000496
H        3.92001093       1.25250418      11.49196277       0.00000444      -0.00000141       0.00000243
H       12.46019707       9.76823051       9.33514910      -0.00000612      -0.00000570       0.00000180
H        3.63354299       7.28024101      13.63878582      -0.00002764      -0.00001265      -0.00000517
H       13.54788987       5.30774144      10.08759980      -0.00000978      -0.00000587      -0.00000326
H        4.83191839      -0.25721389      11.35506139       0.00000463      -0.00001088      -0.00000328
H       10.88870193      21.97808189      11.77937634       0.00000576      -0.00000253      -0.00000668
H        2.77723425       5.74219710      13.73675552      -0.00000301      -0.00000722       0.00000336
H       16.69516804       4.68332159      16.35420127       0.00000867      -0.00000074       0.00000617
C        5.66659982       1.16176501      12.54172980      -0.00000853      -0.00001340      -0.00001057
C       11.72617765      11.48879899      10.18671831       0.00000745       0.00000906       0.00000627
C        1.94172645       7.13417260      12.50942170      -0.00005046       0.00004230      -0.00002422
C       15.50399415       5.73378057      10.53149374       0.00001223       0.00001428      -0.00002900
N        5.63783015       2.35217092      13.09886237       0.00000940       0.00000696       0.00001589
N       12.76399259      11.84746640      10.90711398      -0.00000811       0.00000797      -0.00001119
N        2.84839342       6.65455440       8.76776347       0.00001740      -0.00001098       0.00000334
N       15.76833042       4.74018703      11.35041910       0.00001145      -0.00000381      -0.00000482
N        4.72949952       0.68352258      11.75688867       0.00000902       0.00000942       0.00000613
N       11.65693324      10.39316607       9.46539794       0.00000458       0.00000185       0.00000838
N        2.84842521       6.68829810      13.34673911       0.00006277       0.00001224       0.00002375
N       14.34834447       5.92470315       9.93762465       0.00001293      -0.00001294       0.00000472
Pb      39.20003478       1.99260047      10.87971415      -0.00000836       0.00001117      -0.00000031
Pb      17.39472349      10.26980071      12.83443993       0.00000304      -0.00000473       0.00000786
Pb       7.49321205       8.21799032       9.93853710       0.00000415       0.00000086      -0.00000581
Pb       9.66368936       4.63075131      12.41355408       0.00001066      -0.00000479       0.00000257
I       38.15502184       4.05816168      13.13988581      -0.00000523       0.00000040       0.00000146
I       37.98777485       8.07863954      10.32679735       0.00000088      -0.00000126       0.00000133
I        8.53608201      10.27488924      12.23116433       0.00000203      -0.00000497       0.00000014
I        8.80670113       2.49027300      10.14952765       0.00000343       0.00001191       0.00000147
I       16.64755472       0.82699418      11.07243208      -0.00000106      -0.00000504       0.00000321
I        0.93073786      12.02188986      12.44865304      -0.00000512      -0.00000098      -0.00000018
I       10.53593452       6.78760544      10.09097611      -0.00000066       0.00000166      -0.00000109
I        6.59637205       6.05669051      12.26951836      -0.00000075      -0.00000657      -0.00000728
I        2.94330537       3.69306976      10.78269746       0.00000804      -0.00000053       0.00000772
I       14.56358673       8.93882108      12.49302899      -0.00001064      -0.00000921      -0.00000513
I        4.68292239       9.60797586       9.69012337      -0.00000145       0.00000383      -0.00000196
I       12.55825330       3.43998531      12.22188165      -0.00000270       0.00000279      -0.00000121
H        6.43303130      12.28548349      17.10613019       0.00000186      -0.00000000       0.00000203
H       10.85565578      12.18736974      14.77218748       0.00000122       0.00000281      -0.00000042
H        1.10359736       6.50570454      16.85003931      -0.00000511      -0.00000466      -0.00000397
H       16.30484685       6.48600081      14.90755869       0.00000676      -0.00000565       0.00000563
H        6.53184914      14.30203086      13.62823318       0.00000034      -0.00000515       0.00000777
H       12.74307385      12.77662373      15.99053171       0.00000066      -0.00000501       0.00000300
H        1.19976116       8.60076237      11.33187371      -0.00003270       0.00000216      -0.00001365
H       14.23000225       6.79049197      13.92779336       0.00000326      -0.00000163       0.00000630
H        3.92009454       1.28625998      16.07098233       0.00000844      -0.00000375       0.00000040
H       13.60095471      11.30098295      15.57035595       0.00000348      -0.00000015       0.00000170
H        2.72891491       8.98282523      12.11782992      -0.00000731      -0.00000580      -0.00000201
H       13.54791667       5.34147248      14.66650841      -0.00000301      -0.00000324       0.00000298
H        4.86068310       3.03263048      17.53347733       0.00000054      -0.00000239       0.00000249
H       12.46026218       9.80198437      13.91420305      -0.00000445      -0.00000721      -0.00000994
H        2.72895805       9.01659314      16.69682066       0.00001536       0.00002361      -0.00000481
H       15.03834832       4.10673790      16.20067769      -0.00000064       0.00001405       0.00000165
H        6.43433493       2.68350144      18.24962736       0.00000643      -0.00000125      -0.00000164
H       11.29287210      -1.45999003      16.08717331       0.00000180      -0.00000726      -0.00000616
H        1.19979524       8.63452668      15.91088000       0.00002204      -0.00000752       0.00001195
H       14.23001101       6.68918277       0.19078375      -0.00000623       0.00001480       0.00000654
C        5.66669070       1.19554242      17.12073818       0.00000191       0.00000210      -0.00000266
C       11.72623120      11.52257751      14.76570955      -0.00000878      -0.00000359       0.00000816
C        1.94176280       7.16795226      17.08844574      -0.00000536       0.00001137      -0.00000673
C       15.50401433       5.76754906      15.11040579       0.00000499      -0.00001904       0.00000906
N        4.72959447       0.71729034      16.33589889      -0.00001054       0.00000654      -0.00000632
N       12.76404255      11.88127138      15.48609637       0.00000400      -0.00000396      -0.00000549
N        1.97138089       8.32055840      11.94324572       0.00004644      -0.00002187       0.00002486
N       14.34835529       5.95845974      14.51655243      -0.00000086       0.00002897      -0.00002047
N        5.63790312       2.38594398      17.67787911       0.00000446       0.00000436       0.00000682
N       11.65699403      10.42691853      14.04442736      -0.00000538       0.00000819       0.00000045
N        1.97142151       8.35432751      16.52224834      -0.00004117      -0.00002771      -0.00000874
N       15.76838486       4.77393411      15.92929469      -0.00000728       0.00000097       0.00000055
Pb       0.09382052       2.45787270      15.20124224      -0.00000693       0.00000562      -0.00000366
Pb      17.39476169      10.30356678      17.41342210       0.00000170       0.00000051       0.00000284
Pb       7.49324864       8.25174842      14.51751108       0.00000369       0.00000322       0.00000060
Pb       9.66375497       4.66451636      16.99253405       0.00000898      -0.00000068       0.00000279
I       38.15505112       4.09192289      17.71887302      -0.00000078       0.00000172      -0.00000215
I       37.98781140       8.11238781      14.90577853       0.00000842       0.00000812       0.00000549
I        8.53611144      10.30864013      16.81014250       0.00000316       0.00000328      -0.00000354
I        8.80673722       2.52402772      14.72852257       0.00000147       0.00000612      -0.00000055
I       16.64760339       0.86075248      15.65141524      -0.00000489       0.00000172      -0.00000014
I        0.93076682      12.05565599      17.02762613       0.00000403      -0.00000334       0.00000247
I       10.53597613       6.82136384      14.66993927      -0.00000693      -0.00000193       0.00000124
I        6.59642565       6.09044756      16.84849458      -0.00000198      -0.00000587       0.00000249
I        2.94336458       3.72683519      15.36171279      -0.00000099      -0.00000302      -0.00000189
I       14.56362505       8.97258162      17.07199467      -0.00001343      -0.00000378      -0.00000831
I        4.68295902       9.64173795      14.26909978       0.00000353      -0.00000103       0.00000112
I       12.55832183       3.47375598      16.80086438      -0.00001342       0.00000248       0.00000388
H        6.53117689       0.45510142       3.58928034      -0.00000295      -0.00000039      -0.00000918
H       10.80736331      24.03347421       1.68032455       0.00000769      -0.00000544      -0.00000839
H        1.03331511      18.09045901       3.52419382       0.00000223       0.00001393      -0.00000009
H       16.14011912      17.98924752       1.44316256      -0.00000255      -0.00000452       0.00000139
H        4.83202651      -0.22344129      15.93406216      -0.00000875      -0.00000869      -0.00000171
H       12.48618214      24.76409223       0.23600309       0.00000309      -0.00000016       0.00000397
H        3.05709506      17.67188555      16.26198937       0.00000398      -0.00000470      -0.00000070
H       16.10741994      15.81895452       0.58126682       0.00000573       0.00000422      -0.00000833
H        4.95945451      14.74274008       3.88136332      -0.00000623       0.00000581       0.00000198
H       13.37395800      23.23959105       0.37757993       0.00000698      -0.00000790      -0.00000550
H        3.82730381      19.15975257      16.79416624       0.00000408       0.00000327      -0.00000179
H       14.58989624      15.42783624       1.38108372      -0.00000950       0.00000908       0.00000013
H        3.86594077      13.22470889       2.23380984      -0.00000628       0.00000670      -0.00000103
H       12.44082481      21.53140312       1.86574339       0.00000205      -0.00000877       0.00000470
H        3.82720204      19.05845301       3.05727334       0.00001195       0.00000519      -0.00000482
H       13.63634845      17.15173784       2.83993388      -0.00000648      -0.00000070      -0.00000567
H        4.62835377      11.65252967       1.99755053       0.00000925      -0.00001427       0.00000375
H       10.79991616      10.12630581      -0.21811866      -0.00000339       0.00000081      -0.00000606
H        3.05701219      17.57058540       2.52507057       0.00000230      -0.00000251      -0.00000424
H       16.10743998      15.85268101       5.16026192      -0.00000878       0.00000095      -0.00000325
C        5.62035719      12.90734506       3.24234137       0.00000232      -0.00002010      -0.00000789
C       11.65650673      23.37748100       1.46502616      -0.00001690      -0.00000688       0.00000880
C        1.87670820      18.78144843       3.63350504       0.00000808      -0.00001770      -0.00001834
C       15.32330392      17.30973709       1.70462783      -0.00000519      -0.00001244       0.00000668
N        5.70980258      14.04927108       3.88767949      -0.00000168      -0.00000089      -0.00000640
N       12.58157336      23.82867375       0.64990315       0.00000250       0.00001796      -0.00000809
N        3.00301389      18.55684984      16.78011727      -0.00002143       0.00000703       0.00001343
N       15.33297885      16.10068641       1.18764715       0.00000366       0.00001203       0.00000095
N        4.62702294      12.57275849       2.45283465       0.00001096       0.00001069       0.00000748
N       11.68265181      22.19526584       2.03960263      -0.00000026       0.00001436      -0.00000688
N        3.00291692      18.45554467       3.04320496      -0.00002280       0.00000528       0.00000621
N       14.40029686      17.75886334       2.52210824       0.00000319      -0.00000004      -0.00000919
Pb      39.14805749      13.66773468       1.24049101      -0.00000286       0.00000069       0.00000717
Pb      17.13289216      22.08312949       4.49296645       0.00000461      -0.00000142      -0.00000030
Pb       7.66858552      19.85147161       1.32404859       0.00000012      -0.00000855      -0.00000144
Pb       9.80756861      16.21506232       3.52892862      -0.00000536       0.00001272      -0.00000415
I       38.10888047      15.72822089       3.52588169       0.00000329      -0.00000089       0.00000295
I       37.71712445      19.77501298       1.91842754      -0.00000211      -0.00000504       0.00000345
I        8.50605246      21.99505443       3.61790850       0.00000919       0.00000212       0.00000114
I        8.78093225      14.15128782       1.24378866      -0.00000005      -0.00001367      -0.00000626
I       16.48654534      12.34699560       1.38889140      -0.00000079       0.00000262       0.00000018
I        0.99990870       0.21737556       3.75898089       0.00000487      -0.00000288       0.00000182
I       10.71380720      18.37637942       1.22224080       0.00000270       0.00000018       0.00000201
I        6.77921508      17.69652160       3.62403542       0.00000287      -0.00000645       0.00000241
I        2.87100195      15.44855472       1.06677545       0.00000729      -0.00000322       0.00000228
I       14.30475393      20.77450654       4.47490739      -0.00000185      -0.00000214      -0.00000289
I        4.78042434      21.05698890       1.08073025      -0.00000675       0.00000802       0.00000069
I       12.62699225      14.82352678       3.64168691      -0.00000150       0.00000029       0.00000677
H        6.53121652       0.48886236       8.16831666      -0.00002422       0.00002708      -0.00001354
H       11.21149721       0.59541859       5.98812143       0.00000209       0.00000061      -0.00000553
H        1.03333758      18.12426065       8.10317293       0.00000689       0.00000195       0.00000607
H       16.14019737      18.02296410       6.02217621       0.00000347      -0.00000278       0.00000344
H        6.43422679       2.58218721       4.51262406      -0.00000039       0.00000248       0.00000553
H       12.89026859       1.32602441       4.54373854       0.00000051       0.00000418      -0.00000503
H        0.78191765      20.04651116       4.78249324      -0.00001063       0.00000362      -0.00000026
H       14.44828411      18.75172797       7.46094424      -0.00001322      -0.00000893       0.00000440
H        3.86601867      13.25845191       6.81278241      -0.00000780       0.00000467      -0.00000434
H       13.77801800      -0.19849949       4.68525269       0.00000323       0.00000335       0.00001140
H        2.46373163      20.51066461       4.55585530      -0.00000712      -0.00000737      -0.00000058
H       13.63637691      17.18552582       7.41889943       0.00000219       0.00000853      -0.00000373
H        4.95949103      14.77654286       8.46030810       0.00000106      -0.00001117      -0.00000144
H       12.84492004      -1.90668489       6.17343599       0.00000432       0.00000364       0.00001079
H        2.46378049      20.54450711       9.13470264       0.00000494      -0.00001971       0.00000549
H       14.58988438      15.46160812       5.96004380       0.00001609       0.00000491      -0.00000222
H        6.53183435      14.26825864       9.04929060       0.00001465       0.00000718      -0.00000121
H       10.79994601      10.16013356       4.36084946       0.00000216      -0.00000415       0.00000223
H        0.78197771      20.08035440       9.36140479      -0.00000494       0.00000502       0.00000613
H       14.44828823      18.78549220      12.03988161      -0.00000577      -0.00000705       0.00000096
C        5.62041089      12.94112534       7.82136552       0.00001888       0.00000196       0.00001257
C       12.06061804      -0.06058819       5.77277791      -0.00000286       0.00000527      -0.00001022
C        1.87673467      18.81525344       8.21243123       0.00000375      -0.00000352      -0.00000479
C       15.32335510      17.34347858       6.28362167       0.00000001      -0.00000337      -0.00001385
N        4.62709828      12.60651054       7.03184455      -0.00000135      -0.00001319      -0.00001228
N       12.98565542       0.39059580       4.95761609       0.00000897       0.00000043      -0.00000092
N        1.68885298      19.87467044       4.33901059       0.00000061       0.00001112       0.00000397
N       14.40034784      17.79262956       7.10108699      -0.00002520       0.00002342       0.00003054
N        5.70983768      14.08307272       8.46666869      -0.00001744      -0.00000469      -0.00001292
N       12.08676788      -1.24280943       6.34734067       0.00000100      -0.00000836       0.00000160
N        1.68889907      19.90850424       8.91789775      -0.00000524       0.00000940       0.00000429
N       15.33299694      16.13443277       5.76663062       0.00001799      -0.00002452      -0.00001300
Pb       0.04183283      14.13298836       5.56202124       0.00000158       0.00000683      -0.00000780
Pb      17.13292262      22.11689839       9.07195798       0.00000646      -0.00000879       0.00000539
Pb       7.66864056      19.88521910       5.90303564      -0.00000091      -0.00000534       0.00000230
Pb       9.80759656      16.24883322       8.10792240      -0.00000364       0.00000327      -0.00000056
I       38.10893623      15.76198604       8.10485728       0.00000021       0.00000711       0.00000068
I       37.71714258      19.80877134       6.49740481       0.00000532       0.00000194      -0.00000215
I        8.50609137      22.02880932       8.19688895       0.00000172       0.00000753       0.00000448
I        8.78098178      14.18504520       5.82277363       0.00000199      -0.00000193      -0.00000256