768
Lattice="31.37048509356606 -0.32885260486455975 0.14566796952086367 0.3144174725544436 30.20159806008629 0.4553123812002925 -0.08126837006564366 -0.2542995801736263 16.922434056252868" Properties=species:S:1:pos:R:3:forces:R:3 energy=-3662.035965199279 stress="3.128802183757121e-08 -1.9756455084902352e-08 7.381468047552134e-09 -1.9756455084902352e-08 -1.1551541443385374e-08 -1.04785536282665e-08 7.381468047552134e-09 -1.04785536282665e-08 7.66667096636182e-08" free_energy=-3662.035965199279 pbc="T T T"
H       29.35656441       5.93097374       2.03450655      -0.00000751       0.00001171      -0.00001937
H       28.18878782       4.05485399       2.72451545      -0.00000595       0.00001107       0.00000818
H       29.46301257       3.48921620       3.77996698      -0.00000791       0.00000241      -0.00000886
H       31.55341544       4.98542283       3.83623060      -0.00001757       0.00000184      -0.00002223
H       31.45996204       6.39704090       2.80671973       0.00000147       0.00002269      -0.00000592
H        3.64484261       6.69060124      14.61742547       0.00001313      -0.00002197      -0.00000662
H        1.53421204       6.20196756      15.35519954       0.00000159       0.00002222       0.00000273
H        1.43080923       7.58206830      16.42567408      -0.00000518      -0.00002720      -0.00001558
H        3.52150806       9.07887032      16.43431804      -0.00000783      -0.00000613      -0.00000780
H        4.80580997       8.54493351      15.37457302       0.00001165       0.00000258       0.00000902
C       29.81145926       5.24984223       2.75659842       0.00001800      -0.00001792       0.00002218
C        3.18301591       7.34983364      15.35527040      -0.00001568       0.00001850       0.00001805
N       29.11180871       4.20633465       3.13553012      -0.00000355       0.00001279      -0.00002355
N       31.01986005       5.55255854       3.17192175      -0.00000950      -0.00002742       0.00002016
N        1.97073377       7.03502083      15.74976753       0.00000650       0.00000646      -0.00000042
N        3.87891966       8.38135770      15.77202285      -0.00000311       0.00002285      -0.00001115
Pb       0.32467820       2.55085201      15.68643968      -0.00000321      -0.00001431      -0.00000169
Pb      27.77498004       2.34590653      15.75705834      -0.00000975       0.00000247      -0.00000220
I        2.44029888       4.06961443       1.00816315       0.00000395      -0.00000895       0.00001313
I       30.81791182       8.62084621       1.06050734       0.00002886       0.00000229       0.00000331
I        2.23398661       4.15865850       5.08788895      -0.00001433      -0.00000171       0.00000397
I       30.61025351       8.70536633       5.44475375       0.00000220      -0.00000759      -0.00000157
I        3.17878161       7.74440133       3.02695664      -0.00000350       0.00000556       0.00000850
I       29.81224719       4.84448663      15.80622866      -0.00000196      -0.00000640       0.00001214
H       31.15485805      13.23835948      17.08411982       0.00000455      -0.00000833      -0.00000131
H       32.28366837      11.36006230      16.33748119      -0.00000278       0.00000838      -0.00000151
H       30.99828625      10.85306034      15.26588775      -0.00000439      -0.00002770      -0.00001582
H       28.93939458      12.39332310      15.25544068       0.00001397       0.00000345       0.00002361
H       29.06181307      13.77102619      16.32699858      -0.00000734       0.00001656       0.00000489
H        1.98228857      14.41698921       4.26675018       0.00001758      -0.00000338       0.00000527
H        0.86056974      16.31711948       3.56612568      -0.00000930      -0.00002474       0.00000228
H        2.15611915      16.85582388       2.52261466       0.00001468      -0.00001515       0.00000870
H        4.21512939      15.31610829       2.48561656       0.00000190       0.00001165      -0.00000177
H        8.70318481      16.23486023       3.60240152       0.00001078      -0.00000690       0.00000831
C       30.68614464      12.58888380      16.34197654      -0.00001266       0.00000706      -0.00000683
C        2.45805719      15.08836842       3.54898885      -0.00000221       0.00000041      -0.00000208
N       31.36410839      11.54298415      15.93152965      -0.00000912       0.00000587       0.00002346
N       29.48440468      12.92898233      15.93636902       0.00002998      -0.00001294      -0.00002605
N        1.78398993      16.14628260       3.16368663      -0.00001002       0.00003258      -0.00000453
N        3.66365091      14.76034349       3.14487739      -0.00000026      -0.00001142      -0.00000001
Pb       1.29533164      10.36521207       3.11349352       0.00000542      -0.00000270       0.00000027
Pb      28.74393230       9.99640031       3.18174003      -0.00000828       0.00000484       0.00000518
I        3.37795988      11.69718920       5.25400478       0.00000442      -0.00000705      -0.00000803
I       30.00098744      16.26678054       5.29821812       0.00000090      -0.00000029      -0.00000989
I        3.20922413      11.61661679       0.86800580      -0.00000388      -0.00000059      -0.00000221
I       29.83071794      16.18170904       1.21675458       0.00000870       0.00000674      -0.00000472
I        2.46667650      15.11090545      15.88357015      -0.00001145      -0.00000637       0.00000850
I       30.68103992      12.57715056       3.28598173       0.00000211      -0.00000354      -0.00000127
H        5.82854170       6.17755076       1.92524762       0.00001285       0.00001110       0.00000090
H        4.66080433       4.30148082       2.61544204       0.00001156       0.00001091      -0.00002820
H        5.93512087       3.73585786       3.67078702       0.00000271      -0.00001231       0.00000248
H        8.02554530       5.23204452       3.72680864       0.00000814      -0.00000792       0.00000563
H        7.93201239       6.64362959       2.69724920      -0.00000847       0.00000254       0.00000663
H       11.48759347       6.60844254      14.65383734      -0.00000085      -0.00001850      -0.00000766
H        9.37689517       6.11979637      15.39139728       0.00000986      -0.00000265       0.00000791
H        9.27341456       7.49984079      16.46194245       0.00000233      -0.00001851      -0.00001891
H       11.36413220       8.99662974      16.47082426      -0.00000070       0.00002079       0.00000343
H       12.64851611       8.46272075      15.41116700       0.00000335       0.00000928       0.00000228
C        6.28349873       5.49644227       2.64732239       0.00001338      -0.00000034       0.00001000
C       11.02570760       7.26764561      15.39167119       0.00001672       0.00000380      -0.00000751
N        5.58386899       4.45295856       3.02635750      -0.00000449       0.00001615      -0.00000728
N        7.49194186       5.79915929       3.06252242      -0.00002568      -0.00000752      -0.00000766
N        9.81338813       6.95282685      15.78604762      -0.00000992       0.00002672       0.00002624
N       11.72159030       8.29914180      15.80852938      -0.00002990      -0.00001683      -0.00001272
Pb       8.16729763       2.46865671      15.72284501       0.00000110      -0.00000876      -0.00000261
Pb       4.24712798       2.59251580      15.64782717      -0.00000336       0.00001204       0.00000658
I       10.28293593       3.98742151       1.04456993       0.00001115      -0.00000605       0.00000274
I        7.29010635       8.86744283       0.95124097       0.00000441       0.00000051      -0.00001434
I       10.07656620       4.07645436       5.12427153       0.00001462      -0.00000815      -0.00000072
I        7.08232548       8.95193026       5.33547128       0.00000755       0.00000769      -0.00000466
I       11.02145120       7.66217605       3.06341822       0.00000335       0.00000074      -0.00000652
I        6.28435911       5.09111260      15.69700371      -0.00001061      -0.00000242      -0.00000315
H        7.62710064      13.48496372      16.97479996       0.00001136      -0.00000605       0.00000715
H        8.75578844      11.60657899      16.22820767      -0.00001603       0.00000581       0.00001590
H        7.47036600      11.09961619      15.15664544      -0.00000670      -0.00002714      -0.00002619
H        5.41157053      12.64001524      15.14616368       0.00001619       0.00000863       0.00001165
H        5.53408533      14.01774075      16.21768693       0.00000031       0.00000970       0.00000029
H        9.82488414      14.33476771       4.30315238       0.00000760      -0.00001442       0.00000865
H       11.92516909      13.82461541       3.55059020      -0.00000064      -0.00000407      -0.00000110
H       12.05780780      15.23384538       2.52210251      -0.00001249      -0.00000585       0.00001170
H        9.99878660      16.77354736       2.55894845       0.00001014       0.00000116      -0.00000194
H        4.08253162      13.90684620       3.51406116      -0.00000517       0.00000755       0.00000490
C        7.15833899      12.83549561      16.23268120      -0.00001143      -0.00000897       0.00000420
C       10.30068479      15.00612601       3.58539335      -0.00000235       0.00001015      -0.00000734
N        7.83623001      11.78953516      15.82226867       0.00001348       0.00002894       0.00001170
N        5.95662148      13.17566377      15.82706718      -0.00001659      -0.00004196      -0.00000901
N       11.50630099      14.67809641       3.18135454       0.00001870       0.00002983      -0.00001355
N        9.62662906      16.06402220       3.20002014      -0.00004187       0.00002174       0.00002959
Pb       9.13795642      10.28294784       3.14993780       0.00000040      -0.00000117      -0.00000271
Pb       5.21607541      10.24302425       3.07243337      -0.00000629       0.00000120       0.00001136
I       11.22054213      11.61495945       5.29047168       0.00000684      -0.00000517      -0.00000491
I        6.47312769      16.51340330       5.18897055       0.00000456       0.00000269      -0.00001013
I       11.05182184      11.53439811       0.90447185      -0.00000335      -0.00000312       0.00000104
I        6.30288832      16.42831997       1.10749917       0.00000161       0.00000598       0.00001324
I       10.30930946      15.02870629      15.91999641       0.00000221      -0.00000295      -0.00000424
I        7.15318700      12.82375063       3.17670621      -0.00000361       0.00000295      -0.00000203
H       29.31593023       5.80382395      10.49572358      -0.00000752       0.00001170      -0.00001937
H       28.14815364       3.92770420      11.18573248      -0.00000595       0.00001107       0.00000818
H       29.42237839       3.36206641      12.24118401      -0.00000791       0.00000240      -0.00000885
H       31.51278125       4.85827304      12.29744763      -0.00001742       0.00000177      -0.00002210
H       31.41932785       6.26989111      11.26793676       0.00000160       0.00002282      -0.00000595
H        3.68547679       6.81775103       6.15620844       0.00001313      -0.00002197      -0.00000662
H        1.57484622       6.32911735       6.89398251       0.00000158       0.00002223       0.00000273
H        1.47144341       7.70921809       7.96445705      -0.00000518      -0.00002720      -0.00001557
H        3.56214224       9.20602011       7.97310101      -0.00000783      -0.00000613      -0.00000780
H        4.84644415       8.67208330       6.91335599       0.00001164       0.00000258       0.00000902
C       29.77082508       5.12269244      11.21781545       0.00001797      -0.00001793       0.00002217
C        3.22365009       7.47698343       6.89405337      -0.00001568       0.00001850       0.00001805
N       29.07117453       4.07918486      11.59674715      -0.00000355       0.00001279      -0.00002356
N       30.97922587       5.42540875      11.63313878      -0.00000975      -0.00002746       0.00002007
N        2.01136795       7.16217062       7.28855050       0.00000651       0.00000646      -0.00000043
N        3.91955384       8.50850749       7.31080582      -0.00000310       0.00002285      -0.00001115
Pb       0.36531238       2.67800180       7.22522265      -0.00000319      -0.00001431      -0.00000167
Pb      27.81561423       2.47305633       7.29584131      -0.00000977       0.00000245      -0.00000219
I        2.39966469       3.94246464       9.46938018       0.00000395      -0.00000895       0.00001312
I       30.77727764       8.49369642       9.52172437       0.00002884       0.00000229       0.00000330
I        2.19335242       4.03150871      13.54910598      -0.00001431      -0.00000171       0.00000397
I       30.56961933       8.57821654      13.90597078       0.00000219      -0.00000760      -0.00000157
I        3.13814742       7.61725154      11.48817367      -0.00000349       0.00000556       0.00000850
I       29.85288138       4.97163643       7.34501163      -0.00000196      -0.00000642       0.00001215
H       31.19549224      13.36550928       8.62290279       0.00000455      -0.00000834      -0.00000130
H       32.32430255      11.48721209       7.87626416      -0.00000252       0.00000837      -0.00000138
H       31.03892044      10.98021014       6.80467072      -0.00000441      -0.00002769      -0.00001582
H       28.98002877      12.52047290       6.79422365       0.00001397       0.00000345       0.00002361
H       29.10244726      13.89817599       7.86578155      -0.00000733       0.00001657       0.00000489
H        1.94165438      14.28983942      12.72796721       0.00001758      -0.00000338       0.00000527
H        0.81993555      16.18996969      12.02734271      -0.00000930      -0.00002474       0.00000228
H        2.11548496      16.72867409      10.98383169       0.00001468      -0.00001515       0.00000870
H        4.17449520      15.18895850      10.94683359       0.00000190       0.00001165      -0.00000177
H        8.66255062      16.10771044      12.06361855       0.00001078      -0.00000690       0.00000831
C       30.72677883      12.71603360       7.88075951      -0.00001266       0.00000706      -0.00000681
C        2.41742300      14.96121863      12.01020588      -0.00000221       0.00000042      -0.00000208
N       31.40474258      11.67013395       7.47031262      -0.00000938       0.00000586       0.00002332
N       29.52503887      13.05613213       7.47515199       0.00002998      -0.00001294      -0.00002606
N        1.74335574      16.01913281      11.62490366      -0.00001001       0.00003258      -0.00000453
N        3.62301672      14.63319370      11.60609442      -0.00000026      -0.00001142      -0.00000002
Pb       1.25469745      10.23806228      11.57471055       0.00000545      -0.00000270       0.00000028
Pb      28.70329812       9.86925052      11.64295706      -0.00000831       0.00000484       0.00000518
I        3.33732569      11.57003941      13.71522181       0.00000443      -0.00000705      -0.00000803
I       29.96035326      16.13963075      13.75943515       0.00000089      -0.00000029      -0.00000989
I        3.16858994      11.48946700       9.32922283      -0.00000387      -0.00000059      -0.00000221
I       29.79008376      16.05455925       9.67797161       0.00000869       0.00000675      -0.00000472
I        2.50731068      15.23805524       7.42235312      -0.00001145      -0.00000637       0.00000850
I       30.64040574      12.45000077      11.74719876       0.00000209      -0.00000354      -0.00000127
H        5.78790751       6.05040097      10.38646465       0.00001285       0.00001111       0.00000090
H        4.62017014       4.17433103      11.07665907       0.00001156       0.00001091      -0.00002820
H        5.89448668       3.60870807      12.13200405       0.00000271      -0.00001231       0.00000248
H        7.98491111       5.10489473      12.18802567       0.00000814      -0.00000793       0.00000563
H        7.89137820       6.51647980      11.15846623      -0.00000847       0.00000254       0.00000663
H       11.52822765       6.73559233       6.19262031      -0.00000085      -0.00001850      -0.00000766
H        9.41752935       6.24694616       6.93018025       0.00000986      -0.00000265       0.00000792
H        9.31404874       7.62699058       8.00072542       0.00000233      -0.00001851      -0.00001891
H       11.40476638       9.12377953       8.00960723      -0.00000070       0.00002079       0.00000343
H       12.68915029       8.58987054       6.94994997       0.00000335       0.00000928       0.00000228
C        6.24286454       5.36929248      11.10853942       0.00001338      -0.00000034       0.00001000
C       11.06634178       7.39479540       6.93045416       0.00001672       0.00000380      -0.00000751
N        5.54323480       4.32580877      11.48757453      -0.00000449       0.00001615      -0.00000727
N        7.45130767       5.67200950      11.52373945      -0.00002568      -0.00000752      -0.00000766
N        9.85402231       7.07997664       7.32483059      -0.00000992       0.00002672       0.00002624
N       11.76222448       8.42629159       7.34731235      -0.00002989      -0.00001683      -0.00001272
Pb       8.20793181       2.59580650       7.26162798       0.00000111      -0.00000876      -0.00000260
Pb       4.28776216       2.71966559       7.18661014      -0.00000335       0.00001204       0.00000660
I       10.24230174       3.86027172       9.50578696       0.00001115      -0.00000606       0.00000273
I        7.24947216       8.74029304       9.41245800       0.00000441       0.00000051      -0.00001435
I       10.03593201       3.94930457      13.58548856       0.00001463      -0.00000815      -0.00000073
I        7.04169129       8.82478047      13.79668831       0.00000756       0.00000769      -0.00000466
I       10.98081701       7.53502626      11.52463525       0.00000335       0.00000074      -0.00000652
I        6.32499329       5.21826239       7.23578668      -0.00001060      -0.00000242      -0.00000315
H        7.66773482      13.61211351       8.51358293       0.00001136      -0.00000605       0.00000715
H        8.79642262      11.73372878       7.76699064      -0.00001604       0.00000581       0.00001590
H        7.51100018      11.22676598       6.69542841      -0.00000670      -0.00002714      -0.00002619
H        5.45220471      12.76716503       6.68494665       0.00001618       0.00000863       0.00001165
H        5.57471951      14.14489054       7.75646990       0.00000031       0.00000970       0.00000030
H        9.78424995      14.20761792      12.76436941       0.00000760      -0.00001442       0.00000865
H       11.88453490      13.69746562      12.01180723      -0.00000064      -0.00000407      -0.00000110
H       12.01717361      15.10669559      10.98331954      -0.00001249      -0.00000585       0.00001169
H        9.95815241      16.64639757      11.02016548       0.00001014       0.00000116      -0.00000194
H        4.04189743      13.77969641      11.97527819      -0.00000517       0.00000755       0.00000490
C        7.19897317      12.96264540       7.77146417      -0.00001143      -0.00000897       0.00000420
C       10.26005060      14.87897622      12.04661038      -0.00000235       0.00001015      -0.00000734
N        7.87686419      11.91668495       7.36105164       0.00001348       0.00002894       0.00001170
N        5.99725566      13.30281356       7.36585015      -0.00001658      -0.00004195      -0.00000900
N       11.46566680      14.55094662      11.64257157       0.00001870       0.00002983      -0.00001355
N        9.58599487      15.93687241      11.66123717      -0.00004187       0.00002174       0.00002959
Pb       9.09732223      10.15579805      11.61115483       0.00000040      -0.00000117      -0.00000271
Pb       5.17544122      10.11587446      11.53365040      -0.00000629       0.00000120       0.00001136
I       11.17990794      11.48780966      13.75168871       0.00000684      -0.00000517      -0.00000491
I        6.43249350      16.38625351      13.65018758       0.00000458       0.00000269      -0.00001013
I       11.01118765      11.40724832       9.36568888      -0.00000335      -0.00000312       0.00000104
I        6.26225413      16.30117018       9.56871620       0.00000161       0.00000598       0.00001323
I       10.34994364      15.15585608       7.45877938       0.00000222      -0.00000294      -0.00000424
I        7.11255281      12.69660084      11.63792324      -0.00000361       0.00000295      -0.00000203
H       29.51377315      21.03177277       2.26216274      -0.00000751       0.00001171      -0.00001937
H       28.34599656      19.15565302       2.95217164      -0.00000596       0.00001107       0.00000818
H       29.62022131      18.59001523       4.00762317      -0.00000791       0.00000241      -0.00000885
H       31.71062418      20.08622186       4.06388679      -0.00001757       0.00000184      -0.00002223
H       31.61717078      21.49783993       3.03437592       0.00000147       0.00002269      -0.00000592
H        3.80205135      21.79140027      14.84508166       0.00001313      -0.00002197      -0.00000662
H        1.69142078      21.30276659      15.58285573       0.00000158       0.00002222       0.00000273
H        1.58801797      22.68286733      16.65333027      -0.00000518      -0.00002720      -0.00001558
H        3.67871680      24.17966935      16.66197423      -0.00000783      -0.00000613      -0.00000780
H        4.96301871      23.64573254      15.60222921       0.00001165       0.00000258       0.00000902
C       29.96866800      20.35064126       2.98425461       0.00001800      -0.00001792       0.00002218
C        3.34022465      22.45063267      15.58292659      -0.00001568       0.00001850       0.00001805
N       29.26901745      19.30713368       3.36318631      -0.00000355       0.00001279      -0.00002355
N       31.17706879      20.65335757       3.39957794      -0.00000950      -0.00002742       0.00002016
N        2.12794251      22.13581986      15.97742372       0.00000650       0.00000647      -0.00000042
N        4.03612840      23.48215673      15.99967904      -0.00000311       0.00002285      -0.00001115
Pb       0.48188694      17.65165104      15.91409587      -0.00000322      -0.00001431      -0.00000168
Pb      27.93218878      17.44670557      15.98471453      -0.00000976       0.00000245      -0.00000219
I        2.59750762      19.17041346       1.23581934       0.00000394      -0.00000894       0.00001313
I       30.97512056      23.72164524       1.28816353       0.00002885       0.00000230       0.00000331
I        2.39119535      19.25945753       5.31554514      -0.00001433      -0.00000171       0.00000397
I       30.76746225      23.80616536       5.67240994       0.00000220      -0.00000759      -0.00000158
I        3.33599035      22.84520036       3.25461283      -0.00000350       0.00000556       0.00000850
I       29.96945593      19.94528567      16.03388485      -0.00000195      -0.00000642       0.00001214
H       31.31206679      28.33915852      17.31177601       0.00000455      -0.00000833      -0.00000131
H       32.44087711      26.46086133      16.56513738      -0.00000285       0.00000844      -0.00000152
H       31.15549499      25.95385938      15.49354394      -0.00000441      -0.00002769      -0.00001582
H       29.09660332      27.49412214      15.48309687       0.00001397       0.00000345       0.00002361
H       29.21902181      28.87182523      16.55465477      -0.00000733       0.00001656       0.00000489
H        1.82507984      -0.68380982       4.03909399       0.00001750      -0.00000344       0.00000535
H        0.70336100       1.21632045       3.33846949      -0.00000930      -0.00002474       0.00000228
H        1.99891041       1.75502485       2.29495847       0.00001468      -0.00001515       0.00000870
H        4.05792065       0.21530926       2.25796037       0.00000201       0.00001173      -0.00000188
H        8.54597607       1.13406120       3.37474533       0.00001077      -0.00000690       0.00000832
C       30.84335338      27.68968284      16.56963273      -0.00001264       0.00000705      -0.00000681
C        2.30084845      -0.01243061       3.32133266      -0.00000180       0.00000040      -0.00000226
N       31.52131713      26.64378319      16.15918584      -0.00000906       0.00000580       0.00002345
N       29.64161342      28.02978137      16.16402521       0.00002998      -0.00001294      -0.00002606
N        1.62678119       1.04548357       2.93603044      -0.00000999       0.00003253      -0.00000452
N        3.50644218      -0.34045554       2.91722120      -0.00000072      -0.00001139       0.00000019
Pb       1.45254038      25.46601110       3.34114971       0.00000543      -0.00000270       0.00000027
Pb      28.90114104      25.09719934       3.40939622      -0.00000830       0.00000484       0.00000520
I        3.53516862      26.79798823       5.48166097       0.00000442      -0.00000706      -0.00000803
I       29.84377871       1.16598151       5.07056193       0.00000089      -0.00000030      -0.00000990
I        3.36643287      26.71741582       1.09566199      -0.00000388      -0.00000059      -0.00000221
I       29.67350921       1.08091001       0.98909839       0.00000868       0.00000674      -0.00000470
I        2.30946776       0.01010642      15.65591396      -0.00001144      -0.00000638       0.00000850
I       30.83824866      27.67794959       3.51363792       0.00000210      -0.00000355      -0.00000127
H        5.98575044      21.27834979       2.15290381       0.00001285       0.00001110       0.00000090
H        4.81801307      19.40227985       2.84309823       0.00001155       0.00001091      -0.00002820
H        6.09232961      18.83665689       3.89844321       0.00000271      -0.00001231       0.00000248
H        8.18275404      20.33284355       3.95446483       0.00000814      -0.00000792       0.00000563
H        8.08922113      21.74442862       2.92490539      -0.00000847       0.00000254       0.00000663
H       11.64480221      21.70924157      14.88149353      -0.00000085      -0.00001850      -0.00000766
H        9.53410391      21.22059540      15.61905347       0.00000986      -0.00000265       0.00000791
H        9.43062330      22.60063982      16.68959864       0.00000233      -0.00001851      -0.00001891
H       11.52134094      24.09742877      16.69848045      -0.00000070       0.00002079       0.00000343
H       12.80572485      23.56351978      15.63882319       0.00000335       0.00000928       0.00000228
C        6.44070747      20.59724130       2.87497858       0.00001338      -0.00000034       0.00001000
C       11.18291634      22.36844464      15.61932738       0.00001672       0.00000380      -0.00000751
N        5.74107773      19.55375759       3.25401369      -0.00000449       0.00001615      -0.00000728
N        7.64915060      20.89995832       3.29017861      -0.00002567      -0.00000752      -0.00000766
N        9.97059687      22.05362588      16.01370381      -0.00000992       0.00002672       0.00002624
N       11.87879904      23.39994083      16.03618557      -0.00002990      -0.00001683      -0.00001272
Pb       8.32450637      17.56945574      15.95050120       0.00000108      -0.00000876      -0.00000261
Pb       4.40433672      17.69331483      15.87548336      -0.00000336       0.00001204       0.00000658
I       10.44014467      19.08822054       1.27222612       0.00001114      -0.00000605       0.00000274
I        7.44731509      23.96824186       1.17889716       0.00000441       0.00000051      -0.00001434
I       10.23377494      19.17725339       5.35192772       0.00001462      -0.00000815      -0.00000072
I        7.23953422      24.05272929       5.56312747       0.00000755       0.00000769      -0.00000466
I       11.17865994      22.76297508       3.29107441       0.00000334       0.00000073      -0.00000652
I        6.44156785      20.19191163      15.92465990      -0.00001060      -0.00000242      -0.00000315
H        7.78430938      28.58576275      17.20245615       0.00001136      -0.00000605       0.00000715
H        8.91299718      26.70737802      16.45586386      -0.00001603       0.00000581       0.00001590
H        7.62757474      26.20041522      15.38430163      -0.00000670      -0.00002714      -0.00002619
H        5.56877927      27.74081427      15.37381987       0.00001619       0.00000863       0.00001165
H        5.69129407      29.11853978      16.44534312       0.00000031       0.00000970       0.00000030
H        9.66767541      -0.76603132       4.07549619       0.00000752      -0.00001449       0.00000873
H       11.76796036      -1.27618362       3.32293401      -0.00000064      -0.00000406      -0.00000110
H       11.90059906       0.13304635       2.29444632      -0.00001238      -0.00000576       0.00001158
H        9.84157786       1.67274833       2.33129226       0.00001014       0.00000116      -0.00000194
H        3.92532289      -1.19395283       3.28640497      -0.00000518       0.00000756       0.00000490
C        7.31554773      27.93629464      16.46033739      -0.00001143      -0.00000897       0.00000420
C       10.14347605      -0.09467302       3.35773716      -0.00000195       0.00001013      -0.00000752
N        7.99343875      26.89033419      16.04992486       0.00001348       0.00002894       0.00001170
N        6.11383022      28.27646280      16.05472337      -0.00001659      -0.00004196      -0.00000901
N       11.34909226      -0.42270262       2.95369835       0.00001824       0.00002986      -0.00001334
N        9.46942032       0.96322317       2.97236395      -0.00004184       0.00002170       0.00002960