96
Lattice="12.729032645753229 0.06722768564811646 0.04820467987299299 0.016426549127612915 12.717319589426873 0.030415751195622096 0.017501725468403246 0.09670042097262158 12.764843839153452" Properties=species:S:1:pos:R:3:forces:R:3 energy=-457.1868425534524 stress="0.002102945124509833 0.00018142065782552897 0.0010551463226905174 0.00018142065782552897 0.0003205223586619947 0.0002673927434011539 0.0010551463226905174 0.0002673927434011539 0.002445781067124265" free_energy=-457.1868425534524 pbc="T T T"
H        8.91611720      10.41222644       3.76530106       0.00000411       0.00001046      -0.00002658
H       11.07240465       4.06214824       3.82341719       0.00002607       0.00003333       0.00000199
H       10.02116992       4.11419612      11.27092216      -0.00001398      -0.00000914       0.00000257
H        9.95263319      10.46300128       9.11038404      -0.00001868      -0.00000650       0.00001320
H        9.35340721       8.93931841       5.50171265      -0.00000423       0.00000000       0.00001291
H       10.59742254       2.59064450       2.09700264      -0.00000217       0.00000921       0.00001725
H        2.99742380       8.95420571      11.86003716      -0.00002616       0.00000729       0.00002484
H        7.97566391      10.38414996      10.33239203      -0.00004012       0.00002493       0.00001051
H        2.79924125       1.76640026       3.09724950       0.00000606       0.00002423       0.00002014
H        2.13781389       8.95391399       4.89989665       0.00000329      -0.00001109       0.00002749
H        4.29577190       8.14276023      10.98577112       0.00001296       0.00000087      -0.00001495
H        8.51123000       9.03575918      11.30651942      -0.00002043       0.00001821       0.00000784
H        5.12336442       2.59747286       2.69558221      -0.00000207      -0.00001073       0.00000785
H        4.43866040       8.09872141       4.44327608      -0.00000268      -0.00001124       0.00002656
H        4.74285366       8.98231484       8.67827256      -0.00002006      -0.00000367      -0.00000183
H        2.94615680       1.80842742       9.34634007      -0.00000569      -0.00000845      -0.00001123
H       10.12694034      10.31737382       1.78199722       0.00000151      -0.00003093       0.00002755
H        5.31010743       8.90044864       3.13704843       0.00000772      -0.00000449       0.00000332
H       12.02100707       4.02075561      10.09091252      -0.00001110      -0.00001926       0.00000513
H        4.24188809       2.60552736       8.45535878      -0.00002307      -0.00000487       0.00000929
C        9.70140419       9.65826320       3.65129694      -0.00000513      -0.00002157      -0.00000712
C        3.46566171       9.63081108       3.49264730      -0.00002396       0.00004293       0.00000130
C        3.34566351       9.67297275      10.00959162       0.00004469       0.00000675      -0.00002899
C        3.92511640       3.33142360      10.30765352      -0.00005113      -0.00006253       0.00002550
N        2.75048933       2.50095795       3.81082336      -0.00003385      -0.00002168       0.00000557
N        2.32128091       9.60312398       4.13566545      -0.00001081       0.00003793      -0.00003312
N        3.58587532       8.88103562      11.02800317       0.00000876      -0.00001732      -0.00000476
N        8.69459664       9.68501593      10.54230289       0.00006058      -0.00000762      -0.00001653
N        4.92799692       3.24634182       3.45713538      -0.00000236       0.00000464       0.00002823
N        4.48108321       8.83429512       3.73063041       0.00001156       0.00000213      -0.00002769
N       11.30128887       3.32827227       9.86371052       0.00001371       0.00001534      -0.00000145
N        3.66129595       2.54143899       9.29343586       0.00004234       0.00002619       0.00000885
Pb       6.76377892      -0.02517710      13.30014412      -0.00000111       0.00000136      -0.00000674
Pb       0.39517107      -0.06017356      13.28297542       0.00000146      -0.00000712      -0.00001234
Pb       6.86408744       6.28298507       7.03343548      -0.00000120       0.00000455      -0.00001232
Pb       6.75096663      -0.07496069       6.92466327       0.00000217      -0.00000069      -0.00000708
I        9.96789084      -0.21339891      12.86362335       0.00000467      -0.00001154      -0.00000349
I        3.61294686      12.96917254      13.90427371      -0.00000361      -0.00000114       0.00000551
I        3.59466521      -0.29548811       6.45716778       0.00001135       0.00000034      -0.00000346
I        9.95233034       0.23711671       7.51560792       0.00000449       0.00000614      -0.00000527
I        6.64857248       9.51366905      13.64982198       0.00000235       0.00000027       0.00000469
I        6.96647554       3.05859026       0.31645841      -0.00000495       0.00000728       0.00000174
I        6.51464185       3.10631351       7.13484398      -0.00000757      -0.00000582      -0.00000651
I        7.10433501       9.46547894       6.83010927      -0.00000029      -0.00001497      -0.00000261
I        7.33474205      12.89328228       3.78079460       0.00000078       0.00000858      -0.00000564
I       -0.06685991      -0.32667635       3.73107771       0.00000024      -0.00000296      -0.00000789
I        0.96261834       0.19077120      10.10871063       0.00000941       0.00000096       0.00000344
I        6.30644402      -0.24477443      10.13758888      -0.00000651      -0.00000123       0.00000774
H        3.64792955       4.03206092       4.86450664      -0.00001133       0.00003789       0.00002891
H        3.57944722      10.38098848       2.70380267       0.00001533      -0.00002723       0.00001098
H        2.56040168      10.42698723      10.12343082      -0.00000833      -0.00001708       0.00000756
H        4.71656406       4.07701900      10.18187457       0.00001435       0.00001925      -0.00001556
H        1.91286313       2.57088785       4.39131397      -0.00001463      -0.00000247       0.00000104
H        1.60241022      10.30230968       3.92570409      -0.00000362      -0.00001029       0.00002186
H        8.28607504       2.65302423      10.79778367      -0.00001540      -0.00000759       0.00001991
H        3.53427327       3.99825084      12.18158732       0.00000303      -0.00000126       0.00000278
H       10.65170292       8.12800694       4.62723630      -0.00001356      -0.00000001       0.00000226
H        9.30173520       1.79365973       2.98815074       0.00002266       0.00001407      -0.00001585
H        9.17249296       1.84839662       9.50383539      -0.00000420       0.00002333       0.00001977
H        2.54292038       2.65698852      11.66438697      -0.00000148       0.00000246      -0.00002891
H       11.09846134       8.96779756       2.31972767      -0.00000259       0.00000121       0.00000845
H        8.89880648       2.64234797       5.30621711       0.00000879       0.00001565      -0.00001459
H       11.49667619       2.67930002       9.10225090       0.00000036      -0.00000156       0.00000450
H       10.81208766       8.18076759      10.84976906       0.00000739      -0.00002386       0.00000999
H        5.64770263       3.93882578       3.68437272       0.00000820       0.00000353       0.00000352
H        9.89031033       3.98354758       5.82326266       0.00000533      -0.00000181      -0.00001541
H        3.77143803      10.33187956       8.14028163       0.00000918      -0.00002656       0.00003300
H       11.68341914       8.98255934       9.54350491      -0.00001421       0.00000382       0.00000743
C        3.76988507       3.28439788       4.07449253       0.00003797      -0.00001756      -0.00004395
C       10.28091489       3.31661783       3.94931013       0.00000250      -0.00002072      -0.00006023
C       10.14314101       3.36644406      10.48099234      -0.00002344       0.00001004      -0.00002245
C        9.83893906       9.71280168       9.89922039       0.00003367       0.00001105      -0.00003736
N        9.94176921       8.86624358       4.66960784       0.00002389      -0.00001031      -0.00002094
N       10.01692375       2.52662077       2.93514710      -0.00000815      -0.00000147       0.00002400
N        9.12372740       2.58301965      10.21734027       0.00003750      -0.00000159      -0.00000692
N        3.30624555       3.30254777      11.46528751       0.00002464       0.00001338      -0.00001091
N       10.33790901       9.62124766       2.50345478      -0.00000746       0.00002836      -0.00000664
N        9.66217223       3.28782842       5.10701359      -0.00005193      -0.00001308       0.00004526
N        3.98230951       9.63582182       8.86183263      -0.00002201       0.00003760      -0.00004497
N       10.85443063       8.91635250      10.13713307      -0.00001927      -0.00000160      -0.00000080
Pb       0.50826318       6.29773232      13.39176824       0.00000677      -0.00001572      -0.00000849
Pb       6.86485063       6.33111145      13.42592201      -0.00000032      -0.00001084       0.00000822
Pb       0.39052496      -0.10715225       6.89363182       0.00001197      -0.00000252       0.00000458
Pb       0.49163504       6.24911715       7.01941182       0.00000393      -0.00000875       0.00000018
I        3.66397033       6.10160821      13.84160269      -0.00000489      -0.00000256      -0.00000447
I       10.03033364       6.61321109      12.86859210       0.00001962      -0.00000666      -0.00000033
I       10.01980468       6.08691762       7.48330601      -0.00000155      -0.00001773       0.00000481
I        3.65714129       6.53112311       6.46207828      -0.00000378       0.00001595       0.00000535
I        0.15872873       3.12107387      13.49318455       0.00000860      -0.00001014       0.00000449
I        0.73090924       9.38352730       0.42360046      -0.00000135       0.00002463       0.00000699
I        0.27545004       9.43168188       7.24329579      -0.00000366       0.00001574       0.00000259
I        0.61080224       3.07330100       6.67483639       0.00000603      -0.00000289      -0.00000222
I       12.66651881       6.54992668       3.84630316       0.00000004      -0.00000134       0.00000837
I        7.28715141       6.05691130       3.82338842      -0.00000097      -0.00000140      -0.00000479
I        6.31070060       6.56474018      10.20460482      -0.00000323      -0.00000221       0.00000350
I        0.93136115       6.07166919      10.18172655      -0.00000766      -0.00000654       0.00000208
