96
Lattice="15.714105151750887 0.13902126759342384 -0.47627792664786944 -0.03724899135528816 14.904609382379046 0.13557255913057198 -0.40227049598259845 0.1416477653732064 8.476091688614444" Properties=species:S:1:pos:R:3:forces:R:3 energy=-419.08479337370926 stress="0.0011008720518202119 0.00015157424908383743 3.16046538949016e-05 0.00015157424908383743 0.0013696706737891806 -0.0004596788817522531 3.16046538949016e-05 -0.0004596788817522531 0.0014321992661532508" free_energy=-419.08479337370926 pbc="T T T"
I        7.01932239       1.18661814       3.21048151       0.00000628       0.00000245      -0.00000357
I        3.94938100       5.57976846       3.31042439      -0.00000911      -0.00000214      -0.00000390
I        6.57649884       1.07826941       7.28362396      -0.00002410       0.00000420       0.00000947
I        4.35569030       6.16885089       7.60667157      -0.00001861       0.00001051       0.00000892
I        7.95430046       4.70013922       5.51411293       0.00000517      -0.00000929      -0.00000278
I        2.56919288       2.38975188       9.19487842       0.00001203       0.00001252       0.00000142
H        2.23339605       2.19113230       4.77964726      -0.00000516      -0.00001445      -0.00001513
H        6.83610256       4.80317151       1.04769648      -0.00000348      -0.00001107       0.00000908
H        3.84559238       1.63601456       4.21840186      -0.00003220      -0.00001322       0.00003176
H        7.99440699       3.44619797       0.85116900      -0.00002554       0.00002045       0.00000483
H        3.16576531       0.99905586       5.74864295       0.00001523      -0.00000904       0.00001277
H        8.06626812       4.48379634       2.31518483       0.00000770      -0.00001341       0.00001118
H        4.83033183       2.70720566       6.16012422      -0.00000507      -0.00000569      -0.00002728
H        8.64195628       6.35849742       0.83756602       0.00000741      -0.00002105       0.00000510
H        3.34981131       3.23150740       6.69392200      -0.00002143       0.00003535      -0.00000748
H        8.69409734       5.30956080      -0.49316504       0.00000493       0.00000038      -0.00005436
H        3.96864804       3.83986785       5.24476491      -0.00001518      -0.00000560      -0.00001498
H        9.78910829       5.14572112       0.76503110      -0.00003732       0.00001419       0.00000816
C        3.23299304       1.87251705       5.09246987       0.00000574       0.00001179      -0.00003404
C        7.85676789       4.45829791       1.24151129       0.00002608      -0.00002769      -0.00001349
Pb       4.58468844      14.79744870       9.69776503       0.00000031      -0.00000179      -0.00000795
Pb       0.66042324      14.69598431       9.63400844      -0.00002196       0.00002265      -0.00001051
N        3.88303666       2.98766404       5.83899556       0.00005007      -0.00000442       0.00003268
N        8.80540160       5.37533359       0.54170710       0.00003421       0.00001322       0.00004212
I        8.11862073       8.88484468       7.02154020       0.00001801       0.00000669      -0.00000657
I        2.70258219      13.09822320       7.63962120      -0.00002685       0.00000985       0.00000503
I        7.97542925       8.24014090       2.60098974      -0.00001333       0.00001582      -0.00001069
I        2.98724355      13.45789222       3.47669626      -0.00000493       0.00001589      -0.00001663
I        6.95197964      12.06596774       1.38842192       0.00000413      -0.00002019       0.00000363
I        3.97186367       9.76627057       4.98653692      -0.00001244       0.00000350      -0.00001005
H        3.22830652       9.28010508       8.34625429       0.00001663       0.00000155      -0.00000827
H        6.87192033      13.51962355       5.08343415       0.00000540       0.00000486      -0.00003341
H        4.47708878       9.81919741       9.51655863       0.00000833      -0.00002032      -0.00001091
H        5.96516733      12.02837057       5.51198533      -0.00002336      -0.00002557      -0.00000485
H        3.38294652       8.45670335       9.93436112      -0.00000271       0.00000273       0.00002430
H        7.25714586      12.63488802       6.59954697       0.00001012       0.00000908       0.00002296
H        1.53411340      10.00194086       9.97911403      -0.00001351       0.00002656       0.00002220
H        7.64172548      11.56545719       3.83549915      -0.00004020      -0.00000393      -0.00000762
H        2.50226896      11.27956495       9.47158483       0.00001657      -0.00000638       0.00001146
H        8.06040002      10.78180801       5.28755099      -0.00000666      -0.00003035       0.00001568
H        2.73402472      10.57028649      10.99106701       0.00001028      -0.00001625       0.00000078
H        8.86342307      12.17344114       4.79146295       0.00001239       0.00000403       0.00000180
C        3.46732468       9.41070865       9.40529051       0.00000671      -0.00003026      -0.00000565
C        6.93451383      12.53567548       5.55918006      -0.00000507       0.00005072       0.00001079
Pb       5.96968316       7.23961565       5.13655919       0.00003410      -0.00000524       0.00000260
Pb       9.96483893       7.20072519       4.91313551       0.00001360       0.00001991      -0.00001148
N        2.49752574      10.37808782       9.99731274      -0.00000137       0.00003421      -0.00000456
N        7.93757018      11.70847737       4.82484571       0.00004141       0.00001904      -0.00000836
I       14.95335022       1.35138662       2.68957993       0.00001512       0.00001264       0.00000166
I       11.88344036       5.74467913       2.78960047       0.00000656      -0.00001617       0.00001095
I       14.14485763       0.90394702       6.86936931       0.00000347       0.00000744       0.00000979
I       11.92399656       5.99469622       7.19254547      -0.00003379      -0.00000188      -0.00000833
I       15.93121243       4.68309164       5.28124581      -0.00000892      -0.00001148       0.00001636
I       10.54625648       2.37278371       8.96190580      -0.00000153       0.00001630       0.00001300
H       12.06675912       2.12811803       4.95223681       0.00001015      -0.00001408       0.00003093
H       16.66935779       4.74014688       1.22009661      -0.00000065      -0.00000657       0.00003426
H       10.83658592       2.44767181       3.68480968      -0.00002727       0.00000647      -0.00000697
H       15.73677829       5.93212056       0.25117986       0.00000493      -0.00000726      -0.00001067
H       10.90849893       3.48509851       5.14894187      -0.00001858       0.00001307       0.00002147
H       15.05723093       5.29523541       1.78157104      -0.00000119       0.00000491      -0.00000023
H        9.11375110       1.78556829       5.23484829      -0.00003235       0.00001094      -0.00000718
H       14.93400017       3.09133793       0.75540401       0.00001211       0.00000482      -0.00001618
H       10.20871544       1.62164624       6.49307343       0.00002334       0.00000397       0.00000140
H       15.55272469       3.69952423      -0.69386853       0.00001399       0.00001506      -0.00000342
H       10.26090607       0.57280276       5.16226333       0.00002093       0.00001107      -0.00000112
H       14.07225811       4.22392400      -0.16000281      -0.00001353      -0.00002210      -0.00000839
C       11.04609865       2.47303934       4.75848386       0.00002455      -0.00002711      -0.00003958
C       15.66969501       5.05869813       0.90741956       0.00002734      -0.00000062      -0.00000520
Pb      12.49354085      14.73784417       9.47504136      -0.00001324      -0.00001976      -0.00001270
Pb       8.49840690      14.77687900       9.69858845       0.00002659      -0.00003394      -0.00001153
N       10.09744955       1.55594588       5.45819274      -0.00002159       0.00001491       0.00003235
N       15.01957346       3.94347783       0.16107064      -0.00001053       0.00001074       0.00001144
I       15.76075265       8.87929691       6.97207766       0.00001534      -0.00002480      -0.00000293
I       10.34449539      13.09267873       7.59012152      -0.00000133       0.00000787      -0.00000570
I       15.87825639       8.37783849       2.65887484       0.00000573       0.00001076       0.00002622
I       10.89015644      13.59573121       3.53457174      -0.00001533      -0.00000142       0.00001171
I       14.89357506      12.06950555       1.14896537       0.00000620      -0.00000760      -0.00001850
I       11.91359656       9.76997385       4.74723422       0.00001982      -0.00000072       0.00000120
H       12.49795523       9.94905773       9.09957536       0.00001451      -0.00000223       0.00000346
H       15.08086539      13.52091728       4.67697797      -0.00005522      -0.00002494       0.00002660
H       11.59125152       8.45790070       9.52858002       0.00000610       0.00001360       0.00000614
H       13.98632406      12.15879700       5.09494626      -0.00000082      -0.00000964       0.00000673
H       11.20583262       9.34229408       8.01231809      -0.00000490       0.00000718      -0.00002489
H       15.23528737      12.69764179       6.26517271       0.00001139      -0.00000001       0.00000859
H       10.40279379      11.19570137       9.32404081       0.00000062      -0.00000076       0.00003101
H       15.72909570      11.40697195       3.62050980      -0.00003990       0.00000122      -0.00000705
H       10.82158855      10.41229092      10.77618504       0.00000786       0.00000416       0.00002589
H       15.96082619      10.69788086       5.14008193      -0.00000590      -0.00002600       0.00000721
H        9.59977928       9.80416745       9.82046327      -0.00001426      -0.00001212      -0.00000081
H       16.92922574      11.97519647       4.63224613       0.00000060       0.00001440       0.00003021
C       11.52860210       9.44174239       9.05261880      -0.00001879      -0.00001583      -0.00001387
C       14.99621223      12.56699411       5.20615633       0.00003607       0.00000497      -0.00006397
Pb      13.87855259       7.18007586       4.91397116      -0.00001453       0.00001557      -0.00002589
Pb      17.80280564       7.28142010       4.97766637       0.00001788      -0.00002537      -0.00001933
N       10.52564113      10.26910672       9.78689693       0.00001103       0.00002236      -0.00000802
N       15.96572200      11.59927459       4.61421254       0.00000864       0.00000314      -0.00001028
