320
Lattice="20.7197114806 0.0681801136024 0.0648146679494 0.102960805962 22.174467445 -0.151737834896 -0.000276458251582 -0.265199973854 37.3297435338" Properties=species:S:1:pos:R:3:Z:I:1:forces:R:3 energy=-101590.168889 stress="-2268.660462 -1198.887974 -771.07273 -1198.887974 361.234139 -115.907188 -771.07273 -115.907188 2702.821027" pbc="T T T"
Cs       3.97957369       0.81894381       6.02206051       55       0.13105300      -0.08449400      -0.33718900 
Cs       4.02944839       1.10840376      24.76513018       55       0.05424500      -0.07912100       0.10000100 
Cs       3.96218436      12.18082912       6.54627432       55      -0.18469900       0.03076300      -0.41383200 
Cs       3.90584094      11.36128444      25.29555461       55       0.16892900       0.19137700      -0.22845400 
Cs       9.26069548       0.05581294       5.54764489       55       0.40184000      -0.01437100       0.29317100 
Cs       9.15769693       0.61132264      24.59739041       55      -0.70316000       0.81018300       0.57585400 
Cs       9.29157923      11.70076701       5.40718777       55       0.04195900       0.21823300       0.30204100 
Cs       9.31260128      12.12449284      24.00752439       55       0.60220400      -0.60689500       0.81625900 
Cs      14.07767855       0.60356651       5.39440643       55       0.35198400      -0.45307300       0.53720100 
Cs      14.35696361       0.75610720      24.19753690       55      -0.10023200       0.02054800       0.53531100 
Cs      14.04326817      11.98919050       5.82541912       55      -0.10429400      -0.16208100       0.36861900 
Cs      14.40072563      11.73785628      24.23911684       55      -0.24416600       0.25708300       0.63585700 
Cs      19.57223019       1.36051532       5.77908227       55      -0.20006000      -0.20762000       0.04566500 
Cs      19.38757546       0.52322325      24.56864589       55      -0.09459400       0.37396500       0.58716800 
Cs      19.34371653      12.03102241       6.48980543       55      -0.28687000       0.08145400      -0.80645400 
Cs      19.78719944      12.56834707      25.04737977       55      -0.40098200      -0.54607800       0.34982600 
Cs       0.89254496      10.27392313      12.33224867       55       0.20156300       0.06839100       0.15520300 
Cs       2.17574990      10.12908145      31.02879378       55      -0.18009500      -0.21146000      -0.02164000 
Cs       1.34085006      21.56031697      11.98383884       55      -0.03724100      -0.21760900       0.42901400 
Cs       1.06641271      20.79995170      30.93290153       55      -0.00409700       0.01691400       0.05494200 
Cs       6.58946812       9.68815298      12.27575529       55      -0.31732900       0.56166800       0.05041700 
Cs       7.24851909       9.80571711      30.95243111       55      -0.26269500       0.04307300       0.20596700 
Cs       6.10584776      21.81829230      12.28860193       55       0.23314100      -0.05100000      -0.07959300 
Cs       6.68414538      20.08660066      30.87596745       55       0.15546800       0.58744300      -0.07785000 
Cs      11.66604447      10.04965938      12.15662321       55      -0.23718200      -0.09145300       0.21564000 
Cs      11.56800482      10.02666846      31.08544527       55       0.15659700      -0.08780400      -0.16028300 
Cs      11.46940206      21.55482555      12.45481863       55       0.17449800       0.11156100      -0.09395400 
Cs      11.71518365      21.70330199      31.10575832       55       0.46136400      -0.54748100      -0.10021200 
Cs      16.49563342       9.59633008      13.11634038       55       0.05858400       0.12167700       0.08899600 
Cs      17.12210721       9.93539847      31.35315888       55       0.05172400      -0.05259300      -0.01650200 
Cs      16.92800903      21.25977829      12.22470641       55      -0.30237500      -0.10114400       0.10677300 
Cs      16.84700166      21.09563349      31.04913131       55       0.08683100      -0.09835200       0.33954000 
Cs       3.90487385       7.07116857       3.26182482       55       0.09941100      -0.13737000      -0.06104000 
Cs       3.95439558       6.25828746      21.61970857       55       0.34163200       0.40189100       0.41056300 
Cs       3.97484023      17.46271907       2.49780846       55       0.14969600      -0.21048600       0.40709100 
Cs       3.42413029      17.34095299      22.28570058       55       0.12315900       0.21385900      -0.45990100 
Cs       9.50381858       5.75107940       3.60174401       55      -0.35477200       0.00515200      -0.11824200 
Cs       9.18543150       6.53449679      21.63493927       55      -0.16020200       0.26099200       0.32469500 
Cs       8.96969103      16.77702610       3.93781931       55      -0.28067200       0.05381100      -0.13704000 
Cs       9.47462010      17.37104511      21.57117841       55      -0.17471000       0.31723000       0.28616000 
Cs      14.33349424       5.84145982       2.92656461       55       0.07841600       0.36068000       0.02827900 
Cs      14.24094194       7.29716962      22.16926881       55       0.41588400      -1.12647300      -0.07353500 
Cs      14.16368053      17.10741717       3.16703840       55       0.70201800       0.16703900       0.11419800 
Cs      14.61348422      17.70841191      22.13013313       55      -0.91632300      -0.23134900       0.02242700 
Cs      19.18848472       6.62935666       3.44536657       55       0.19759300      -0.00235800      -0.25580200 
Cs      20.06704966       6.04346817      22.64941762       55      -0.80914200       0.77547600      -0.61521500 
Cs      19.87026851      17.79237667       3.14790157       55       0.05325800       0.00457100       0.14842500 
Cs      18.21532311      17.35621124      21.90032899       55       1.16428100      -0.01584600       0.10600200 
Cs       1.00598363       4.88596910      15.96926507       55       0.25201700      -0.03606500      -0.01277400 
Cs       1.60183481       3.99258763      33.64953231       55      -0.11550900       0.07419300      -0.10103800 
Cs       1.20282905      16.73159309      15.25863373       55       0.32997300      -0.67752500       0.04145500 
Cs       1.62142254      15.39157342      33.84528209       55       0.75003600      -0.30138200       0.51156100 
Cs       6.42321980       4.81962728      16.08622222       55      -0.06765800       0.17135500      -0.30814100 
Cs       6.42573546       4.30683497      34.08386862       55       0.22735300       0.01937800      -0.17125400 
Cs       6.19870305      16.03162630      15.41368804       55      -0.02995500       0.05997200       0.01696500 
Cs       6.15858396      15.08919237      33.89442025       55       0.32387000      -0.08920000      -0.39762900 
Cs      10.87987575       5.02103272      15.29108136       55       0.32110400      -0.38215500      -0.22244300 
Cs      11.95066691       4.25740403      34.31551106       55      -0.04077000       0.17072400      -0.22769600 
Cs      10.78800082      15.70964833      15.27137325       55       0.35501400      -0.17770900       0.59747400 
Cs      11.91287374      15.30107262      34.02299170       55      -0.29555900       0.02702400      -0.19968300 
Cs      17.30179079       4.69613817      15.75126703       55      -0.50244900       0.00842900       0.10417600 
Cs      17.27592715       4.60662691      34.23059349       55      -0.01697700      -0.34670900      -0.30376300 
Cs      15.99926845      15.77247067      15.24815790       55       0.31305100      -0.09376900      -0.04868500 
Cs      16.71989309      15.41924781      34.31097755       55      -0.20327500       0.01652800       0.10020500 
Pb       1.91828158       1.78761374       0.67789093       82      -0.54098800      -0.49237100       0.55322100 
Pb       1.08362351       1.82656579      20.27853410       82      -0.36602600       0.05192600      -0.98180000 
Pb       1.95782633      12.23371221       1.19526674       82       0.06390100       0.29855600       0.44907900 
Pb       0.97997717      12.94305614      19.95148603       82      -0.33068100       0.28484900      -0.05905600 
Pb       6.67110389       2.24134090       1.13419905       82       0.46749800      -1.02713900      -0.71586900 
Pb       6.59617045       1.88328768      19.99558163       82      -0.23963300       0.23286200       0.62848700 
Pb       6.90883657      12.55314799       0.79068590       82      -0.89983200      -0.14065100       0.35596000 
Pb       6.46959541      12.98631012      19.65006186       82      -0.06392700      -0.00115700       0.18930400 
Pb      12.01718317       1.89326160       0.80978906       82       0.20156100      -0.55705800      -0.61692900 
Pb      11.50287901       1.93512615      20.40485002       82       0.26947800      -0.12359500      -0.35866700 
Pb      11.80173446      12.74780214       0.64613904       82      -0.42008300      -0.71998900       0.60528100 
Pb      11.88367220      12.70410644      19.13007245       82      -0.27328100      -0.00775200       1.20031200 
Pb      17.53128480       1.73543046       0.83615257       82      -0.18779500      -0.58696800      -0.00874200 
Pb      16.09515253       1.75925280      20.11560123       82       0.75147000       0.59262700      -0.80935400 
Pb      17.44952865      13.07220601       1.55984070       82       0.10723500      -0.91698000      -0.60876000 
Pb      16.59634482      12.74538237      19.68849058       82       0.21873900       0.10608100       0.44886400 
Pb       3.61048356       9.58411695      17.51120944       82      -0.70151300      -0.59305300       0.19236500 
Pb       3.93125062       8.54148679      36.17721969       82      -0.28940000       0.50349500      -0.90083500 
Pb       4.14243616      21.21693032      17.45099459       82      -0.47649000      -0.93284500       0.15977100 
Pb       4.08646918      19.81293658      35.81312315       82       0.33666400       0.59993300       1.20838800 
Pb       8.84023308       9.53691502      17.42924824       82      -0.70849200       0.30932500       0.13257400 
Pb       9.27124374       8.55995032      36.28716540       82       0.81708700       0.63666500      -0.94619700 
Pb       9.52252695      20.93543359      16.69521894       82      -1.21282800      -0.87314600       0.27234100 
Pb       9.71199164      20.14555156      35.74979585       82      -0.46366000      -0.21609600       0.07873300 
Pb      13.95042308       9.28006082      17.56205022       82       0.45969500      -0.41718200      -0.03414000 
Pb      14.76503231       8.89347425      36.34909817       82      -0.17449600       0.31692400      -0.27557900 
Pb      14.25108010      20.47061545      17.42143906       82       0.25084200      -0.06522600      -0.99162600 
Pb      14.26454086      19.20011024      36.49383273       82      -0.46916100       0.79273700      -0.04747500 
Pb      19.72253269       9.52761949      18.11805877       82      -0.25020200       0.01788400       0.16806300 
Pb      19.53092060       9.24352038      36.11872173       82       0.11630400       0.06023200      -0.41272200 
Pb      19.38017434      20.29648552      18.27655708       82      -0.29334600      -0.11513300      -0.42549300 
Pb      19.23537040      19.46023706      36.08865919       82       0.61655500       0.71308200       0.07629800 
Pb       1.48109295       7.39409731       7.93682668       82       0.12734000      -0.15593500       0.10242600 
Pb       1.42547587       7.65290916      26.83805801       82       0.34613000      -0.26333500      -0.23943600 
Pb       1.04903359      18.24879904       7.82764200       82       0.07274800       0.01420100       0.11001700 
Pb       0.89739063      17.98840189      27.03469124       82       0.44730800       0.13198000       0.10575300 
Pb       6.65078880       7.31785094       8.16175760       82       0.51615000       0.73706800      -0.02568100 
Pb       6.80549627       6.87151878      26.42205669       82      -0.82174900       1.10211800       0.42570100 
Pb       6.12943649      18.30782440       8.43259692       82       0.61389300      -0.45964100      -0.06036400 
Pb       6.21735531      18.48165646      26.61243237       82      -0.35543600      -0.34410900       0.22177500 
Pb      11.37081766       7.02979674       8.05016845       82       0.84817100       0.50683800       0.45080600 
Pb      11.83670286       7.32142653      26.61353005       82       0.00609600      -0.25539900       1.33531700 
Pb      11.41587729      18.22504403       8.53327261       82       0.03190900      -0.07337700      -0.27425900 
Pb      11.56862099      18.34547679      26.22292718       82       0.20662800       0.27737200       0.38300900 
Pb      17.18914272       7.58076988       8.26227109       82      -0.69731800       0.55650800       0.06101500 
Pb      16.69391520       7.40209114      26.73079221       82      -0.01641900       0.02336800       0.03153100 
Pb      16.98107269      17.88817812       8.07286251       82      -0.53708500       0.36343100       0.04244800 
Pb      16.26140596      17.87497137      27.16535908       82       0.35335900       0.44354000      -0.37775600 
Pb       3.89678923       3.82639133      10.08174996       82       0.06391800       0.13133700       0.43621900 
Pb       4.36735790       3.27470206      28.84712093       82      -0.35992100       0.36541100       0.16061000 
Pb       3.74444951      15.06532106      10.69011726       82       0.17320600      -0.17057500      -0.06940900 
Pb       4.20843929      14.32655524      28.65224133       82       0.24760700       0.35701200      -0.18150500 
Pb       8.69795501       3.98539971      10.36109113       82       0.50751800      -0.82403300       1.07015600 
Pb       9.43688201       3.79080779      28.67388770       82       0.24770900      -0.07121100      -0.06016400 
Pb       8.96383542      14.23151787      10.70885827       82      -0.01264700       0.28395700      -0.46523600 
Pb       9.70705314      14.94148715      29.23078480       82      -0.18043600      -0.47007300      -0.34219900 
Pb      14.85360913       3.89886930      10.77506543       82      -0.69345700       0.89113600       0.83244600 
Pb      14.75189596       3.30668858      29.18119166       82      -0.16036100       0.37659800      -0.22708700 
Pb      13.93388251      14.75232135      10.70791464       82       0.14761800      -0.27499300      -0.21356900 
Pb      14.82499417      14.75287631      29.11151806       82      -1.06581400      -0.32068600       0.02183800 
Pb      19.93080573       3.43394099      10.16807124       82      -0.33349100       0.30536600       0.60532600 
Pb      19.88474023       3.91588525      28.88458256       82       0.31732200      -0.13163200       0.28236900 
Pb      19.06536796      14.36033926      10.99066002       82      -0.10639800       0.37468800      -0.10574900 
Pb      19.56372425      14.90824075      29.66851104       82       0.32008400      -0.06761500      -0.09003600 
I       3.80007985       4.15731696      18.68469107       53      -0.03538000      -0.53616000       0.10000600 
I       4.26126322       3.79477716      37.79345175       53      -0.26436600       0.50450700      -0.35732300 
I       4.40727500      15.32740144      18.88700852       53       0.02569900      -0.31319100       0.05397200 
I       3.95273479      14.03988436      37.25380525       53       0.05899500      -0.06570500      -0.08768600 
I       9.16075327       3.67700186      19.31100979       53      -0.26043100       0.17324400      -0.73651400 
I       9.47855376       3.68020102      37.60349433       53      -0.20246100       0.10482300      -0.32390700 
I       9.37622544      14.73073007      19.14427282       53      -0.14733500      -0.35620500      -0.67739800 
I       8.58006648      14.35593327      36.77979462       53       0.99327600       0.78788100       0.26524400 
I      13.95433838       4.01173670      18.85459660       53      -0.04984300      -0.41291800       0.26415900 
I      14.71814561       3.33135968      37.03889721       53       0.14381600      -0.04798000      -0.02160600 
I      14.13277433      14.70091644      18.32878116       53      -0.10317700       0.01288300       0.16421500 
I      13.95648374      14.21099161      37.04636158       53       1.05440300       0.63266600      -0.24963600 
I      19.18422155       3.50328202      18.91812385       53      -0.19918300       0.07683100       0.10234000 
I      19.87691983       3.33974116      37.14769118       53       0.01188000       0.23945900       0.01675200 
I      18.63064297      14.53312363      18.27453210       53       0.36161800       0.33850300      -0.06970900 
I      19.64447251      14.65084689      37.94201797       53       0.08408700       0.08750700      -0.30670600 
I       1.24193310       7.39337913      -0.44640459       53       0.39538100      -0.35744900       0.36770000 
I       1.13152934       7.47814470      19.34776751       53      -0.29102200       0.00960100      -0.38553400 
I       1.82154261      18.36146037      -0.36110038       53      -0.62593100      -0.28793400       0.05411800 
I       0.65440219      18.50672949      19.83170921       53      -0.02569900      -0.10192000      -0.39520700 
I       6.81464898       7.74197768       0.25852825       53      -0.90496500      -0.72364000       0.37409800 
I       6.20484022       7.81225215      18.67327161       53       0.03208600      -0.23117700       0.07477000 
I       5.96116114      17.55521629      -0.78010194       53       0.09120200       1.11954100       0.54886400 
I       6.75548487      18.98002805      18.34536560       53      -0.01898100       0.24550200      -0.11008400 
I      12.32117299       7.33245630      -0.20134016       53      -0.12749900      -0.45898200       0.45388700 
I      10.74467338       7.34270770      18.21802240       53       0.78432400      -0.27002800       0.34818900 
I      11.75036730      18.09390285       0.60144054       53      -0.18661000       0.19629500      -0.54474400 
I      11.31792538      18.96819646      18.24693320       53       0.17006000      -0.35681400       0.16267300 
I      17.42120137       7.25381158      -0.29309165       53      -0.03050900       0.16636500       0.60049400 
I      16.77257114       7.68924455      18.78743561       53      -0.24818500      -0.40725800       0.06372800 
I      16.76290122      18.34453622       0.53352464       53       0.37056400      -0.57894100      -0.00554700 
I      16.31877257      18.37523941      18.86419205       53       0.27473400       0.17961600      -0.46345500 
I       3.75337473       9.26794562       8.94475980       53       0.04109700      -0.01414600       0.37062400 
I       4.80881072       8.99112318      28.17546102       53      -0.53911000      -0.12078800      -0.14218200 
I       3.92084620      20.33310043       9.07959084       53      -0.30962700       0.00504000       0.18863500 
I       3.77808867      20.22780044      27.89186586       53       0.25806800      -0.13490900      -0.13881900 
I       8.29364961      10.17670368       8.96217259       53       0.18841800      -0.89105900      -0.03926100 
I       9.14411681       9.10317548      27.84972995       53       0.39577300      -0.25584900      -0.29985500 
I       8.87793240      20.32833841       9.57562529       53       0.02187400      -0.48091600      -0.24388000 
I       8.99868140      19.79459852      27.68231765       53       0.03426700       0.32624800       0.07779800 
I      13.11308000       9.60920936       8.76308287       53       0.70578700      -0.67044800      -0.09265800 
I      14.33293317       9.45498544      27.70534631       53       0.09553400      -0.27741100       0.00275700 
I      14.42345641      20.19525998       8.84078906       53      -0.18475100      -0.18642900       0.08414500 
I      14.39878328      19.97019644      28.51043865       53      -0.06088900       0.12254600      -0.40859000 
I      19.90780970       9.45714100       8.92569030       53      -0.49459300      -0.44664600       0.53495400 
I      19.82522520       9.35611540      27.97200713       53      -0.53737300       0.03202100       0.20242500 
I      19.37078700      20.01562332       9.43432554       53      -0.03234100       0.09138900      -0.36785600 
I      19.18596293      19.83581732      28.21017336       53      -0.21787200       0.03072100       0.07146800 
I       1.59982208       1.21833315       8.86494906       53      -0.48722300       0.82309100       0.31203600 
I       1.11102042       1.58501371      27.43682986       53       0.21653300       0.10651000       0.18590400 
I       0.72340351      13.05627344       8.97871316       53       0.69529500       0.16076200       0.74087600 
I       1.20213331      12.55864553      28.33183030       53       0.05582300       0.52061400      -0.02794200 
I       6.30964340       2.20385377       8.81530491       53       0.14558000      -0.17245100       0.25169500 
I       6.75821579       1.58511368      27.90598563       53       0.01630100      -0.13869700      -0.35984400 
I       5.97161453      13.00274052       9.48719232       53      -0.13973000       0.17574000       0.38832000 
I       6.80399768      12.70414214      27.47755288       53      -0.06098100       0.33940200       0.11649800 
I      10.73256737       1.67079432       9.32027376       53       0.05658200       0.19148100       0.14520000 
I      11.95425985       1.59368491      27.42050964       53       0.13581900       0.11917800       0.28037000 
I      11.28454126      12.54628448       9.33281742       53       0.12080300       0.88628700       0.13869500 
I      11.95816087      12.88821437      27.83945815       53      -0.10908200       0.21645900       0.21940600 
I      16.48421294       1.98027352       9.33665417       53       1.23249700      -1.05556700      -0.51660400 
I      17.37382193       1.59764305      28.71408637       53      -0.25158000       0.04280800      -0.88070800 
I      16.63361466      12.41425883      10.60536903       53       0.02353800      -0.04582200      -0.74189900 
I      17.02121831      12.84958163      28.25048526       53       0.57063600      -0.18412300      -0.12866500 
I       1.42239811       0.94205139      16.98936746       53       0.00764800      -0.31047800       0.01306000 
I       0.72883678      -0.53015919      35.09551812       53       0.29348800       0.10611700       0.18789000 
I       1.10085880      11.82861416      16.75183983       53      -0.00484100      -0.47953500      -0.05119000 
I       1.84961588      11.00392390      34.72378481       53      -0.00157500      -0.24152900       0.60314100 
I       6.28478256       0.86486036      16.94444860       53       0.52285800       0.35871000      -0.71367500 
I       7.17426403       0.16771325      35.45251856       53      -0.02668000      -0.19476800      -0.17549800 
I       5.78264868      11.25718414      16.55227676       53       0.86259600       1.07025800      -0.36368000 
I       7.54912816      11.15111598      35.12743018       53      -0.20875300      -0.85529600      -0.29231200 
I      11.79462102       0.55344494      16.71856079       53       0.70050900       0.71504000      -0.13596900 
I      11.87639451      -0.01822074      35.29737345       53       0.22180800      -0.13151900      -0.56795600 
I      11.10114947      11.60476765      16.31742497       53       0.44880900      -0.10204300      -0.14980800 
I      12.04687438      10.27247045      34.94145028       53      -0.01837300       0.73900400       0.39804000 
I      16.56007574       0.21105700      16.21554653       53      -0.22644600      -0.16057100       0.72562400 
I      17.26531564      -0.51846430      34.95002253       53      -0.17866700      -0.03706400       0.41399800 
I      16.58366242      11.00118890      16.95455820       53      -0.21714200       0.32651200      -0.64803400 
I      17.27288509      11.37885841      35.15483015       53      -0.17412200      -0.20380100       0.24652300 
I       4.38706397      10.77547145       2.72638741       53      -0.44396400      -0.39769300      -0.60510200 
I       3.05799653      10.87469241      20.73235001       53       0.72116800       0.03078500      -0.04557300 
I       4.21641680      21.93020179       1.74547171       53       0.17588900       0.18298300      -0.06782200 
I       3.36594144      21.99167447      20.92639208       53       0.63644200      -0.35526200      -0.07998600 
I       9.27701366      10.71556060       1.76787503       53       0.31331700      -0.27854100       0.17892100 
I       9.05985927      10.35708198      20.58408167       53       0.14979400       0.48364600      -0.11538200 
I       9.78838389      21.92339031       1.35463727       53      -0.19163500      -0.02003500       0.36181800 
I       8.93213556      22.02185331      20.68351585       53       0.19407900      -0.19517100      -0.20606400 
I      14.04972974      10.90954248       2.26227726       53      -0.15684100       0.00983500      -0.62353600 
I      14.51089271      10.46509554      20.89726705       53      -0.49424700       0.53914800      -0.83852000 
I      14.74887940      21.70293372       1.60468407       53      -0.19940100       0.31274300      -0.19312000 
I      14.07254622      21.60513993      20.45021671       53      -0.19240500      -0.00125600       0.30681900 
I      20.01371668      10.69434472       2.48432526       53      -0.67492200       0.05788300      -0.42907200 
I      19.44729555      11.26489844      21.45428554       53      -0.24363500      -0.25723200      -1.03413100 
I      20.01651288      21.84327148       1.98020211       53      -0.28370800       0.33943000      -0.52891400 
I      19.12509927      21.89137726      20.93375444       53      -0.19954600       0.51055000       0.22519100 
I       1.48990493       5.68360318      11.34751968       53      -0.59488000      -0.06000400      -0.34978900 
I       1.91432547       5.91994540      29.75098741       53      -0.26782800      -0.29859600      -0.08841400 
I       0.97608431      17.13026731      11.10539326       53       0.13130200      -0.10544500      -0.08466700 
I       1.77690022      16.51333695      30.33957315       53      -0.29488800      -0.03941400      -0.47800600 
I       6.14120382       6.13016997      11.26905144       53      -0.24029400      -0.48328200      -0.07069200 
I       7.03235322       5.68759805      29.80559965       53      -0.25665500      -0.28986500      -0.16923600 
I       6.61029022      16.53313483      11.51501971       53      -0.44807600       0.41736100       0.00750200 
I       6.47786468      16.60350621      29.74361485       53      -0.07152000      -0.27340200      -0.24563900 
I      11.74750988       6.12286066      11.11063984       53      -0.37854400      -0.31221700       0.42074900 
I      12.01564276       5.48706993      29.81017498       53      -0.11605800      -0.00500200       0.03573300 
I      11.46691190      16.33191709      11.85957749       53      -0.27632900       0.38789300      -0.85855500 
I      12.03012366      17.06339196      29.44146129       53      -0.11162900      -0.13716500       0.26600800 
I      17.18094385       6.02579525      11.43049184       53       0.43024200       0.18420900      -0.10398800 
I      17.32526730       5.93492311      29.62669444       53      -0.42187500      -0.11464200       0.27739200 
I      16.64570945      16.71543610      11.48358610       53       0.06638100      -0.08417700      -0.19308800 
I      16.79200381      16.89916556      30.44476093       53       0.27976400      -0.08588000       0.00958000 
I       4.24577034       5.90194093       6.81371861       53      -0.40074700      -0.91870800      -0.08051900 
I       3.94958358       5.07291200      25.89711756       53       0.14940800       0.02283400       0.00535300 
I       3.86938314      16.11595423       7.12728755       53      -0.13011300       0.46884400       0.21563600 
I       3.57348202      16.33848170      25.64823781       53       0.18462100      -0.24736900       0.67669700 
I       9.17192483       4.80814559       7.55725766       53      -0.52703700       0.28857100      -1.29844400 
I       9.34505401       5.49893315      25.57532016       53       0.70729000      -0.82173300      -0.31787000 
I       8.90208934      15.87744217       7.77113332       53       0.15947800       0.46960000      -0.12948200 
I       9.66226180      16.22684051      25.38580650       53      -0.52548300      -0.21156800       0.08337700 
I      14.40790640       4.90424901       7.98222704       53      -0.51226500       0.95937400      -1.57504900 
I      14.38003920       5.02439613      26.04311608       53       0.24577900       0.33449700      -0.06350300 
I      14.21135989      15.85536836       7.64528258       53       0.07828000       0.24836800      -0.30423900 
I      13.90493601      16.10148047      25.53882767       53       0.47236700       0.15378600       0.35934700 
I      18.81058669       5.43462039       7.08620035       53       0.64866100      -0.67606700      -0.05220600 
I      19.86292451       5.46661508      26.14254312       53      -0.09572000       0.31842900      -0.37349700 
I      19.41723199      16.11211340       7.00187446       53       0.33499600       0.11576200       0.03031300 
I      19.35366903      16.11156048      26.17677600       53      -0.32989500      -0.10556300       0.18886000 
I       1.52051834       3.02296081       3.69155009       53       0.10979500       0.19049800      -0.28295300 
I       1.67706614       3.47298485      22.75043200       53       0.33312900      -0.39023400       0.56258300 