320
Lattice="20.1503227558 -0.074945473895 -0.239303518333 -0.0520611573796 22.239696741 -0.245610316068 -0.543211442111 -0.415189361346 37.946222897" Properties=species:S:1:pos:R:3:Z:I:1:forces:R:3 energy=-101592.176924 stress="641.527538 1.884729 1859.250183 1.884729 -86.625363 511.45675 1859.250183 511.45675 -561.494371" pbc="T T T"
Cs       3.58764422       1.15932013       6.18427193       55       0.26176600      -0.00382300      -0.01552300 
Cs       3.46425487       0.97822450      25.10552561       55       0.14205200      -0.34561200      -0.04743300 
Cs       3.48360958      11.99648765       6.36005684       55       0.25596200       0.43118200      -0.16369600 
Cs       3.10744366      11.66402378      26.06786587       55       0.28256500      -0.19949800      -0.82738700 
Cs       9.30372358       0.02443298       5.14845839       55      -0.26072800       0.19807700       0.68856500 
Cs       8.32218052       0.79237379      25.11613788       55       0.49851200      -0.28362200      -0.47037200 
Cs       9.16317151      11.72819182       5.48923142       55      -0.05031100       0.06868200       0.03658500 
Cs       8.58526248      11.71811175      24.46394709       55      -0.05983100       0.12580500       0.13454300 
Cs      13.89628659       0.40801597       5.25961035       55       0.15743800       0.01411800       0.47643800 
Cs      13.78093724       0.88637118      24.90525573       55      -0.06836100      -0.38687600       0.09694800 
Cs      13.55233978      12.06968667       5.81357577       55      -0.10506200      -0.11964100       0.05403000 
Cs      13.55526175      11.29914096      24.63894289       55       0.09586900       0.47103000      -0.10928900 
Cs      18.88065814       0.67572862       5.14093326       55      -0.06663000       0.08360900       0.54633900 
Cs      18.77601178       0.52987704      24.72028590       55      -0.13601800       0.05498100       0.18183200 
Cs      18.42936017      11.72017936       5.87463630       55       0.23084500       0.06310700       0.21951200 
Cs      18.53510251      12.19894952      25.15342506       55      -0.14293600       0.00329200      -0.06528900 
Cs       0.58444216      10.48760311      12.45383651       55       0.21997800      -0.12934300       0.04533700 
Cs       1.65312832       9.88835028      31.33213139       55      -0.40190400       0.02438800      -0.01491800 
Cs       0.96157663      21.41154671      12.17074327       55      -0.06516700       0.06224400       0.28357600 
Cs       0.44269010      20.81476622      31.60949795       55       0.12427700      -0.03197700       0.06329900 
Cs       6.05638442       9.95521498      12.10283355       55      -0.40917800       0.09827500       0.17931900 
Cs       6.40143844       9.73853070      31.32846211       55      -0.12210800       0.00594700       0.21854500 
Cs       5.56739656      21.83400836      12.29011364       55       0.44637500      -0.28884500      -0.06682100 
Cs       5.65590685      20.07894971      31.17363461       55       0.35447300       0.37704400       0.14094000 
Cs      10.59783546      10.14767834      12.21631819       55       0.18558400       0.10121200       0.03838100 
Cs      10.79425357       9.73946051      31.42465861       55       0.19548300       0.02092000       0.00945100 
Cs      10.87082111      21.11370089      12.27374920       55       0.36066300       0.28282000      -0.00136300 
Cs      11.00808725      21.27479441      31.32907892       55      -0.17964200      -0.06770200      -0.10981300 
Cs      15.90770036       9.03941207      12.92040497       55      -0.20789700       0.91714600      -0.06336200 
Cs      16.22761895       9.79421220      31.38732249       55       0.12075500       0.01188400       0.06770000 
Cs      16.46271895      21.29245263      12.17874656       55      -0.39536000      -0.31321800      -0.04754000 
Cs      15.62703053      20.98257537      31.24122929       55       0.28587600      -0.04638600       0.32168600 
Cs       3.34384866       7.13954686       3.27806772       55       0.30433200      -0.43574400       0.00266600 
Cs       3.26123022       6.28917214      21.78315942       55       0.22619700       0.00737700       0.33049200 
Cs       3.88210010      17.41861886       2.81064184       55      -0.08176300      -0.12380800      -0.14896800 
Cs       3.44964606      17.07312134      22.39597503       55      -0.09781400       0.18750000       0.04187400 
Cs       9.10894080       6.07633250       3.36479894       55      -0.42324000       0.04208600      -0.17793300 
Cs       8.48135427       6.29546671      21.96624924       55       0.07864600       0.32068800      -0.25416200 
Cs       8.22934642      17.20941791       3.89109743       55       0.25333200      -0.38928700      -0.29355500 
Cs       9.08978999      17.30026292      22.10628238       55      -0.57761900      -0.37556800      -0.38261300 
Cs      13.65850523       5.66966537       3.15973217       55       1.41306100      -0.25288100      -0.85798600 
Cs      13.63785776       6.88036561      22.24747166       55       0.11329700      -0.46908900      -0.11418800 
Cs      13.45053995      17.27404169       3.03911492       55      -0.28212300      -0.48350300      -0.24565800 
Cs      13.40274756      17.60268131      22.39449671       55      -0.01841900      -0.09222600      -0.12146200 
Cs      18.65888132       6.51909091       2.76213272       55       0.06901200      -0.33866000       0.50069600 
Cs      18.78262954       6.11552008      22.88097043       55      -0.09201900      -0.12426000      -0.85909300 
Cs      19.26467646      17.56219077       2.92447516       55       0.04512200      -0.18858000      -0.08152700 
Cs      17.39915403      17.20120052      21.81841570       55       0.56074300       0.05744800       0.23134600 
Cs       0.95960996       4.84145009      16.47424369       55      -0.25527500       0.12520400      -0.62557100 
Cs       0.90896697       3.94806966      34.19658390       55       0.55211400       0.21310200       0.29945700 
Cs       0.82815717      16.55803051      15.29253066       55      -0.07881500      -0.14470700       0.03178400 
Cs       1.40823167      15.46334537      34.17460390       55      -0.26981000      -0.39248000      -0.03233500 
Cs       5.88522817       4.74363151      15.99134852       55      -0.08442000       0.28305700      -0.14341300 
Cs       5.67107130       4.49404504      34.72845717       55       0.39104900      -0.33908800       0.00103900 
Cs       5.77303935      16.31931016      15.57197910       55      -0.21932200      -0.14691600       0.00796200 
Cs       5.86902584      15.11891531      34.12018050       55       0.02617400      -0.09145400       0.20122600 
Cs      10.42072720       5.01773660      15.14175272       55       0.39411700      -0.35127800       0.09084100 
Cs      11.02671096       3.89672930      34.76868467       55       0.14376700       0.26317000      -0.36167900 
Cs       9.90226683      15.66600401      15.47342850       55       0.72652400      -0.33451200       0.12113900 
Cs      11.16453172      14.84800439      34.57935330       55      -0.51079900       0.06191300      -0.23014600 
Cs      16.39068729       4.45628072      15.82305510       55      -0.19804400       0.00744700      -0.03527300 
Cs      16.35348065       3.91582913      34.65642551       55      -0.19052500       0.21319300      -0.08819400 
Cs      15.37722384      15.46920970      15.41145040       55       0.10701000      -0.08009500      -0.18112400 
Cs      15.46605936      15.17362112      34.59324538       55       0.45163400       0.11742300      -0.16809600 
Pb       1.95689351       1.86362611       0.93362017       82       0.01662300       0.12848500       0.07989900 
Pb       0.56785037       1.59343396      20.40940001       82       0.03573100      -0.00120000      -0.16625200 
Pb       1.67160522      12.37237830       1.14624571       82      -0.07007500       0.09181300       0.03491400 
Pb       0.34512539      13.27433194      20.08483442       82       0.41625700      -0.02335300       0.19416800 
Pb       6.69964211       2.01364551       0.83906612       82      -0.04714000       0.03110300       0.47053400 
Pb       5.85200279       2.04584831      20.20964703       82       0.31646700      -0.44938300      -0.19634700 
Pb       6.45539490      12.20651645       0.72607697       82       0.33949500       0.19804000       0.38080800 
Pb       5.86710709      12.72053270      19.92831450       82      -0.33937900       0.33017400       0.32011300 
Pb      11.72277609       1.87440965       0.71943475       82       0.42308800      -0.12529300       0.01136400 
Pb      10.81715521       1.51163522      20.51607726       82       0.54077700       0.26359700      -0.26211200 
Pb      11.38124352      12.50292473       0.72182554       82      -0.43357000       0.37992500       0.11115900 
Pb      11.08792849      12.37884210      19.51785881       82      -0.13585700      -0.13610000       0.38394500 
Pb      17.24712310       1.38335010       0.36846645       82      -1.70479000       0.81297100      -0.34165400 
Pb      15.60432361       1.67407451      19.96023999       82       0.30336200      -0.06570100       0.48734400 
Pb      16.89885757      12.75630487       1.15494024       82      -0.19922800      -0.04719800       0.08341500 
Pb      15.72228907      12.47821852      19.71408423       82       0.03847800       0.21889000       0.14869600 
Pb       3.03949113       9.42885021      17.77866911       82       0.64332700       0.09400400      -0.38479300 
Pb       3.04797258       8.54123928      36.16242886       82       0.20574300       0.72007400       1.31515800 
Pb       3.67391868      21.21671600      17.72515206       82       0.06881700      -0.10719000      -0.22723600 
Pb       3.28862289      19.84396491      36.60189623       82       0.00151100      -0.63399000      -1.02833800 
Pb       8.05251038       9.54511102      17.35493304       82       0.17358700      -0.33451100      -0.57635600 
Pb       8.53386096       8.31307410      36.41682037       82       0.64824000      -0.48645100       0.85140800 
Pb       8.89022256      20.65985308      16.73314253       82      -0.28217600       0.37689200       1.41713400 
Pb       8.85254694      20.19395446      36.30210108       82      -0.88226500      -0.34755700      -0.49895000 
Pb      13.25747711       9.13209019      17.52790712       82      -0.29377700      -0.16641200      -0.57581700 
Pb      13.73164308       8.78410605      36.51876905       82      -0.36535600       0.14467700       0.14632600 
Pb      13.62624840      20.58171955      17.00253945       82      -0.92876300      -1.21471700       0.24439500 
Pb      12.97599777      19.06446775      36.83261737       82       1.03824100       0.74819400       0.13514100 
Pb      18.53611082       9.29139750      18.18677989       82      -0.12117400       0.09696500      -0.69276700 
Pb      18.33775051       8.65920576      36.43383119       82       1.03539800       0.40093800      -0.19247200 
Pb      18.08385858      19.76353336      18.22194339       82       0.24393400       0.64838000      -0.51119500 
Pb      18.45857473      19.27132276      36.55741119       82      -0.35662900      -0.14966300      -0.39991500 
Pb       1.19802241       7.22355695       7.86157427       82       0.00435900       0.06250400       0.11388500 
Pb       0.90434647       7.40896518      27.04644313       82       0.10237500      -0.25587600       0.56663500 
Pb       0.81563839      18.27703153       7.85377590       82       1.00875600       0.91069500       0.15946300 
Pb       0.53923426      18.12552361      27.51490688       82      -0.12667400      -0.00671800       0.21941100 
Pb       6.64717620       7.46433777       8.21283925       82      -0.56441600      -0.41904800       0.18873200 
Pb       6.21728831       7.03782553      26.80758514       82       0.05455600      -0.47524100       0.34677900 
Pb       5.65970561      18.33151814       8.40130504       82       0.41409300      -0.12128200      -0.41240800 
Pb       5.47534647      18.16536675      26.91822836       82       0.42006800       0.56542100       0.20894600 
Pb      11.00750000       6.88540004       8.31513967       82       0.14905200      -0.42857000      -0.99247100 
Pb      11.09847958       6.99970845      27.27837036       82      -0.13651000       0.01721000      -0.23283400 
Pb      10.73576225      18.34609637       8.46426495       82       0.69189600      -1.23401600       0.13622800 
Pb      10.88339698      18.32270636      26.60574519       82      -0.09581400      -0.13326700      -0.09453700 
Pb      16.06416216       7.35536454       8.13945263       82       0.17819000       0.01699100      -0.93214100 
Pb      15.71433880       7.01756854      26.87708940       82       0.63992900       0.21391500       1.10576400 
Pb      16.19530196      17.90093697       7.43390895       82      -0.38075500      -0.18210300       0.84215600 
Pb      15.43348647      17.91715256      27.26820058       82       0.73646000      -0.02117300       0.00808700 
Pb       3.67478324       3.93812111      10.18342297       82      -0.95323200      -0.31313200       0.00901500 
Pb       3.62220620       3.12964489      28.97040692       82       0.11047800      -0.09477200       0.96374500 
Pb       3.13601694      15.10981704      10.72292639       82       0.09340700      -0.44066600      -0.67531600 
Pb       3.56970665      14.25343221      29.00624637       82      -0.31969700       0.12847800       0.35410600 
Pb       8.32455195       3.77317072      10.69745656       82       0.44301100      -0.29108100      -0.23269800 
Pb       8.86077962       3.63056225      29.10868137       82      -0.17065200      -0.05276700       0.24853600 
Pb       8.26940774      14.40879598      10.58659109       82      -0.31986000      -0.34185900      -0.14926400 
Pb       8.76834110      14.82147629      29.10823481       82      -0.46758900      -0.04753300      -0.10804600 
Pb      14.06981019       3.68009702      10.74720543       82       0.05059200      -0.19157300      -0.39968900 
Pb      13.74994768       2.99952666      29.21238873       82       0.06700800       0.30565600       0.41658100 
Pb      13.13920273      14.69077489      10.59799144       82       0.36035800      -0.50153700       0.36150800 
Pb      13.55564917      14.63295850      29.40313929       82       0.38646300       0.08464900      -0.32675300 
Pb      18.97579739       3.41777665      10.13721391       82      -0.31492300       0.86134100      -0.49330400 
Pb      19.02940823       3.80529195      29.13847910       82      -0.65751600      -0.49195800       0.47561400 
Pb      18.17352705      14.32486949      10.91576392       82      -0.08470900       0.00004000      -0.26712800 
Pb      18.45277668      14.99365207      29.67706494       82       0.16213400      -0.86881300       0.48313400 
I       3.30263324       3.57618269      18.78962962       53       0.26969500       0.06949700       0.66786900 
I       3.85127774       3.93877462      38.49427098       53      -0.30706300      -0.84125600      -0.21461200 
I       3.67289610      15.09915788      19.18037070       53       0.08879500      -0.30506100      -0.23717500 
I       3.33533255      13.72656176      37.49823125       53       0.06499200      -0.06968900       0.35201600 
I       8.62523612       3.57289064      19.29304074       53      -0.27653500       0.02728900      -0.23348300 
I       8.60217135       3.48061217      37.74753940       53      -0.14782600      -0.01178200       0.15723900 
I       8.98470320      14.54944899      19.13433699       53      -0.73917900       0.29872000      -0.19068100 
I       8.07255633      14.07936113      37.50574313       53      -0.11241600      -0.17234700       0.12743200 
I      13.34214989       3.51369482      19.04333090       53      -0.14235100       0.40493000      -0.20051900 
I      13.82597385       3.25721532      37.31305140       53      -0.40838800      -0.39016900       0.48586600 
I      13.34920604      14.26842436      18.61204626       53       0.21937200       0.58592500      -0.22736800 
I      13.32301336      14.17721233      37.55386790       53      -0.02966700      -0.23524900       0.36320700 
I      18.40903894       3.58832017      19.31272884       53      -0.23084700       0.32385700      -0.15417800 
I      18.87664732       3.17544411      37.86211799       53       0.29941900       0.13042400      -0.36486600 
I      17.74372174      14.31470276      18.15253497       53       0.62858300       0.28206900       0.15322300 
I      18.64183380      14.23440986      38.10405596       53      -0.41498800      -0.21181100      -0.27057100 
I       1.59832259       6.97984398      -0.33721793       53      -0.25224200       0.24565500      -0.06419900 
I       0.85420814       7.46356802      19.22481905       53      -0.35042400      -0.18573200       0.15032300 
I       1.35693516      17.74395317      -0.62529565       53       0.37892300       0.54011300       0.53591200 
I       0.23555981      18.69932394      20.08349884       53       0.10446600      -0.44993000      -0.22145000 
I       6.33342270       7.55761231       0.16351490       53       0.08183600       0.05298300      -0.39046800 
I       5.65172780       7.79556903      19.32396199       53       0.14096200      -0.07168000      -0.33615400 
I       6.03528836      18.13497973      -0.93929588       53       0.12797200       0.14271900       0.64411300 
I       6.39301409      18.93475631      18.34216609       53      -0.27476000       0.30616200      -0.05269400 
I      12.07137297       7.18384839      -0.36273976       53      -0.00862000      -0.00349100       0.11942100 
I      10.18588106       7.10689751      18.13767536       53       0.37838400       0.39244400       0.42222400 
I      11.00779056      18.28473610       0.12531320       53      -0.25936400      -0.40813800       0.13775400 
I      10.61902940      18.62109151      18.39805047       53       0.18234500       0.12194400      -0.12979700 
I      16.97807282       7.05446830      -0.48351708       53      -0.79942900      -0.27815400       0.08962200 
I      15.96403742       7.39180042      18.59179844       53      -0.01864100      -0.44835100       0.32914300 
I      16.14011391      18.27230806       0.48263009       53      -0.06613100      -0.07596100      -0.46958700 
I      15.53485606      18.01828868      18.54106471       53      -0.19958100      -0.07432700       0.08026200 
I       3.28799486       9.34703923       9.02846031       53       0.34702700      -0.38183000       0.30725000 
I       4.11204028       8.75960986      28.44752485       53      -0.54722400       0.20802900       0.05593400 
I       3.25948785      20.19260053       9.36153284       53       0.31101800       0.15890100       0.01877400 
I       3.02360179      20.20313530      28.52182904       53       0.23817000      -0.17903100      -0.47313500 
I       7.95624964      10.23955001       8.86486997       53       0.50408500      -0.56604700       0.45410800 
I       8.56941087       8.81154460      28.30176197       53       0.20197900      -0.00005800      -0.25966400 
I       8.76701367      20.36519839       9.23529085       53      -1.02511400       0.26422900       0.04635100 
I       8.42345224      19.81964612      27.77486399       53      -0.28338800       0.34279300       0.29970100 
I      13.09130226       9.06936783       8.59456669       53       0.47110900       0.41180100       0.53469100 
I      13.38613028       9.28099831      27.78722271       53       0.12113100      -0.27642300       0.33212200 
I      13.68064529      20.02298376       8.64131407       53       0.17150100      -0.06735000       0.17815600 
I      13.39915780      19.98670081      28.36795174       53      -0.19110200       0.24210900      -0.13208800 
I      19.21797088       9.09384567       8.84076630       53      -0.77955300       0.05992900       0.17467200 
I      18.80862647       8.95579042      28.10439978       53      -0.39323500       0.12606900       0.26443500 
I      18.63465326      19.63648696       9.10270129       53      -0.54895100       0.63412300      -0.10306500 
I      18.17530612      19.78143320      28.38803950       53       0.11013800       0.10960400       0.03282900 
I       0.95413612       1.63351159       9.36954327       53       0.32325100      -0.41182200      -0.29401200 
I       0.75204026       1.51298915      28.02540576       53       0.21622900       0.13851600       0.27061700 
I       0.84062090      13.10728132       9.14230382       53       0.15313300       0.11046600       0.36134700 
I       0.62385811      12.62068730      28.40591589       53      -0.00356000       0.10316800       0.37766600 
I       6.04729024       2.17092600       9.27266877       53       0.20449700      -0.91906800      -0.16952600 
I       6.27186566       1.65898041      27.82072540       53      -0.40748000       0.10954300       0.34307800 
I       5.45769131      12.97206545       9.32944015       53      -0.08057500       0.37223700       0.44413800 
I       6.13080586      12.72741757      27.82600961       53       0.40455100      -0.00710900       0.06619700 
I      10.42316795       1.52763365       9.25288178       53       0.24446600       0.52751400       0.40796400 
I      11.28620622       1.25301471      27.84164305       53      -0.34038900       0.14017600       0.19514400 
I      10.65233328      12.92634270       9.05785125       53       0.89800600      -0.33108400       0.20636800 
I      11.12995138      13.07646508      27.91837168       53       0.00240800      -0.42043700       0.03092900 
I      16.00932993       1.46793827       8.99097126       53      -0.01553100       0.36511700       0.45001500 
I      16.25374740       1.29944298      28.61129361       53       0.12518000      -0.02529700      -0.40491100 
I      15.74873052      12.27581884      10.27726437       53       0.17599300       0.06244500      -0.36227300 
I      16.48988427      12.84000095      28.60175695       53      -1.08904900      -0.64706500      -0.30384700 
I       0.66529172       0.93033015      17.22948833       53       0.13024600      -0.43897700       0.10856100 
I       0.18956077      -0.77994983      35.74780840       53       0.43794200       0.51159700       0.16236000 
I       1.09125748      11.64452633      16.75670789       53      -0.49528300       0.06048800       0.31812500 
I       1.29474908      10.93386258      35.09720399       53      -0.21050100      -0.18725300       0.17572300 
I       6.03003066       0.97705408      17.07045018       53      -0.01913300      -0.45030600      -0.28441000 
I       6.46565951      -0.22237936      35.58014300       53      -0.36636700       0.09817200       0.24489600 
I       5.39761565      11.29829578      16.42353647       53       0.13062700       0.40826400       0.56940100 
I       6.85574912      10.49732329      35.50817455       53      -0.94030400       0.80698300      -0.53156700 
I      11.53388312       0.53230963      16.70776649       53      -0.30383400       0.05203700      -0.06374100 
I      10.70742550       0.14624512      35.28191385       53       0.30830400      -0.15496200       0.34960100 
I      10.75460720      11.44636279      16.05239580       53       0.08875300      -0.43569200       0.96437300 
I      11.02220974      10.55635088      35.26239907       53       0.24535800       0.04509500       0.49610700 
I      15.92028745       0.12670791      16.70273002       53       0.83852800       0.66061800      -0.03283200 
I      15.84507894      -0.74982381      35.53385951       53       0.22169300      -0.03757500       0.37336900 
I      15.93183156      10.80596896      16.72230597       53      -0.27263000       0.47850300      -0.13427900 
I      16.51300409      11.06080090      35.52860384       53      -0.32456400      -0.10183300       0.14559500 
I       3.95807632      10.65864212       2.62553539       53      -0.08223900       0.22558000      -0.55495400 
I       2.91769836      10.99865967      21.04488482       53       0.16310300       0.26190200      -0.31428200 
I       4.21527459      21.40000361       1.48072518       53       0.03950700       0.67291400       0.57151900 
I       2.81016878      21.62641521      20.91414978       53       0.42747100       0.20278800       0.13729200 
I       8.99035546      10.09682736       2.01126798       53       0.05343600       0.50981800      -0.51988700 
I       8.63021652      10.38732544      20.30510642       53      -0.19353400       0.21834300       0.81170900 
I       8.94047508      22.03996109       1.36344485       53       0.29819900      -0.15900200      -0.47448600 
I       8.28233535      22.00370057      20.69615031       53      -0.40224700      -0.31542900       0.16295900 
I      13.37113608      10.65738199       2.02970919       53       0.52687200      -0.12556200      -0.00605500 
I      13.54125956      10.26506980      20.59070566       53      -0.20338400      -0.11999200       0.38725700 
I      14.00630382      21.74302775       1.46371946       53      -0.33232100       0.17896200      -0.44006400 
I      13.43056639      21.50058715      20.66103778       53       0.08307100       0.17634200      -0.19788300 
I      18.73559159      10.17434000       2.31363539       53      -0.01906300       0.71747600      -0.64198200 
I      18.41697393      11.09584716      21.10047558       53       0.25241300      -0.31657200      -0.00561400 
I      19.01841671      21.74078887       1.25271293       53       1.12129200      -0.77483200       0.86356600 
I      17.99836813      21.84170987      20.84538570       53       0.13263000      -0.06376300      -0.08460200 
I       1.23140277       5.77377953      11.30975119       53      -0.45901500      -0.00030000      -0.15903900 
I       1.07254507       5.80757075      30.32292243       53       0.34284500      -0.02231500       0.03390700 
I       0.55823010      17.00137515      11.13462184       53       0.11509600       0.09643900       0.17953500 
I       0.94118200      16.40195919      30.55150561       53       1.05642200       0.62728900      -0.00516300 
I       5.58928684       5.75537706      11.46205536       53       0.85112200       0.82287300       0.34209300 
I       6.17307955       5.36766600      30.04037360       53      -0.00119700      -0.09997600      -0.09486300 
I       6.17179903      16.51287971      11.61760366       53      -0.42672500       0.71721000       0.02122700 
I       5.55552722      16.41704208      30.02837784       53       0.46611100       0.29279000      -0.06001100 
I      11.12442452       5.84382413      11.31097156       53       0.10889300      -0.06930900       0.01075900 
I      11.38192865       5.77408641      30.49946484       53      -0.20858900      -0.25358400      -0.64584100 
I      10.62755774      16.47243811      11.42380574       53      -0.05341100       0.38258700       0.28667500 
I      11.06942814      16.95959898      29.75397199       53       0.05369300      -0.08635100       0.30863200 
I      16.64547437       6.18281196      10.99363850       53      -0.07960100      -1.04957600       0.42583200 
I      15.90748422       5.43715089      29.90490489       53       0.30437400       0.21750200       0.10984200 
I      16.11745695      16.63740685      11.51649813       53      -0.16012300      -0.03303700      -0.17492700 
I      16.28856835      16.79997460      30.77047363       53      -1.09397400       0.37213700      -0.11309700 
I       3.87130331       5.50569475       6.93936058       53       0.21574000      -0.21807300       0.11473100 
I       3.18993670       4.97758659      26.55066011       53       0.35787700       0.06480500      -0.57544900 
I       3.62041897      16.59981381       6.80995500       53      -0.17679700      -0.33623000       0.18532400 
I       3.21873835      16.21656217      26.34986619       53      -0.47335200      -0.32974400      -0.53990400 
I       8.50478403       4.54759878       7.33365880       53       0.13118200       0.81931800       0.30316500 
I       8.71796420       5.28067073      25.47784894       53       0.18684600      -0.21252500       0.75020700 
I       8.38243766      15.62684498       7.43392832       53      -0.20081700       0.71852100       0.18344000 
I       8.79980372      15.99539707      25.71326908       53      -0.17008300       0.18893300       0.38948000 
I      13.84294695       4.87644129       7.41134578       53      -0.26400300       0.23909900       0.36253400 
I      13.81238253       4.70969552      26.46632784       53      -0.68202700      -0.01062800      -0.90640900 
I      13.45512783      15.70412619       7.61619436       53       0.30506000       0.35865300      -0.54828800 
I      13.19497701      15.98499789      25.95111365       53       0.27489500      -0.02717500      -0.02300100 
I      18.54618376       4.89357853       6.65895276       53      -0.01723200       0.32064800       0.38440000 
I      18.70911650       5.06429843      26.20738619       53      -0.12642800       0.02519900       0.11190200 
I      19.10340962      16.10419799       7.02366429       53      -1.06982800      -1.05226000      -0.62939200 
I      18.27238962      15.85707266      26.65911032       53      -0.03595800       0.37860700      -0.76265400 
I       1.32273715       3.13402071       3.64846006       53       0.14981900       0.00609500       0.06435200 
I       1.31390396       3.27917391      23.23853915       53      -0.32184000      -0.00693000      -0.26171100 
I       1.06227741      14.12173983       3.65721372       53       0.36736700      -0.07410100       0.27159500 