320
Lattice="20.6219857072 -0.122254463474 0.281942345212 -0.10158049479 22.2237385346 -0.0505120970807 0.386207373311 -0.0953774875969 37.7549049082" Properties=species:S:1:pos:R:3:Z:I:1:forces:R:3 energy=-101591.998331 stress="-995.834296 1058.784892 -1039.194214 1058.784892 600.260347 145.669815 -1039.194214 145.669815 -2177.061765" pbc="T T T"
Cs       4.25659295       0.38965031       5.83358785       55      -0.55384700       0.19289300       0.25072800 
Cs       4.37742655       1.12344657      25.16694347       55      -0.11823300       0.03781600       0.12548200 
Cs       3.98510804      12.39078706       6.63702682       55      -0.05478600      -0.27285100       0.02749500 
Cs       4.39599679      11.20379667      25.02366084       55      -0.07925900       0.53607700       0.03781900 
Cs       9.16956451      -0.00185876       6.30096918       55       0.54173600       0.35964900       0.13003200 
Cs       9.27243929       0.67628396      25.02724566       55       0.05523000      -0.00002900       0.21504800 
Cs       8.93455454      11.70577684       5.63133225       55       0.02731400      -0.27461900       0.14982400 
Cs       9.71718174      12.16854037      24.67122551       55      -0.28789600       0.28352300       0.28573600 
Cs      14.00576147       0.30565096       5.98453824       55       0.21529200      -0.17531400       0.12677500 
Cs      14.29720482       0.44235291      24.46889540       55       0.09429100       0.67122100       0.53100800 
Cs      13.82281716      11.61265722       6.16350474       55       0.29821200      -0.18203800      -0.04674600 
Cs      14.32853526      12.16776563      24.84414314       55      -0.20885300      -0.34315900       0.38244600 
Cs      19.45851101       1.61371788       6.55648878       55       0.02757700      -0.41378200      -0.32352800 
Cs      19.20616896       0.44228554      25.40136243       55       0.12433500       0.03957500       0.22059300 
Cs      19.29995615      12.13063537       6.76727160       55       0.15200500      -0.18153800      -0.19145600 
Cs      19.84448566      12.36384680      25.73342797       55      -0.17072900      -0.29913000      -0.04062300 
Cs       1.08002041      10.15782186      12.65116638       55      -0.12279800       0.29704300      -0.01854900 
Cs       2.18173961      10.25006364      31.59957931       55      -0.21063800      -0.38628400       0.18653800 
Cs       1.24645842      21.67129833      12.40610931       55      -0.07270900      -0.18505200       0.01478900 
Cs       1.18123140      20.90755268      31.15976702       55      -0.25273600       0.13889100      -0.09450600 
Cs       6.46795736       9.73970528      12.81513216       55      -0.17615800       0.33082700      -0.00317800 
Cs       7.39516148       9.84659768      31.54149745       55      -0.14296100      -0.04433200      -0.08558800 
Cs       6.19940196      21.75845992      12.55663610       55      -0.16345100      -0.14597500      -0.07086000 
Cs       7.11836568      20.50720813      31.40296430       55      -0.47321100       0.31923800       0.25485400 
Cs      11.98490400       9.75881140      12.55721588       55      -0.40243700      -0.13115900       0.30956500 
Cs      11.79847694      10.14327536      31.47615305       55       0.20583400      -0.07332200       0.08952700 
Cs      11.43263323      22.00620559      12.89852724       55      -0.02617100      -0.21197100       0.06478300 
Cs      11.84727726      21.72289240      31.62779141       55       0.31200700      -0.27957000      -0.12516000 
Cs      16.36211109      10.09605513      13.67666422       55       0.12196500      -0.19335700       0.01801600 
Cs      17.20367350       9.86023777      32.10513410       55      -0.12658900       0.28845200      -0.27047100 
Cs      16.28000418      21.00762861      12.60190672       55       0.52483000       0.37800000      -0.19511100 
Cs      17.11237793      21.00281279      31.88089391       55      -0.21083900      -0.08540700      -0.13402500 
Cs       4.26710346       6.83398888       3.28970367       55      -0.53673400      -0.41768000       0.07423600 
Cs       4.54380229       6.44914113      22.31349279       55      -0.09956100       0.10063900      -0.05798900 
Cs       3.70952896      17.39820111       2.58233731       55      -0.16852200      -0.00203900       0.95159500 
Cs       3.04373611      17.79298572      22.54841395       55       0.76517700      -0.03214300      -0.17611200 
Cs       9.24285124       5.31974061       3.81083181       55       0.14095900       0.22261200      -0.24661800 
Cs       9.29514248       6.82057540      22.05612873       55      -0.10461600      -0.38330300       0.06790100 
Cs       8.99955903      16.32964049       3.96150558       55       0.26320100       0.50217900      -0.07346300 
Cs       9.03566039      17.55564643      21.75289997       55      -0.08924100       0.06792900       0.20396300 
Cs      14.61892011       6.01649541       2.66884257       55      -0.43132900       0.04343600       0.52961100 
Cs      14.42332787       6.86503352      22.58517063       55      -0.10652700      -0.01071000      -0.10604000 
Cs      14.48767092      16.86437298       3.40389943       55      -0.12887700       0.12598800       0.24639300 
Cs      14.42662688      17.52934107      22.42194386       55      -0.19799400      -0.08833400      -0.15375900 
Cs      19.12211857       6.40146872       3.99522250       55       0.26706900      -0.40686800      -0.53267900 
Cs      20.00045398       6.08818674      22.58775309       55      -0.74133600      -0.22167900       0.70250800 
Cs      19.56331499      17.79466279       3.48099453       55      -0.14619400       0.06419600       0.20589300 
Cs      18.78001410      17.32489191      22.61334496       55       0.00016100       0.01526500       0.05709000 
Cs       1.02452713       4.91566936      15.85142916       55       0.35679700      -0.29230200       0.08469600 
Cs       1.99813795       4.11491594      34.01548270       55      -0.09402300       0.06691100       0.21461800 
Cs       1.37193330      16.57121276      15.67927606       55      -0.09053500      -0.18944700      -0.00018100 
Cs       1.78219021      15.22094456      34.75959961       55      -0.08639900       0.16968400       0.06639700 
Cs       6.55710224       4.91763325      16.36980131       55      -0.06003800      -0.40473800      -0.52810500 
Cs       6.91676948       4.04404732      34.26684281       55      -0.05601700       0.00151400       0.10894600 
Cs       6.08356690      15.76496064      15.66699866       55       0.26141600       0.15788000      -0.14556600 
Cs       6.09216965      15.04797079      34.41662445       55       0.40814500       0.15903800      -0.01887800 
Cs      11.08215056       4.61899780      15.69116048       55       0.20888900      -0.02028900      -0.01356700 
Cs      12.24938463       4.59690195      34.60871251       55      -0.17492800       0.09346700      -0.00233700 
Cs      11.27244723      15.53455113      15.81171235       55      -0.20011000       0.18791500       0.05995700 
Cs      11.71466438      15.66026282      34.26836574       55       0.58093500      -0.15451200       0.49854100 
Cs      17.16630643       4.68939688      16.09996080       55      -0.45699900      -0.05441800      -0.03577600 
Cs      17.42684191       4.83443620      34.52304834       55       0.24146100      -0.50489100       0.18192000 
Cs      16.00193144      15.84463208      15.41912436       55       0.25841400      -0.02999800       0.19217100 
Cs      16.91014377      15.48578245      34.97185433       55      -0.43425300      -0.25253900      -0.06955600 
Pb       1.51966225       1.55194912       0.65211499       82      -0.47439000       0.59427700       0.17550100 
Pb       1.35034475       2.08753189      20.35623528       82       0.52154600      -0.04664800       0.18418000 
Pb       2.00426338      12.27912374       1.43397154       82      -0.34607000       0.42130400       0.01416000 
Pb       1.15356744      12.83435260      20.34600956       82      -0.04694800       0.59148900      -0.23232500 
Pb       6.55450753       2.01285899       1.21497384       82      -0.05500100       0.34851600       0.12017200 
Pb       6.89806859       1.72226694      20.53614597       82      -0.42702400       0.29950000       0.05313800 
Pb       6.62274571      12.86111730       0.97011582       82      -0.07176300       0.21900700      -0.29066900 
Pb       6.51552668      13.15938324      19.88937657       82      -0.17140900      -0.89030600       0.23676000 
Pb      11.97065249       1.55216041       0.74260112       82      -0.37900100       0.45344900       0.76485500 
Pb      11.81742382       2.16247834      20.64098465       82      -0.40344900      -0.23515600      -0.38246400 
Pb      11.58193105      12.69329926       0.75226952       82       1.14478700       0.69902600      -0.10427300 
Pb      11.90259498      12.88599567      19.75976669       82       0.04354100      -0.04921200       0.52977600 
Pb      17.04724788       1.61056381       1.21682239       82       0.68855400       0.02137000      -0.30392600 
Pb      16.26349073       1.80553749      20.43638442       82       0.39867300       0.01446600      -0.62179000 
Pb      17.24562469      12.82537524       1.75025345       82      -0.10059300      -0.12187000      -0.06830100 
Pb      16.75464090      12.86709472      20.31590910       82       0.23739400       0.09219600      -0.23814700 
Pb       3.67909778       9.57596406      17.75953623       82       0.31676800       0.25696600       0.08548300 
Pb       4.30207487       8.78125238      36.87918156       82      -0.05672600      -0.22427000      -0.58811500 
Pb       3.97116786      20.88847719      17.70547708       82       0.70665200      -0.30871400       0.00606400 
Pb       4.39660719      20.00337737      36.25717826       82      -0.46535400       0.53770300      -0.36607100 
Pb       8.87412600       9.51358694      17.95271443       82       0.29358500       0.09063000      -0.01145600 
Pb       9.69357520       8.88222451      36.82365766       82      -0.42550800      -0.44535200      -0.36443400 
Pb       9.00799235      20.87915379      17.27469216       82       0.09209200      -0.19849500      -0.19348000 
Pb       9.56817994      19.98109472      36.25530827       82       0.30553000       0.55922900       1.16285800 
Pb      14.13478443       9.09645946      18.02667792       82       0.17372500       0.09377100       0.69202000 
Pb      14.95352422       8.95680452      37.04430486       82       0.14371700      -0.12478700      -0.15541200 
Pb      14.08648937      20.20804088      17.86927444       82       0.36430000       0.79961400      -0.91025700 
Pb      14.50619931      19.53551425      37.09915814       82      -0.32545500      -0.61767300      -0.56640000 
Pb      19.86770840       9.47582995      18.52713311       82      -1.42357000      -0.75992800       0.28657500 
Pb      19.91257583       9.63431438      36.55889326       82      -0.59281800      -0.69062900       0.31478100 
Pb      19.50864033      20.62854699      18.56453794       82      -0.25511400      -0.23831200      -0.15536300 
Pb      19.24634612      19.66257637      36.62177361       82       1.20227500      -0.37507000       0.24546400 
Pb       1.61733435       7.49827512       8.24072006       82       0.00585700      -0.54175700      -0.44288400 
Pb       1.80936422       7.79485583      27.27481861       82      -0.55976000       0.01065800      -0.32159800 
Pb       1.03280937      18.37269997       8.11010884       82      -0.09294500      -0.37102100       0.88297600 
Pb       0.98643125      17.97889526      27.39090171       82      -0.01241000       0.32204800      -0.55674900 
Pb       6.48448510       7.34142080       8.29942662       82       0.27672800      -0.56105600      -0.66331500 
Pb       6.69875782       7.06344911      26.93122182       82       0.61464100       0.43990600       0.11349000 
Pb       6.28427914      18.12422957       8.65460569       82      -0.78501100       0.26857000       0.17838400 
Pb       6.27116984      18.64780237      27.07470145       82       0.54975800      -0.80219300      -0.61550200 
Pb      11.55349643       7.13242121       8.15161193       82      -0.25354100      -0.32219100       0.01690500 
Pb      11.95015001       7.44852245      27.07886809       82       0.09554200      -0.06053000      -0.17991600 
Pb      11.47318295      17.96208682       8.68978124       82       0.73487600       0.50279400      -0.18658900 
Pb      11.55142230      18.38393214      26.68509911       82       0.08813500      -0.11659000       0.39048900 
Pb      17.23340955       7.80942886       8.49990206       82      -1.13073900      -0.86441000      -0.37124600 
Pb      16.93380236       7.57135873      27.32987400       82       0.32034100      -0.01654200      -0.61098600 
Pb      16.69358971      17.87234481       8.85388993       82       0.28335900       0.84023900      -1.39412400 
Pb      16.35293775      17.87182628      27.61183778       82       0.27634800       0.53541500       0.10482100 
Pb       3.85346281       3.74228332      10.40043936       82       0.38652400       0.06508100      -0.57443500 
Pb       4.68604071       3.53747181      29.56325975       82       0.27245300       0.26647100      -0.90445400 
Pb       3.92678426      15.00530509      10.92255455       82      -1.00729900       0.43896200       0.45063900 
Pb       4.45724293      14.57682397      29.04199075       82       0.33527800       0.05586900       0.18633300 
Pb       8.89727321       3.80903328      10.59422184       82      -0.51660700       0.52656300      -0.03040600 
Pb       9.56753687       3.74199139      28.98825823       82      -0.45947700      -0.97600900       0.12185700 
Pb       9.07176788      14.10239038      10.95232429       82      -0.44149700       0.87394500       0.57025400 
Pb       9.86989188      14.80564522      29.97201618       82      -0.15385900      -0.12703600      -0.56356100 
Pb      14.81195846       4.12372489      11.19802748       82      -0.11503200      -0.49676200      -0.18823200 
Pb      15.04475548       3.56567370      29.83939513       82       0.02723600      -0.07095900      -0.04194500 
Pb      14.03971928      14.50201123      11.02409728       82      -0.53075200      -0.28089400       0.05341600 
Pb      14.83062363      14.57333305      29.56581975       82      -0.57563000      -0.32458500       0.22985800 
Pb      19.97765178       3.28288312      10.59284486       82      -0.70550900      -0.37085200      -0.29002800 
Pb      20.02792094       3.67989293      29.50251988       82       0.37254300       0.04004800       0.04120500 
Pb      19.03820088      14.33580289      11.26867255       82       0.26048200       0.31405000       0.44194600 
Pb      19.82480384      14.56384328      30.36294139       82      -0.12895600       0.68106500      -0.57755300 
I       4.01597405       4.34365553      19.22678781       53      -0.35935800      -0.52656400      -0.00112000 
I       4.19503650       3.87303337      37.86750934       53       0.51442200       0.04510800      -0.29526200 
I       4.63638909      15.39319463      19.12353229       53      -0.57859400       0.28169800       0.02274300 
I       4.14958113      14.36640351      37.95892025       53       0.37035900       0.21991900      -0.57375700 
I       9.08540898       3.77719451      19.35560969       53       0.08042300       0.01622700      -0.04836800 
I       9.68820103       3.80062548      38.23068995       53       0.06865500      -0.33066600      -0.60285800 
I       9.04094372      14.70877235      19.19881865       53       0.61557900       0.31406800      -0.38436300 
I       8.98713056      14.96436340      37.28334571       53       0.05943800      -0.30252900       0.41960500 
I      13.94368342       4.06727415      19.29900686       53       0.26586400      -0.15699900       0.09172100 
I      15.01729158       3.18073408      37.72044693       53       0.35699500       0.42556600      -0.47156000 
I      14.10177487      15.04813615      18.60569705       53      -0.13338600      -0.27939000       0.33627100 
I      14.34764444      14.43240730      37.44017043       53       0.03675100       0.01511600       0.13389700 
I      19.06614861       3.20933711      19.04021377       53       0.14658400       0.01512500       0.17964500 
I      20.08843522       3.42818782      37.37620096       53      -0.28990700      -0.14304300       0.27393800 
I      18.88381878      14.77563050      18.81202844       53       0.00402400      -0.07352600       0.18009800 
I      19.63921991      14.88238000      38.52990314       53       0.23815700      -0.18745300      -0.19559600 
I       0.95830184       7.57791083      -0.30340330       53       0.31617900      -0.18848000       0.26738000 
I       1.03210405       7.54236169      19.69103549       53       0.82293600       0.23946100      -0.98076000 
I       1.55235844      18.91470112      -0.01160065       53      -0.22354400      -0.33634800      -0.06083100 
I       0.68432020      18.33410700      19.82885922       53      -0.08348900       0.53079500      -0.86319900 
I       6.49377073       7.44351983       0.46454471       53       0.26217600       0.03459100      -0.41075600 
I       6.33880273       7.66687708      18.57560067       53      -0.46926500       0.26012100       0.51079500 
I       5.55943473      17.69625372      -0.36309589       53       0.81356000       0.48501500      -0.61536100 
I       6.52337409      19.19840321      18.76195015       53       0.37693600      -0.20671400       0.01949200 
I      11.96897338       7.04497891       0.19096218       53      -0.14636700       0.08100200      -0.08495000 
I      11.24847731       7.37697811      18.98280252       53      -0.00917500       0.15976900      -0.27170600 
I      11.68180385      17.91873416       0.71319884       53       0.11435700       0.38629700      -0.39483800 
I      11.31645010      18.99028349      18.66499461       53      -0.54043100      -0.56159300       0.15914400 
I      17.06739924       7.23344642       0.21367456       53       0.31750000       0.18467900      -0.07264400 
I      16.66815095       7.47981104      19.48257893       53      -0.09689800       0.09562500      -0.31836800 
I      16.71769029      17.89272787       0.47281675       53      -0.21212300       0.23027900      -0.09324800 
I      16.42731565      18.67726180      19.38142714       53       0.52352100      -0.04045800      -0.11486300 
I       3.95010907       9.18132031       9.36898552       53      -0.22531600       0.47928100       0.08976400 
I       4.70475895       9.14222718      28.56266783       53       0.00669900      -0.00013200      -0.21910500 
I       3.92370470      20.47907769       9.18742839       53      -0.15962800      -0.55894000       0.25230600 
I       4.04333893      20.28329764      27.96889908       53      -0.79724000       0.51198600       0.52498400 
I       8.36093714       9.45757512       9.30310218       53       0.67286400       0.60344300       0.17741600 
I       9.41526565       9.15065028      27.95948688       53      -0.19869300       0.15743400       0.38509200 
I       8.32747336      19.96812016       9.99373767       53       0.74035500       0.34373800       0.00848000 
I       8.89253190      19.98670876      28.37031643       53       0.51343600       0.08597300      -0.49555400 
I      13.10684702       9.57065113       9.08642053       53       0.96512600      -0.05923000       0.16267200 
I      14.59241161       9.27545761      28.38267141       53      -0.31737100       0.10846500       0.17537100 
I      14.21678518      20.10418823       9.31148853       53      -0.16706300      -0.04447100       0.16811100 
I      14.43312999      19.95697373      29.10566726       53       0.01622300       0.16881300      -0.36296300 
I      19.47219193       9.36341741       9.55128983       53       0.82739600       0.31340500       0.33150700 
I      19.53799157       9.55463478      28.71079079       53       0.33695200      -0.39273400      -0.15940400 
I      19.04634532      20.29492687       9.72719821       53       0.13925600      -0.33003700      -0.05767200 
I      19.02357681      19.72162998      28.78268014       53       0.17664600       0.00702500      -0.09106500 
I       1.81806701       1.33945861       8.82292899       53      -0.29543000       0.68989200       0.57420400 
I       1.44554667       1.75247457      27.76329241       53      -0.01267800       0.07934500       0.16907300 
I       0.78488303      13.14293103       9.54594220       53       0.35080100      -0.28448700       0.09299500 
I       1.45985432      12.87679272      29.02719009       53       0.07601700      -0.17333100      -0.42202900 
I       6.44550017       1.95639193       8.74897061       53      -0.14443800       0.38811900       0.69978300 
I       6.85666349       1.36864653      28.51874764       53      -0.02273800       0.25016100      -0.23842500 
I       6.03128791      13.03874868      10.10931754       53       0.49214300      -0.87750000      -0.48793800 
I       6.92979100      12.87214226      27.95151801       53      -0.05219700       0.06923600      -0.06409000 
I      10.74608987       1.76881348       9.69880136       53       0.82749400      -0.68697400      -0.38877400 
I      12.16938553       1.82681063      27.91121734       53       0.18460200      -0.32616900       0.10634500 
I      11.45787703      12.62795078       9.92183096       53       0.15404000      -0.01545500      -0.33575100 
I      12.00183187      12.70863274      28.64037640       53      -0.12282600       0.15052400      -0.07639000 
I      16.98362853       1.80635101       9.69344557       53      -0.26483800       0.22066000       0.05672500 
I      17.61697322       1.65300700      28.95476689       53      -0.47919100       0.01126600      -0.20606000 
I      16.73488763      12.31489132      10.62887783       53      -0.35163000      -0.02245100      -0.49218100 
I      16.95024130      12.51517282      28.52527525       53       0.25463700       0.33965700       0.15755900 
I       1.95845177       0.77554330      17.21381348       53      -0.80332700       0.41239800      -0.14334900 
I       1.33614531      -0.17531942      35.53678936       53       0.16782900      -0.07599200      -0.21047100 
I       0.84723871      11.80614062      17.15172318       53       0.91135800       0.31798700      -0.64337100 
I       2.02498226      10.99309551      35.68004034       53       0.50144300       0.79771000      -0.35001300 
I       6.52128362       0.81010437      16.82714065       53      -0.31719000      -0.16931700       0.24949900 
I       7.44919103       0.31303700      36.16180179       53       0.06262700      -0.50076700      -0.49471700 
I       6.16923719      11.75605315      16.95362096       53      -0.24266600      -0.66975300      -0.39780700 
I       7.45041591      11.31710847      35.54265654       53      -0.18171700      -0.33092000       0.48779100 
I      11.91216029       0.78099607      17.07111471       53      -0.23871400      -0.24554500       0.12109500 
I      12.67411352      -0.43190773      35.85845769       53      -0.53340000       0.09499400      -0.43335500 
I      11.14943232      11.53960117      16.96184502       53       0.34287200      -0.11092100      -0.27886800 
I      12.32901217      10.39524790      35.82181534       53      -0.33858100       0.79520700      -0.28017100 
I      16.53796844      -0.00629691      16.60075385       53       0.16404800       0.02500000       0.68495400 
I      17.76622409      -0.42868731      35.49944781       53      -0.82096800       0.61903100       0.05943300 
I      16.30588084      11.26594617      17.19801454       53       0.16393400       0.12325700       0.16999000 
I      17.01131903      11.35733769      35.87742907       53       0.10511500      -0.06242800       0.17150200 
I       4.27740880      10.62476019       2.48657092       53       0.53729300      -0.36410400       0.03055700 
I       3.37625588      10.76225321      20.94543318       53       0.40873600       0.00755200      -0.01921600 
I       3.91866737      22.55323285       2.05753044       53       0.34795100      -1.04776300      -0.28151400 
I       3.76872751      22.24152382      21.42385887       53      -0.15319200       0.05124400      -0.54541100 
I       9.20856067      11.04344837       1.67066470       53      -0.71502300      -0.73710500       0.72771600 
I       9.05776747      10.60787315      21.34467432       53       0.11344500       0.23524500      -0.95797200 
I       9.81023297      21.71616372       1.55288922       53      -0.51960700      -0.32021100       0.33450600 
I       8.96863178      21.86964757      21.11099846       53       0.27166900       0.05271600      -0.08665900 
I      14.01317405      10.98847158       2.09839149       53      -0.06038800      -0.25061200      -0.15806500 
I      14.37608416      10.79976114      21.23674792       53      -0.42336500       0.05054000      -0.28797100 
I      14.50681277      21.75399318       1.63061003       53      -0.14872600      -0.02299400       0.59686500 
I      13.73919139      21.66259248      20.91136717       53       0.14699400       0.31984600      -0.10045200 
I      19.87857311      10.97210920       2.35062738       53      -1.21639700      -0.64901000       0.13266100 
I      19.42360289      11.00443690      21.66327127       53      -0.29395000      -0.08238600      -0.26315300 
I      19.92124800      21.85300244       2.42486647       53      -0.62799900      -0.16704300      -0.14220000 
I      19.08012655      22.07986898      21.63133348       53      -0.02961500       0.18204600      -0.20509000 
I       1.16272548       5.60379180      11.45538031       53       0.33864600       0.64276000      -0.06704800 
I       2.29321920       5.84802411      29.95356129       53      -0.34858300      -0.00820800       0.16434000 
I       1.12388753      17.26095613      11.38010110       53      -0.11964600      -0.22287800       0.26828000 
I       2.01688273      16.70476778      30.65650889       53      -0.43523000      -0.17964800      -0.28647100 
I       6.24573006       6.17486246      11.34711400       53      -0.24187700      -0.43385900       0.02044400 
I       7.25826764       5.74833503      30.25623374       53      -0.28637900      -0.04315100      -0.04616600 
I       6.20705135      16.89148983      11.75667171       53       0.12712700       0.07018000       0.29150300 
I       6.77301527      16.64161490      30.10814447       53      -0.10826800       0.02314700       0.06042700 
I      11.61103833       6.01342708      11.46295621       53      -0.10649600      -0.31862200       0.16432200 
I      12.04036156       5.14055159      29.93147666       53       0.67974900       1.03088200       0.71769800 
I      11.43236171      16.39021295      12.05445791       53       0.12298600       0.04587800      -0.45048200 
I      12.11895203      16.96992720      30.11383711       53      -0.24711300      -0.18681200       0.10813200 
I      17.30221526       5.69520883      12.09221694       53       0.01459000       0.49637000      -0.20405800 
I      17.69082851       6.11195456      30.28701503       53      -0.51634600      -0.41876300       0.10664300 
I      16.35613469      16.56099316      11.66226596       53       0.08919000       0.02753200       0.85113600 
I      16.47288943      16.83919859      30.92130901       53       0.51412700      -0.12343200      -0.02944500 
I       4.07479901       5.64686172       6.85092900       53      -0.68426500      -0.32625400       0.45773400 
I       4.47632660       5.17269352      25.93458832       53      -0.40309700       0.06674300       0.33164300 
I       3.61796800      15.95092327       7.76524022       53      -0.01465400       0.31991700      -0.28117000 
I       3.54210696      16.32149502      26.05141043       53       0.13530900      -0.17073700       0.40216300 
I       9.05875452       5.15131524       7.35784137       53      -0.40396800      -0.21427300       0.76883800 
I       9.85272209       5.12798634      26.18835634       53      -0.47851000       0.41024100      -0.26936200 
I       8.93323269      16.36188653       8.20437271       53      -0.09102800      -0.99137100      -0.49904000 
I       9.50675720      16.29583884      25.82646185       53      -0.07900200       0.04087100       0.05162200 
I      14.11025820       5.30048343       7.92692262       53       0.30193800      -0.06814900      -0.11490900 
I      14.42416997       5.37030171      26.18901165       53       0.44001800       0.03961200       0.35982600 
I      14.25671532      16.04018349       7.62071638       53      -0.38289900      -0.20247900       0.38859400 
I      14.09869532      16.18497578      26.03346591       53      -0.23173100      -0.07937700       0.24652500 
I      18.82231132       5.21692503       7.62684691       53       0.17029200       0.31756000       0.22982200 
I      20.09953470       5.76294890      26.52910425       53      -0.10448700      -0.25478000       0.15078600 
I      18.90074257      15.87241853       7.10791744       53       0.30193600       0.49381700       0.67272700 
I      19.24534580      16.12112268      26.43304798       53       0.03729300      -0.09153300       0.32147600 
I       1.65872414       3.04399130       3.65939147       53      -0.28704500       0.27901800       0.09125000 
I       1.94270387       3.44722147      23.18341122       53      -0.32221200      -0.00045700      -0.17386900 