320
Lattice="19.6617570899 -0.0814679238363 -0.167564357314 -0.0931895773554 21.3022565472 -0.272959978647 -0.342945466383 -0.426442271563 36.6579432681" Properties=species:S:1:pos:R:3:Z:I:1:forces:R:3 energy=-101593.741549 stress="1495.998612 -270.519962 1695.295714 -270.519962 2293.473557 2251.487304 1695.295714 2251.487304 2265.819817" pbc="T T T"
Cs       3.81488753       0.74867012       6.01874897       55      -0.09461000      -0.17658800      -0.18953200 
Cs       3.24842068       0.56439628      24.16102381       55       0.14263300      -0.11763300       0.13927600 
Cs       4.14860575      11.67853086       6.12275395       55      -0.61875800      -0.53105900      -0.18109700 
Cs       3.51865398      10.64065780      23.93948764       55      -0.03305900       0.36160000       0.03025100 
Cs       8.28452206      -0.35691934       5.84763109       55       0.34778700       0.51650800       0.18169300 
Cs       8.35610266       0.60538683      24.44213009       55      -0.17218100       0.03216800      -0.11788800 
Cs       8.20418471      11.65296338       5.08838478       55       0.39988800      -0.20363300       0.19729300 
Cs       8.51258063      11.27017183      24.23656887       55      -0.28272400       0.08601500      -0.11856400 
Cs      13.59925516       0.81331242       5.27956218       55      -0.23978800      -0.25643900       0.28880000 
Cs      13.22156758       0.61720476      24.44977909       55      -0.24188600       0.00260800      -0.12624600 
Cs      13.57961451      11.14113935       5.45925714       55      -0.30278300       0.67224500      -0.12284700 
Cs      13.02072421      10.97673842      23.60053939       55       0.48726800       0.28164600       0.54312300 
Cs      18.54073662       1.40297244       6.14929815       55      -0.29594700      -0.37042000       0.12534000 
Cs      17.57595987       0.45859964      23.27890512       55       0.60406100       0.34415700       0.86642200 
Cs      18.68680714      11.18791975       5.73373184       55      -0.44461600       0.24753400      -0.26232200 
Cs      17.61300680      10.96066122      23.66713414       55       0.35593100       0.40966400       0.31232200 
Cs       0.90893586      10.13394964      12.13512445       55       0.17136700      -0.09126600       0.29038500 
Cs       0.60280109       9.66976065      30.71662431       55       0.21778800       0.09295100      -0.31407500 
Cs       1.85046783      19.80746333      11.68977209       55      -0.22829800       0.09537400       0.13609600 
Cs       0.29435058      20.32904961      30.20398436       55       0.14861700       0.03961200      -0.06472200 
Cs       5.85943116       9.53215703      11.71192700       55       0.30663400       0.09666200       0.55102300 
Cs       5.51482904       9.65680420      31.33594233       55       0.35914600      -0.15697500      -0.33922900 
Cs       6.02907800      19.96170397      11.80625906       55      -0.08063200      -0.09143300       0.40611500 
Cs       5.49285478      20.29055546      30.77528618       55       0.24867100      -0.13819200      -0.26508800 
Cs      10.57791633       9.47099182      11.95468106       55       0.03983800       0.12207200       0.24174700 
Cs      10.48547716       9.42922803      30.30319904       55       0.30421500      -0.08934600      -0.15606100 
Cs      10.91887460      20.36104519      11.59086115       55       0.00835500       0.01035200       0.49715900 
Cs      10.59765524      19.97228016      30.33248184       55      -0.05630100      -0.33072700       0.34496400 
Cs      15.92986113       9.39751733      12.15980752       55      -0.05601600       0.26272600      -0.08470000 
Cs      15.46992148       9.36926288      30.05633560       55       0.06627900      -0.21177400      -0.03954400 
Cs      15.93283398      20.07567568      12.17029537       55      -0.48601300       0.37288200      -0.38634300 
Cs      15.38535167      19.77848626      30.18358140       55       0.03468600      -0.04434500      -0.09674000 
Cs       3.31979680       6.96602811       3.09945870       55      -0.34588600      -0.32680000      -0.35455300 
Cs       3.74939258       5.94159490      21.67533249       55      -0.12829100      -0.01705200      -0.04864600 
Cs       3.15784760      17.27008913       2.86392285       55       0.36573500      -0.09272900       0.14491400 
Cs       3.26684439      16.82265727      21.57644934       55      -0.01593800      -0.13766600      -0.16540900 
Cs       8.10725699       6.44218365       3.02856002       55      -0.00024300      -0.51012900      -0.67977400 
Cs       8.47313954       5.96592063      21.61708553       55      -0.10405100      -0.01322000      -0.30842000 
Cs       8.62940509      16.41262869       3.14445738       55      -0.44124300       0.10036000      -0.04009600 
Cs       8.52644631      16.57544542      21.60712773       55      -0.42654900      -0.02565600      -0.13029500 
Cs      12.68299587       5.76734238       3.29205850       55       0.48416800      -0.29822000      -0.49120800 
Cs      13.38349494       6.31420729      21.86329088       55      -0.38646000      -0.30432000      -1.02031000 
Cs      13.44935120      16.90084067       2.48998433       55       0.44402800      -0.38400600      -0.34952200 
Cs      12.87211758      16.78503561      21.03110112       55       0.37144900       0.03935900       0.20178000 
Cs      18.41456184       5.86332415       3.70113815       55      -0.08186000       0.06153400      -0.29130300 
Cs      18.22689230       5.11007118      20.83718513       55      -0.13886700       0.24620400       0.18707300 
Cs      18.45242569      16.76233477       2.79118785       55       0.09009900       0.16970000      -0.01468600 
Cs      18.32561068      16.37740814      20.82898225       55      -0.08073500      -0.26113800       0.53543100 
Cs       0.83714285       4.21174724      14.87224122       55       0.62662200       0.56662400       0.32989600 
Cs       0.99291805       4.43275138      33.22869904       55      -0.12610300      -0.30593400       0.16674500 
Cs       1.17759092      14.45996241      14.70270555       55      -0.21860000       0.27646900       0.29838200 
Cs       0.76690821      14.70243954      33.32220426       55      -0.04109500      -0.00123200      -0.09257200 
Cs       5.59175084       4.59267864      14.83318625       55       0.48238600      -0.30950400       0.22527600 
Cs       6.29277302       3.48390789      33.79505670       55      -0.23878800       0.54192700       0.11166100 
Cs       5.77799103      14.33315137      14.87934131       55      -0.02436900       0.47159700       0.60216500 
Cs       5.88975817      14.75252035      33.45599132       55       0.07107400       0.10312900      -0.27933400 
Cs      11.20161768       3.91142218      14.54720629       55      -0.03166000       0.34134200       0.53331100 
Cs      10.76938357       3.46158027      33.47149777       55      -0.03414400       0.19667300       0.04731700 
Cs      10.93054960      14.64257662      15.19451870       55       0.09721900      -0.00525200      -0.30158100 
Cs      11.42194089      14.10465307      33.40415261       55      -0.42108200       0.28074200      -0.20830500 
Cs      15.95336400       4.37609953      15.15589749       55      -0.89068800       0.43004100      -0.63771900 
Cs      15.89797474       4.53588982      33.84958735       55      -0.01071900      -0.40868400      -0.34436600 
Cs      15.97296891      16.18460783      15.07971121       55      -0.40653400      -0.62877200       0.34978600 
Cs      15.64618302      14.30717792      32.75993216       55      -0.25487200       0.64045700       0.25033600 
Pb       1.07361274       1.80762608       1.14466726       82       0.16134700      -0.48162700      -0.14747700 
Pb       1.13410397       1.80749605      18.81622178       82       0.51042300       0.39819700       0.83359300 
Pb       0.99480201      12.74346129       1.74382649       82       0.07625200      -0.37555200      -0.57097300 
Pb       0.92930706      11.78897684      19.25276677       82       0.16492200       0.18349700       0.47556500 
Pb       6.01794496       2.22565405       0.96954621       82      -0.44405800      -0.12888600       0.57326300 
Pb       6.02152627       1.52742803      18.99361391       82      -0.14032300      -0.31348800       0.37975500 
Pb       5.71313234      12.98622429       0.89372322       82       0.42183600      -0.14239400       0.34691200 
Pb       5.91845334      11.79848797      18.95457084       82      -0.62353600       0.58652800       0.62810200 
Pb      10.72375458       1.06792810       1.39638056       82       0.41493600       0.37018400      -0.36611900 
Pb      10.73042091       1.76082284      19.53636547       82      -0.02922800       0.26069900      -0.09834800 
Pb      11.37230080      12.25705883       0.91968278       82      -0.67897300       0.29189200      -0.51832300 
Pb      11.03316197      12.56143073      19.26039195       82       0.02852300      -0.43198700      -0.31687300 
Pb      15.82810142       1.89849098       0.99953971       82       0.21103200      -1.01725700      -1.79989500 
Pb      15.61154514       1.03723581      19.24673373       82      -0.68983700       0.65171400       0.26772900 
Pb      16.12497123      11.77557968       0.74418554       82       0.14637900       0.67431300       0.42417700 
Pb      15.82890245      12.17610805      19.34580944       82       0.12169300      -0.37620400      -0.32612700 
Pb       3.58567753       8.35964229      17.06596818       82       0.08599300       0.19232100      -0.16635800 
Pb       2.77639607       8.45311476      35.56671579       82       0.26744200      -0.44307100      -0.02841300 
Pb       3.52226010      19.35750926      17.01631816       82       0.31870200      -0.80898600       0.65728900 
Pb       3.66910684      19.05518609      35.06531211       82      -0.01572100       0.12463500       0.01286300 
Pb       8.60076451       9.00841283      17.02020023       82       0.28161400      -0.29828000       0.12058900 
Pb       7.76136448       9.07880727      35.31677825       82       0.42756100      -0.72616200      -0.79504500 
Pb       8.18766283      18.69597384      16.93356283       82      -0.65685400       0.09526300       0.20560400 
Pb       8.30811426      18.23942888      35.92417808       82       0.26678400       0.14300400      -1.05433800 
Pb      13.10229338       8.96755628      16.76017586       82       1.05096000       0.30877500       1.57944800 
Pb      13.14062474       8.54634503      34.68382882       82      -0.99587300       0.45255800       0.45555900 
Pb      12.79965753      19.46984318      17.22068230       82       0.37664700      -0.78479500      -0.43870700 
Pb      13.59364993      19.14616811      35.06913463       82       0.45980400      -0.31157800      -1.02921000 
Pb      18.03927140       8.78289929      16.99402727       82      -0.48999700       0.85752000       1.44569000 
Pb      17.92515774       8.73696558      34.99108126       82       0.53412900      -0.18327500       0.39125200 
Pb      18.49668488      20.11463438      16.79934995       82      -0.46817000      -1.48698200       0.02792800 
Pb      18.72206839      18.90950069      34.86251629       82      -0.82778800       0.72897800       0.53096900 
Pb       1.17729016       6.96769171       8.44391928       82      -0.22069700      -0.33326800      -0.40309400 
Pb       0.97077506       6.98646681      26.35970784       82      -0.43211100      -0.61058500      -0.60798500 
Pb       1.10615028      17.21922019       7.80378935       82       0.32524500      -0.02818100      -0.62974900 
Pb       0.94534059      17.41618645      26.16158916       82      -0.00192100      -0.00204500      -0.11023000 
Pb       6.25108764       6.77947029       7.76813205       82      -0.37676600       0.23865300       0.26903500 
Pb       5.46137635       6.63121107      26.24838935       82       0.92093500      -0.24817300       0.21505800 
Pb       6.18994427      16.88037914       8.13484938       82       0.22454500       0.92530900      -0.57303200 
Pb       5.58564533      17.27869004      26.55509387       82      -0.34079700      -0.03528600      -0.36321600 
Pb      10.69509912       6.64168899       7.90216329       82       0.11049400       1.02679100      -0.16633200 
Pb      10.81331322       6.63480628      26.24159796       82       0.22620200       0.33225800      -0.25008200 
Pb      11.09723948      17.71647975       7.76820948       82      -0.04254700      -0.15402900       0.21409500 
Pb      10.72668773      17.25993182      26.12094404       82       0.21307800       0.19219800       0.54807900 
Pb      15.20206050       7.24875133       7.79139372       82       0.88765900      -0.52978500      -0.03897100 
Pb      15.48564233       6.79637730      26.16689463       82       0.14430800      -0.34805500      -0.57781200 
Pb      15.76706425      17.79656796       7.09079935       82       0.27537200      -0.45905700       0.34061500 
Pb      15.67347366      17.22383778      25.79594484       82       0.22615900      -0.00019400      -0.04485900 
Pb       3.88113586       3.25483190       9.78559151       82      -0.15858400      -0.06195300       0.35900400 
Pb       3.90552909       3.49561863      28.89417966       82      -0.80577700      -0.52799200      -0.46246600 
Pb       3.62599113      13.79243861       9.93824994       82      -0.88702200       0.31463900      -0.07040000 
Pb       3.62740658      13.51245596      28.22281151       82       0.55295500       0.56678200       0.30521800 
Pb       8.55835454       3.29835061      10.47936669       82      -0.87074500       0.42647500       0.06811300 
Pb       8.41586136       3.04822548      28.35936396       82       0.46693200       0.36138400      -0.42903300 
Pb       8.84745822      14.02409338      10.22752634       82       0.15329700       0.02545400       0.24442200 
Pb       8.59872769      14.42538011      28.58404470       82      -0.18957300      -0.25597800       0.16266500 
Pb      12.75007005       3.74527923       9.98645771       82       1.71718100      -0.73900600       1.24220000 
Pb      13.77756544       3.04579459      28.90550229       82       0.37958300      -0.17026500      -0.48548800 
Pb      13.56506196      13.93022586       9.66618529       82       0.20382400      -0.62350800       1.06683200 
Pb      13.29398395      13.64463500      28.07065335       82       0.02778400       0.34777300      -0.06684800 
Pb      17.99099117       3.35046726      10.36146427       82      -0.65272500       0.48397600      -1.30646600 
Pb      18.27870421       3.42480134      28.11840452       82       0.34935400      -0.16614400      -0.59434800 
Pb      17.98561622      14.03793524       9.89057024       82      -0.26286200       0.28229900      -0.40248500 
Pb      18.48872420      13.76177213      28.04394537       82      -0.72648000       0.05511800      -0.13529200 
I       3.38769584       3.80735267      18.20628188       53       0.28593400       0.03589400      -0.27766800 
I       3.46512585       3.28840870      36.16738577       53      -0.00088200      -0.11319800       0.32243300 
I       3.15890076      13.66187454      18.03122436       53       0.01859200      -0.02486600       0.05085100 
I       2.86625348      14.06141825      36.72296971       53      -0.14648200      -0.04684800      -0.06412500 
I       8.34901845       3.25306606      17.99850518       53       0.24138400       0.17201200      -0.01041900 
I       8.63777968       3.01737239      36.96987286       53      -0.33727200       0.14179600      -0.10600500 
I       7.59511036      14.14524360      18.09611482       53       0.48486500      -0.22123600       0.03829800 
I       8.23259699      13.59435170      36.07823211       53       0.28322400       0.19004100       0.24585700 
I      12.70419291       3.81645981      18.08375591       53       0.08214700      -0.72315900       0.24380400 
I      12.84454405       2.93388352      36.91407167       53      -0.01321300       0.11762100      -0.00000200 
I      13.68220504      14.23906944      18.32897163       53      -0.41847600       0.18935600      -0.35500900 
I      13.43919786      13.38775817      36.39230870       53       0.23113800       0.06202800       0.04620300 
I      17.92827749       3.25486764      17.47661913       53       0.67221900      -0.63305300       0.92735000 
I      18.25630115       3.33177356      36.85256202       53      -0.54153500      -0.19856600      -0.04628300 
I      18.44307834      13.60924968      18.10501152       53      -0.26390500       0.40102900      -0.16688400 
I      18.13423178      13.70554015      36.56363999       53      -0.20416900      -0.38796500      -0.21462700 
I       0.61211569       6.94298184      -0.07208881       53       0.53810000       0.58911600      -0.20251600 
I       0.33575405       6.69303438      18.04662659       53       0.76899000       0.01459000       0.05118200 
I       0.88651395      17.38788038      -0.08758335       53       0.61303800       0.11170000      -0.24999700 
I       0.85529260      17.96998371      18.72289126       53       0.11584400       0.39119100      -0.74782000 
I       5.76947548       7.25624946      -0.24040060       53       0.37221800       0.17036000       0.09338600 
I       6.64664903       7.10484171      18.40407598       53      -0.76262200      -0.31499300       0.00477800 
I       6.01202904      17.15352573       0.34961973       53       0.18415900       0.31630400      -0.33999900 
I       5.78320120      17.41319475      18.82943333       53      -0.30578300       0.22046100      -0.61896900 
I      10.80915520       7.41061517      -0.41373000       53       0.27293800       0.20678300      -0.03990600 
I      11.06226410       7.32307549      18.32407115       53      -0.59285600      -0.23599500       0.05069900 
I      11.77052335      17.65987257      -0.69837193       53      -0.84780500      -0.61323400       0.32580300 
I      10.35683477      16.86695517      17.93920308       53       0.69883500       0.19272100       0.46563700 
I      15.50325310       7.44215316      -0.28963373       53       0.52071200       0.03403600       0.18866100 
I      15.63147959       6.84247380      18.19198542       53       0.05237400       0.21267200      -0.16001000 
I      16.54320368      17.60075808      -0.52412933       53      -0.52040100       0.31799800      -0.07788900 
I      16.05489740      18.01274010      18.59502309       53      -0.28335100       0.32608600      -0.47519400 
I       3.41550958       8.67722376       9.31687823       53       0.23191800       0.22528700      -0.19492500 
I       3.40974454       8.48287400      27.59256989       53      -0.00625800       0.43347300       0.18173900 
I       3.68455771      18.99179149       8.40332875       53      -0.03949400       0.17510400       0.41678200 
I       3.20181497      19.13021400      27.88462458       53       0.14045600       0.03909700      -0.22042400 
I       8.29188023       8.80542047       8.90755043       53       0.61631300       0.23864100      -0.08940100 
I       8.76771742       8.42730012      27.64818645       53      -0.72869200      -0.18469500      -0.61904600 
I       8.22721510      19.65385100       9.11082171       53       0.56437300      -0.57022900      -0.44877000 
I       8.17935871      18.68200294      27.17511167       53       0.00465600       1.25581700       0.91909600 
I      13.05559337       9.07056668       8.43383244       53      -0.94000200       0.31983300       0.53850100 
I      12.92695793       8.73766834      27.20007962       53       0.52415500      -0.04456000      -0.09700900 
I      13.20912430      19.77838303       8.83362629       53       0.02528100      -0.28967400      -0.46936400 
I      13.47880869      19.20027691      26.60841951       53      -0.12859500       0.03880600       0.49094900 
I      18.87457297       9.02246809       9.00482854       53      -0.61352200      -0.42796300       0.13709700 
I      18.27194855       8.62873905      26.76204672       53      -0.16328600       0.28702500       0.41998300 
I      18.76719512      19.01315231       8.73182091       53      -0.53034700       0.28151300       0.12847100 
I      17.73551193      19.30321088      26.75691694       53       0.31015200      -0.09683800       0.23848500 
I       1.40363153       1.30432652       8.96478592       53       0.32078400       0.24103000       0.20793000 
I       0.98883547       1.73061792      27.41931990       53       0.32149000      -0.22161400       0.00865500 
I       0.60273459      12.56559570       8.76936912       53       0.58395700       0.15546600       0.31299600 
I       1.24833079      11.96415447      27.29335853       53      -0.21801600      -0.44618700      -0.22687700 
I       6.34365188       1.46204823       8.71847040       53      -0.12059500       0.46464600       0.37768700 
I       6.09850961       1.25301985      27.61290734       53      -0.38141400      -0.15894500      -0.08522400 
I       5.91817740      12.25045702       9.11975414       53       1.43085900      -0.90279700      -0.34302500 
I       6.52641300      12.04370965      27.92923714       53      -0.63000200      -0.18727100      -0.32212100 
I      10.74738053       1.78943563       9.13305602       53       0.00015500      -0.82280700      -0.61351000 
I      10.83234043       1.04055011      27.97895665       53       0.14952800       0.07768500      -0.45143400 
I      11.08816311      12.45362408       8.43137773       53      -0.49326400      -0.15133800       0.04112200 
I      10.68153320      12.23259810      26.93093124       53       0.13263000       0.15908500       0.33096200 
I      15.54872029       1.44218524       9.28372031       53       0.29317100       0.23709900      -0.16249900 
I      15.78860474       1.56830046      26.83180292       53       0.21732100       0.04353700       0.27902200 
I      16.10261879      11.62971264       8.48454157       53      -0.20939600       0.65597200       0.42073200 
I      15.56674696      11.77030002      27.05749115       53       0.15223600       0.08152100      -0.24740800 
I       1.48169979       0.03260107      16.15517714       53       0.22178200       0.58967400      -0.68033000 
I       1.55019240      -0.13930494      34.47620993       53       0.04145700      -0.17896600       0.09045200 
I       0.79359336      10.89680605      15.83305550       53       0.23050300      -0.39440800       0.40178400 
I       1.11390747      10.64491110      34.43576432       53      -0.76421400       0.29925300       0.01397900 
I       6.12871156      -0.26123435      16.41825079       53      -0.09539000      -0.08235300      -0.70389300 
I       6.37619240      -0.44628739      34.74854259       53      -0.23741900      -0.16603900       0.41380100 
I       5.90364568      10.47838402      16.04373458       53      -0.45951900      -0.10912500      -0.27234800 
I       5.29038255      11.15109218      34.68006189       53      -0.18109300      -0.40512000       0.07822600 
I      10.57427347      -0.35026294      16.50552942       53      -0.20568800       0.49334600      -0.14576800 
I      10.51569399      -0.19836484      34.62339813       53       0.11440700      -0.16693400       0.52451500 
I      10.99132969      10.87103707      16.04028727       53      -0.31393000       0.74920700      -0.25744200 
I      10.42317144      10.41650313      33.47288046       53       0.13314500       0.04085100       1.47728800 
I      15.80653314       0.10101626      16.33002125       53      -0.50929900      -0.14487300      -0.58998700 
I      15.81501990      -0.13863989      34.35779136       53       0.32219100       0.22732900       0.09499000 
I      15.67989184      10.95028355      15.95210339       53       0.01191300       0.04858600       0.15831200 
I      16.13980172      10.99982538      34.07224020       53      -0.37897700      -0.36464200       0.06725400 
I       3.68213774      10.91872869       2.21683179       53      -0.02853900      -0.39228400      -0.14439400 
I       3.34445903       9.54894593      19.92562383       53       0.07328900      -0.03853300      -0.05709000 
I       3.90239643      21.00137463       1.33662981       53       0.01744300       0.27381800       0.16158000 
I       3.24607913      21.07753610      19.79455551       53      -0.08081900       0.06338000      -0.22912700 
I       8.41661474      10.56038596       1.43798653       53       0.01062800       0.14269300       0.82219600 
I       8.47531929      10.46597747      19.98111731       53       0.49109600      -0.06179400       0.29131800 
I       9.04618437      19.96829089       2.20907162       53      -0.23291600       0.24254700      -0.36908000 
I       8.01260928      20.26360429      19.96681786       53       0.21671800       0.78448100      -0.15806900 
I      13.23222218      10.11217987       1.74728472       53       0.43336500      -0.18899100       0.17668000 
I      13.17029267      10.34401529      20.08448008       53      -0.09371100       0.16969600      -0.29532900 
I      13.51274580      20.69935024       1.19811697       53       0.11797100       0.43368200       0.83594100 
I      12.59349679      20.50406544      20.16420003       53       0.23557000       0.31863300      -0.02261300 
I      18.61866691      10.13160114       2.11443879       53      -0.07881900       0.00760600      -0.29314700 
I      17.88750830       9.88856518      20.33715819       53       0.13190700       0.05610500      -0.43082900 
I      18.45807658      20.93939846       1.32811923       53       0.02472000       0.18252800      -0.06118400 
I      18.24986313      21.37928555      19.62984985       53       0.32820900      -0.37928500       0.34252800 
I       1.09982839       5.03869605      10.91222118       53       0.27049100      -0.00694300       0.39952000 
I       0.80468174       5.61519613      29.44399658       53       0.24414700       0.06789900      -0.27750300 
I       1.66948348      16.04963164      10.70894395       53      -0.64535500       0.40655000       0.29521900 
I       0.87351183      15.92399981      28.93543127       53       0.29265900      -0.12183900       0.72637100 
I       6.27698169       5.56598881      10.89528241       53      -0.15745900      -0.19524300      -0.13790600 
I       6.28070296       5.17616765      29.36023078       53       0.04184100       0.84691900       0.10209500 
I       5.86163871      15.62948942      10.90029505       53       0.31723800       0.29735600       0.77009500 
I       5.85520068      15.91110788      29.67043522       53       0.03195100      -0.06605700      -0.38585400 
I      10.91806464       5.73631657      11.22814203       53      -0.53764300       0.19858600      -0.05444500 
I      11.49666805       4.94784405      28.88894963       53      -0.68310900       0.55079200       0.31435000 
I      10.77616404      16.43571763      10.88789942       53      -0.05105600      -0.41906000      -0.27495200 
I      11.17654750      16.01959943      29.40374850       53       0.05227700       0.01157700      -0.21007400 
I      15.63650613       5.32331614      11.29375708       53       0.08825600       0.12884100      -0.28150500 
I      16.17620644       5.16712702      29.52741199       53      -0.90598300       0.58731000      -0.02806000 
I      15.21733468      16.51606094      10.35558210       53       0.45824100      -0.05824200       0.18298500 
I      15.90777174      15.70809368      29.05171773       53      -0.00914200       0.01926600      -0.38986900 
I       3.91454292       4.99523590       6.97580525       53      -0.75024100      -0.31177600       0.54760700 
I       3.87312655       4.10395051      25.55720089       53      -0.13779000       0.46806900      -0.09085900 
I       4.02480826      15.24362577       6.96219269       53      -0.65578800      -0.16108500       0.18525400 
I       3.34164599      15.42247702      24.95380523       53      -0.13514900      -0.06955400       0.65015000 
I       8.52561252       5.00008278       6.85238197       53      -0.36219800      -0.84140500      -0.09153700 
I       8.30052283       5.14812462      25.38541301       53      -0.40246200      -0.87393800      -0.03225000 
I       8.79396583      15.51582740       6.83170008       53      -0.01081500      -0.22765500       0.34278700 
I       8.22744240      15.65918117      25.29037520       53      -0.22390600      -0.99904900      -0.32033800 
I      13.18290071       4.68222835       7.19875390       53       0.09467900       0.43503800      -0.82574300 
I      13.27951180       4.75465564      24.99900442       53       0.30825400       0.02847500       0.61854500 
I      13.38967092      15.30753950       7.10287735       53      -0.10696500       0.97327000      -1.36270200 
I      12.92770437      15.39510796      25.24682175       53       0.44118600      -0.51928100      -0.46563100 
I      17.30537618       5.09352746       7.11414538       53       0.54397800      -0.45509300       0.05934900 
I      18.12305705       4.84868099      24.95787192       53       0.02348400       0.02466800       0.47971000 
I      18.00589511      15.40600973       6.51898733       53      -0.32252200       0.40171600       0.29401900 
I      18.44850987      15.14873785      25.16215467       53      -0.17505800       0.04081200      -0.17818200 
I       1.19486520       2.76465755       3.97882789       53       0.18375800       0.36659800      -0.03112800 
I       1.42557799       2.85818362      21.93008415       53      -0.39343200       0.06632500      -0.35791900 