320
Lattice="20.1905118861 0.134275910518 -0.252176042543 0.164468277016 21.8329679071 0.0949059321951 -0.524186064743 0.183580615633 37.2127368278" Properties=species:S:1:pos:R:3:Z:I:1:forces:R:3 energy=-101597.110231 stress="-1413.540592 -217.778661 1793.882119 -217.778661 59.1663 -391.684453 1793.882119 -391.684453 -160.132881" pbc="T T T"
Cs       3.97236432       1.21477120       6.29885395       55       0.06006000      -0.04185800       0.11381900 
Cs       3.80794977       0.90074991      24.57793231       55      -0.23076000       0.35427000      -0.14981100 
Cs       3.95411248      11.86661459       6.02097046       55      -0.71640800       0.40326900       0.13238400 
Cs       3.58812594      12.08884455      23.96272826       55      -0.02231100      -0.33097400       0.93152200 
Cs       8.43948453       1.47594647       6.44126353       55      -0.31607700      -0.09627700      -0.77789000 
Cs       8.39019604       0.96742772      24.39026307       55       0.33813800       0.43780600       0.38301100 
Cs       8.13836764      12.18109602       6.80685783       55       0.84014900      -0.28324600      -0.43242200 
Cs       8.56868868      11.36581091      24.80538201       55       0.16151200       0.29500100       0.01562600 
Cs      14.09357755       0.66798520       6.47364109       55      -0.03641600      -0.39196100      -0.35142300 
Cs      13.58530813       1.14992385      23.98731473       55      -0.05522100       0.11772400       0.31938900 
Cs      13.96454874      11.90999211       6.11215670       55       0.11969400      -0.10207000       0.15705200 
Cs      13.52616803      11.89629005      24.89527700       55       0.12517400       0.04179400      -0.29924300 
Cs      19.55500560       0.47916458       5.34950273       55      -0.19212600      -0.31542700       0.55679400 
Cs      18.94610475       1.09556360      25.10735230       55       0.08212300       0.18397400      -0.16554400 
Cs      18.85567766      11.94127808       5.63663377       55       0.13446300      -0.08377000       0.11165200 
Cs      18.45785276      12.26041573      24.64556893       55       0.20009200      -0.07104100       0.13946400 
Cs       1.06141032      10.31440323      12.98549064       55      -0.33444900       0.24158000      -0.45903000 
Cs       0.51749974       9.99870149      31.23326174       55       0.30828700       0.04609600      -0.09502900 
Cs       0.90623114      21.46193799      13.05654391       55      -0.09132600      -0.20503900      -0.45262800 
Cs       1.78789912      21.29728930      31.84358053       55      -0.17501400      -0.07915600      -0.07333200 
Cs       5.10595800      10.61687319      12.69873360       55       0.30481200       0.23788800      -0.11670500 
Cs       6.21961027      10.31949323      30.50038256       55      -0.10839100       0.19385900       0.47541800 
Cs       6.47358535      20.92391203      12.64131145       55      -0.04700300       0.16195600       0.00548300 
Cs       6.66538375      22.00172549      31.10968172       55      -0.21882800      -0.36554200      -0.02017100 
Cs      10.99542054      10.48025600      12.51777603       55      -0.25306400       0.00496600      -0.01700300 
Cs      11.48178937      10.45157178      30.94514452       55      -0.25512100       0.01672900       0.06186900 
Cs      11.57665273      21.12941958      12.16314520       55      -0.18369200      -0.12327900       0.08910300 
Cs      11.56364292      21.07843443      30.76717082       55      -0.59717000      -0.47754300       0.41616200 
Cs      16.50147073      10.79933384      12.00143984       55      -0.31193100      -0.46493100      -0.06034800 
Cs      16.06934660      10.56381838      31.63526749       55       0.19204800       0.05777200      -0.79906600 
Cs      16.21607284      21.21375023      12.16970180       55       0.35018200      -0.56166000      -0.05195600 
Cs      16.11480492      21.14235540      31.22887513       55       0.31948200      -0.31769300       0.09547600 
Cs       4.24220132       6.05222299       3.29467345       55      -0.31579600      -0.02377300      -0.14110700 
Cs       3.02662638       6.64605046      21.87824277       55       0.16917300      -0.14983800      -0.00306300 
Cs       4.19472909      16.39862472       2.94442315       55      -0.39242600       0.26806100       0.52200700 
Cs       3.18202549      18.07567795      21.19149288       55       0.27654600      -0.40257400       0.20444500 
Cs       8.67423781       6.27061874       3.03348602       55       0.23223100       0.09733400       0.22304700 
Cs       8.54706276       6.95777405      21.49692136       55      -0.08996000      -0.25903200      -0.10734600 
Cs       9.34776809      17.46167697       2.98477221       55      -0.18422500      -0.35640200       0.10649100 
Cs       8.37788862      17.23771283      21.50908385       55       0.10198800       0.12905700       0.30707800 
Cs      14.51670955       6.09783638       2.67219015       55       0.02173900       0.08081300       0.21807400 
Cs      13.69631720       5.94323797      21.78107056       55       0.28162300       0.29158300      -0.10424200 
Cs      13.90190077      17.16001176       2.79362450       55       0.05104200      -0.11638600      -0.02910100 
Cs      13.71650997      16.99479143      21.64081679       55      -0.16572600       0.09334000       0.20089200 
Cs      19.34684966       5.84903949       2.73380937       55      -0.10521800      -0.09420500      -0.06006900 
Cs      18.75844463       7.46322785      21.46501814       55      -0.38686500      -0.32584100       0.00199200 
Cs      19.14262828      17.03415229       3.02348035       55       0.10655300      -0.06863600      -0.04494900 
Cs      18.81190283      17.90263613      22.00091060       55      -0.17132500      -0.26725600      -0.06154700 
Cs       0.78831581       4.59612064      15.29630282       55       0.23712700       0.45955700       0.23863400 
Cs       1.47242847       4.89339114      34.21975291       55      -0.34298000      -0.13416900      -0.26386100 
Cs       0.85074891      16.12709308      15.51115624       55      -0.13091300      -0.32725500      -0.41640800 
Cs       1.00862613      14.94590657      34.38231066       55       0.25097800       0.28701400      -0.35491900 
Cs       5.99662521       4.51001325      15.07416103       55       0.05171900       0.28914000      -0.05780200 
Cs       6.37976897       4.94508881      33.88293506       55       0.03030700       0.28003800       0.15168100 
Cs       5.83426307      16.21873237      15.23338627       55       0.35256900       0.21821800       0.26899100 
Cs       6.70564869      15.30993799      33.67406965       55      -0.34054000       0.17406800       0.10249600 
Cs      11.14968550       4.54719094      15.59752410       55      -0.13138500       0.14420900      -0.39859000 
Cs      11.72735206       4.86174028      33.56462042       55      -0.12123500       0.03982400       0.20223200 
Cs      11.46115266      15.56688578      15.36762163       55      -0.39941800       0.10202100      -0.01089100 
Cs      10.92341353      15.70319283      34.06753632       55      -0.46419600      -0.28263400      -0.57999500 
Cs      15.87447412       4.49334355      14.88756818       55      -0.01298400       0.08168000       0.68169500 
Cs      16.23662036       4.61364476      33.69393099       55      -0.03367800      -0.34878800       0.15268600 
Cs      16.06846583      15.73163278      15.12516545       55      -0.14508700      -0.51611800       0.16300200 
Cs      16.46063517      15.82066322      33.83786493       55      -0.26151600       0.26588700      -0.34906200 
Pb       1.23971647       1.46867432       1.45902136       82       0.73947800       0.18362300      -0.41659500 
Pb       0.88465387       1.77259060      19.86538929       82      -0.02947400       0.55362500      -0.01086700 
Pb       1.44586864      12.29469672       0.86718854       82      -0.26796700       0.39503900       0.74975100 
Pb       1.14521798      13.14912072      19.65827729       82      -0.76030900       0.93192000       0.01370100 
Pb       6.66369925       1.48214934       0.69209937       82      -0.43716000       0.63101800       0.94346400 
Pb       6.20576226       2.04419521      19.84351708       82       0.23177600       0.53935600      -0.27729100 
Pb       6.41131340      11.79346735       0.93904554       82       0.39777400       0.51589900       0.31154900 
Pb       5.95205577      13.08387201      19.84316842       82       0.32336400       0.29108300      -0.04420700 
Pb      11.21591228       1.97449604       0.90008807       82       0.39994800      -0.08688300       0.43263800 
Pb      11.46352840       1.89290398      19.04298709       82       0.13526100       0.32944500       1.02900000 
Pb      11.76746496      12.50006643       1.29881400       82      -0.99225700      -0.35020900       0.30241600 
Pb      10.65316504      12.70307358      19.87754671       82       0.41052300       0.04195400       0.24021700 
Pb      16.65308629       1.46545734       0.75338007       82      -0.08176400       0.13888300       0.15561000 
Pb      16.47358721       2.13200737      19.80580424       82      -0.55573000       0.75262900      -0.17569700 
Pb      16.32872486      12.31845107       0.77027884       82       0.44151800       0.29408400       0.27267900 
Pb      15.95903586      12.67242310      19.55738742       82      -0.63519000       0.80744300      -0.36504200 
Pb       3.18728475       9.82088082      17.90161347       82       0.55597800      -0.60107100      -1.58526700 
Pb       3.94797042       9.42220050      35.54947180       82      -0.06146700       0.19513800      -0.01222200 
Pb       3.72445934      20.92488097      17.56573416       82       0.31703300      -0.50000700      -0.34711900 
Pb       3.88349301      19.86845322      36.39008125       82      -0.01560000       0.09489700      -0.47013100 
Pb       8.23449388       9.43802998      17.10069428       82      -0.11459500      -0.00398100      -0.27780900 
Pb       8.84387311       9.10937114      36.04494020       82       0.43479300       0.22825900      -0.30193000 
Pb       8.72583007      20.81382325      17.83407010       82      -0.27463900      -0.88174400      -0.47027600 
Pb       8.46571091      20.70625110      35.73918130       82      -0.28210400      -0.58322900       0.30716900 
Pb      13.52355512       9.01308578      16.97141817       82      -0.28496500       1.01381900       1.41273400 
Pb      13.83738688       9.07271339      35.83315072       82      -0.56292400       0.37783500       0.04081000 
Pb      13.74298974      20.24587959      17.37018160       82       0.14833300      -0.13958700      -0.12447300 
Pb      13.22494269      20.07900416      36.18779979       82       1.18398800      -0.80602900       0.17220200 
Pb      18.48988369       9.46450671      16.75667016       82      -0.51906000      -0.19754000       0.38310300 
Pb      18.71471542       8.78531073      35.86673743       82       0.41460700       0.23570900       0.12659300 
Pb      18.59036308      20.41112323      17.32229383       82      -0.29012200      -0.40282300      -0.20293300 
Pb      19.11436773      19.97811631      36.09720850       82      -0.09459500      -0.06504800      -0.51898300 
Pb       0.93027132       7.39935654       7.96608801       82      -0.15682000      -0.23179000       0.49373000 
Pb       1.14227770       7.07684482      26.98536331       82      -0.71627600       0.22066700      -0.11356400 
Pb       1.18349840      18.22665904       8.33677028       82      -0.17069700       0.29023100      -0.71118000 
Pb       1.43036754      18.45066777      26.89282602       82      -0.95057500       0.66143300       0.31677000 
Pb       6.12995853       7.72695928       8.10262107       82      -0.13010200      -0.58045700       0.64323700 
Pb       5.86523587       7.45051299      26.74739305       82       0.15913800      -0.00284700       0.08135600 
Pb       6.17348301      18.76769015       8.00023724       82       0.10997600      -0.16119900      -0.09250800 
Pb       6.13820369      18.66867938      26.86077786       82       0.16271800      -0.14781100      -0.25628400 
Pb      11.52002418       7.44700005       8.20700260       82      -0.89471500      -0.29235900      -1.17409300 
Pb      11.34064571       7.34883153      26.62646649       82      -0.11915200      -0.34757700      -0.26864700 
Pb      11.34554719      17.90064655       7.63918563       82       0.03810500      -0.58292700       0.88227300 
Pb      11.11908366      18.63313755      27.06474686       82       0.49217100      -0.28869500      -0.32399400 
Pb      16.06669416       6.84848091       7.64489896       82       0.59696400      -0.13605700       0.61086300 
Pb      16.18368717       7.34394728      26.93517682       82       0.54193200      -0.30557700       0.08085200 
Pb      16.28685549      18.02849864       7.59726254       82       0.03996000      -0.31877700       0.75801100 
Pb      16.70551676      19.18382770      27.00749195       82      -0.57424700      -1.01569300       0.31723200 
Pb       3.12100223       3.98786542      10.65648034       82       0.42570800      -0.29863700      -0.15345300 
Pb       3.47858144       4.23367136      29.14116051       82       0.11063800      -0.40789900       0.17492700 
Pb       3.01732207      15.20233644      10.58179353       82      -0.05910300      -0.08894100      -0.39624700 
Pb       3.45388348      14.90340880      29.21578346       82      -0.26263700      -0.02296100       0.42304700 
Pb       8.78113089       3.64824513      10.30185154       82      -0.26044600      -0.23432600      -0.57969100 
Pb       8.30707759       4.15053263      29.45210570       82       0.31023200      -0.22340000      -0.47196100 
Pb       8.15301939      15.56684929      10.21526373       82      -0.63224600      -0.69599800       0.43202100 
Pb       8.47544192      14.71997617      28.72620576       82      -0.07432400       0.36113900      -0.07046300 
Pb      13.68035596       4.10191916       9.75641355       82       0.32296500      -0.68852400       0.98919500 
Pb      13.68071374       3.80586795      28.83369683       82      -0.12913300      -0.13166600      -0.35793700 
Pb      13.60068253      14.91597164      10.56432617       82       0.20298100      -0.08334600       0.11664600 
Pb      13.23187937      14.99212504      29.05527002       82       0.49258500       0.43361000       0.14563700 
Pb      18.55552262       3.99546393      10.12527043       82      -0.01242700       0.33423200      -0.53227600 
Pb      18.45102251       3.75188069      29.24140172       82       0.06418100      -0.02682800      -0.18075100 
Pb      18.73394229      14.96113401       9.93278079       82      -0.19740800       0.12602800       0.95161800 
Pb      18.13715325      14.94139733      29.14226628       82       0.51588100       0.63124100      -0.10166000 
I       3.14003145       3.55483316      18.46349920       53       0.01013600       0.01048000       0.10513800 
I       3.94906910       3.81437460      36.70418970       53       0.05742000       0.01720600       0.69594200 
I       3.45042528      15.15459158      18.18221832       53      -0.07284300      -0.60117900       0.52029100 
I       3.54552987      14.22438411      37.23419855       53       0.23922600      -0.19971600      -0.25005500 
I       8.30982023       4.14015296      18.34426322       53       0.25363400      -0.27445500       0.14299700 
I       8.46214223       4.11001837      37.09349477       53      -0.04421100      -0.32682500      -0.13931700 
I       8.44951858      14.87232756      18.62564343       53      -0.34558100      -0.20025700       0.14916400 
I       8.32617067      13.85101799      37.01830119       53       0.42995700       0.55270000       0.63326000 
I      13.60678405       4.09211417      18.36887300       53       0.04188200      -0.29031500       0.00297100 
I      13.90872292       3.75239151      37.07858052       53      -0.19896200      -0.18126600      -0.12857500 
I      12.91525024      14.48201706      18.80052888       53       0.44685700       0.52274700      -0.21830000 
I      12.74422233      14.67324383      36.80388056       53       1.18417300      -0.00476600       0.55362900 
I      18.78162837       3.79105303      17.89369164       53      -0.01299100      -0.14573300       0.61022600 
I      18.64695413       3.26347870      36.40381878       53       0.26500000       0.22920800       0.41004100 
I      18.44172023      15.18157811      18.52414441       53       0.36686100      -0.31754200       0.06879800 
I      18.38965768      14.66167325      36.52038813       53       0.31805800      -0.45453500       0.87867400 
I       1.81758675       6.88693566      -0.05644003       53      -0.36700500       0.14528300      -0.01753600 
I       0.95634972       7.86526705      18.64067322       53      -0.33215700      -0.57155300      -0.00240100 
I       2.01359337      17.83544953       0.17676861       53      -0.42382700      -0.12803000      -0.11666400 
I       1.06021333      18.44579365      18.22337213       53      -0.25203200       0.42161700       0.44455000 
I       6.66592397       7.34616997      -0.30487510       53      -0.38182200      -0.00515900       0.01332700 
I       5.61468554       7.35400363      17.88344981       53       0.04559700       0.41597000       0.47070800 
I       6.42158665      18.07691042       0.72490768       53       0.92040600      -0.20446800      -0.10486000 
I       5.65693702      18.63689778      18.54933090       53       0.54582700       0.05817400      -0.03156300 
I      11.88687425       6.79301489      -0.16208443       53       0.01248900       0.44787300      -0.34261600 
I      10.99908550       7.38308212      18.36792230       53      -0.13367900       0.18468900      -0.15565600 
I      11.37290874      17.95114115      -0.29623263       53      -0.22692900       0.31656300       0.34728500 
I      11.24400256      18.55871933      18.69170297       53       0.06472500       0.19612200       0.03008200 
I      16.70965707       6.87441032      -0.62304886       53      -0.19315000      -0.18242600       0.38160900 
I      15.95946864       7.51126665      18.13390486       53       0.33170200      -0.29965400       0.07117500 
I      17.05210514      18.08638905      -0.29708097       53      -0.16120200       0.21440400       0.24375800 
I      16.10432997      18.38652787      18.59882716       53      -0.19565000       0.14894900      -0.23446100 
I       3.30673560       9.17350698       9.68849314       53       0.15158600      -0.05579200      -0.38836900 
I       3.33970304       9.38107102      27.66053857       53       0.23981500       0.03300900       0.07883400 
I       3.44528359      20.26205874       9.38923407       53       0.23649800      -0.04830400      -0.20538000 
I       3.63195145      20.72003931      27.72365682       53       0.30432300      -0.36042300       0.23820800 
I       9.01355403       8.54684080       9.62190047       53      -0.02130400       0.69204800      -0.00170900 
I       8.54012508       9.14136659      27.87617546       53       0.40301400      -0.06389500      -0.15623100 
I       9.06626423      19.90471872       9.11232561       53      -0.91934200      -0.40185800      -0.12596100 
I       8.56418248      20.38896925      28.00512116       53      -0.18683000       0.18333100       0.00641100 
I      13.95725125       8.61894206       9.48896142       53       0.36971300       0.60173100       0.25690800 
I      14.00022943       9.13567759      28.40400723       53      -0.34280600       0.03397000      -0.29985600 
I      13.86266560      19.58187558       9.13416640       53      -0.19791100       0.15351400       0.01290200 
I      13.93212253      20.51712946      28.18425233       53      -0.09325900       0.12412300      -0.42290400 
I      18.44555750       9.14557785       8.78828648       53      -0.04608100      -0.13642600       0.05697200 
I      18.71031868       9.36052756      27.81092775       53      -0.21654100      -0.23775000      -0.07621700 
I      18.60695171      20.33442961       8.75457105       53       0.00266200      -0.20059600      -0.14973000 
I      19.12199259      20.56830111      28.31494334       53       0.37482500       0.20240800       0.19554100 
I       1.31360055       1.80402050       9.17091739       53      -0.36994500       0.47223900       0.35733000 
I       1.10589665       2.08240468      28.51343720       53       0.12571900      -0.05276500      -0.09572400 
I       0.65556426      12.71184476       9.46520301       53       0.57569400      -0.16016900      -0.14066400 
I       0.60292298      13.12205209      28.33187556       53       0.14005700       0.16357700      -0.15190300 
I       6.06397703       1.98694637       9.34097737       53      -0.09309600      -0.23574400       0.24342700 
I       5.91194388       2.14252488      27.68863088       53       0.13312200       0.36975400       0.39318900 
I       5.72369996      12.98057294       9.17763919       53      -0.28049000       0.30974600       0.65651900 
I       5.90761505      12.98618998      27.86100174       53      -0.00006900      -0.02129700      -0.31206300 
I      10.75288327       1.04830726       8.81088338       53       1.16736000       0.95799800       0.72969400 
I      10.86728364       1.91012708      28.13320129       53      -0.30829000       0.34488400      -0.28848900 
I      11.30892289      13.06267887       9.56299855       53      -0.20634500      -0.17494300      -0.30225600 
I      11.13707401      13.13456627      27.48144794       53      -0.13952300      -0.30866100      -0.00063000 
I      16.29956428       1.89476788       9.28554784       53      -0.09527200       0.24012300      -0.03596600 
I      16.17817757       2.00471070      27.80631310       53       0.06780600      -0.08355100      -0.03242900 
I      16.26422313      13.27582548       8.99898742       53      -0.54259400      -0.26799000       0.04459200 
I      16.05803548      13.13754507      28.02735419       53      -0.33105400      -0.45492200      -0.17536800 
I       0.75810824       0.25548728      16.60188221       53      -0.56021700       0.67595700       0.00257700 
I       1.45661521       0.09369171      35.79428244       53      -0.70675200       0.57352300      -0.38196100 
I       0.45458723      11.59367718      16.80846919       53       0.44135600       0.36407600      -0.31653100 
I       0.53399917      11.04568507      35.44149221       53       0.32148600      -0.25460700      -1.24551900 
I       6.19326733       0.88747760      16.45169878       53      -0.09823200      -0.24471000       0.16043400 
I       5.48945954       0.89447914      34.98088961       53       0.55916800      -0.88710000      -0.40808200 
I       6.01640649      11.78340390      16.67932889       53      -0.08911500      -0.09383500       0.28554500 
I       6.51709057      11.70472070      34.78994461       53      -0.62216000      -1.18892200       0.03105600 
I      10.72933973       0.58660295      16.23706530       53       0.42733900       0.04974200      -0.29812800 
I      11.05616812       0.21409732      35.25231887       53      -0.38017500       1.05120900      -0.73312600 
I      10.58062390      11.81842174      16.70298392       53      -0.06404400      -0.53533300      -0.20547400 
I      11.05984828      11.30571098      35.10512133       53       0.26944200      -0.31197800       0.16980200 
I      15.97612416       0.97457521      16.62612205       53       0.09659700      -0.54665000       0.08838600 
I      15.94478345       0.74427239      34.92230188       53      -0.22647800      -0.56592500       0.18804500 
I      15.81532692      11.42450506      16.33528044       53       0.28434700      -0.04488300      -0.09875300 
I      16.28371858      11.43457864      34.99542480       53      -0.13034900      -0.38584300       0.40714100 
I       3.59156590      10.01301268       1.52215481       53       0.24428000       0.09305500       0.40612400 
I       2.80283049      10.71166662      20.78283019       53       0.31832400       0.02607300       0.55479300 
I       4.39304152      21.85359245       2.44162178       53      -0.27184200      -0.09497000      -0.57251400 
I       3.97873646      22.05174981      20.78555459       53      -0.50999100      -0.49921200       0.18161500 
I       9.35324121       9.98515754       2.05848411       53      -0.28591900       0.23123300      -0.40118900 
I       8.07356894      11.06570047      20.97159203       53      -0.25218900      -0.60106600      -0.36860500 
I       9.43080039      21.17919863       2.15817902       53      -0.01314800       0.69734200      -0.46496300 
I       8.71341623      21.72506230      20.92600904       53       0.02902400       0.25991000      -0.14080300 
I      14.08389824      10.23175404       1.89055966       53       0.25927300       0.06658900      -0.06984900 
I      13.60339781      10.75586815      20.36351722       53      -0.16334700      -0.26748800       0.15620000 
I      14.32699904      21.64044786       2.08008672       53      -0.25649100      -0.12608200      -0.19650400 
I      14.19964561      21.71821583      20.41523212       53      -0.48748000       0.30039400      -0.11099400 
I      19.24292220      10.24052421       1.65407221       53      -0.47811800       0.26327700      -0.03510100 
I      18.37213964      11.08286377      20.12427801       53       0.88295400      -0.56512600       0.25529500 
I      19.59099035      21.20242493       1.83691598       53      -0.33545400      -0.09386000       0.31023600 
I      18.25699026      21.65329348      20.69924855       53       0.86971200      -0.47264700      -0.04224900 
I       0.83251632       5.92912542      11.50540994       53      -0.01391500       0.08775500      -0.22668300 
I       0.80431860       5.77148334      30.04345810       53       0.14396800       0.38250000       0.32029900 
I       0.47802739      17.42963793      11.32913188       53       0.32706400      -0.43647100       0.40216200 
I       1.72626672      17.28600299      30.55972030       53      -0.07568300      -0.22874300      -0.58630500 
I       6.33535055       5.70323860      10.75097984       53      -0.15451400       0.08830200       0.53573000 
I       5.91460037       6.61457799      30.16658303       53       0.09777200      -0.81079600      -0.50924800 
I       5.42555275      17.36203577      11.30541199       53       0.41348700      -0.25745600      -0.15810800 
I       6.52616886      16.85155177      30.24155059       53      -0.32064500      -0.01072700      -0.56269400 
I      11.15127980       5.63942912      11.08610406       53       0.37159300       0.03677400       0.28401400 
I      11.15462854       5.61021482      29.87704889       53      -0.14153800       0.58220500      -0.12221800 
I      10.64603884      16.90733401      11.22572842       53       0.74583700       0.16797800       0.34403100 
I      10.74066098      16.85004362      29.97921887       53       0.24101200       0.07268100       0.02919900 
I      15.88796030       5.77704870      11.64934692       53       0.04827000       0.02998000      -1.26119500 
I      15.92223115       5.79797426      30.28457743       53       0.06727600      -0.05791400      -0.50746400 
I      16.26682894      16.89325492      11.25941548       53      -0.15079900      -0.05252800      -0.12823500 
I      15.51107414      17.17736256      29.86910070       53       0.49538000      -0.15123500       0.33659400 
I       3.76594154       5.62808151       7.41757899       53      -0.13900200      -0.30687600      -0.04487600 
I       3.56657908       5.30212882      25.81136787       53      -0.00911800      -0.15250900      -0.01037100 
I       3.21051916      15.87722183       7.44655409       53       0.17028100       0.22132500      -0.21037800 
I       3.39015305      16.39718650      26.23937398       53       0.83226600      -0.56746800      -0.52216900 
I       8.95984448       5.26679172       6.96573237       53      -0.13973000       0.22015900       0.23578400 
I       8.53942472       5.24678950      26.11350438       53       0.16149300       0.18835600       0.19816600 
I       8.66628861      16.12533662       6.69389972       53      -0.17582600       0.19066200       0.28797800 
I       8.83985544      16.66846475      25.78170254       53      -0.20341100       0.05752100       0.20356700 
I      13.96816506       4.28306323       6.68731576       53      -0.09403900       0.86667100      -0.13359000 
I      13.81964789       5.08502129      25.65198351       53      -0.35633300       0.32518200       0.34004800 
I      13.82302602      15.98590584       6.50696124       53       0.12241000       0.10581900       0.46595400 
I      14.24528738      16.87867311      26.13938311       53      -0.52582000      -0.22263500      -0.11559300 
I      18.79925891       5.15651646       6.95574900       53       0.18153100       0.19752300       0.01419400 
I      18.80762670       5.14165390      25.84426943       53       0.00896900       0.28399500       0.36227600 
I      18.77188419      15.94869774       7.01688983       53       0.25131300       0.32522900      -0.65036700 
I      18.93531156      16.78711084      25.79935335       53      -0.06766500       0.01211200       0.17544800 
I       1.58086720       2.91063981       4.29213442       53      -0.16165700       0.54941600      -0.34554300 
I       0.54038346       3.52572832      22.49549519       53       0.24441300      -0.19484000      -0.28404500 
I       1.47158521      13.78632266       3.71723077       53      -0.16242300      -0.00577600       0.19370900 