320
Lattice="19.6226037714 -0.0636662850685 0.437352641581 -0.0656196722689 21.7963742662 -0.238768232308 0.775424030237 -0.361697218558 36.9631962988" Properties=species:S:1:pos:R:3:Z:I:1:forces:R:3 energy=-101592.333765 stress="-518.729389 -170.649895 -1754.225556 -170.649895 -1213.961853 1225.346091 -1754.225556 1225.346091 -619.41464" pbc="T T T"
Cs       3.74657176       1.10968920       5.55059254       55       0.19442800      -0.01737900       0.53385300 
Cs       4.07957051       1.35274851      24.34527376       55       0.06013700      -0.15218200       0.10923000 
Cs       3.38569094      11.56917862       6.09257983       55       0.11289700      -0.04829200       0.09801300 
Cs       4.33004214      10.85550632      24.77974809       55      -0.00147000      -0.04399700      -0.27182100 
Cs       9.01925067       0.19045923       6.22940057       55      -0.53964000       0.18130600       0.36225400 
Cs       8.69206229       0.66548577      25.72302005       55       0.12288500      -0.37080800      -0.24336900 
Cs       8.57724952      11.64095515       6.65730387       55      -0.08465500      -0.06685800      -0.65728700 
Cs       8.73903220      11.87426943      24.55504086       55       0.11773900      -0.01261200      -0.07431200 
Cs      13.79922897       0.39794539       6.25115963       55      -0.17025400       0.35393400      -0.23833500 
Cs      13.40881437       1.14598517      24.61230438       55       0.37644600      -0.34307300      -0.25744000 
Cs      13.84910207      11.01890885       6.10869876       55      -0.35558000       0.09284700      -0.01954600 
Cs      14.03423678      11.22047710      24.53736778       55      -0.01639400      -0.01864100       0.08515700 
Cs      18.59765095       0.54578355       7.24951472       55       1.12201000       0.37857000      -0.60232100 
Cs      19.10661585       1.10312017      25.21800275       55      -0.25039400      -0.35762900      -0.26045000 
Cs      18.04368548      11.49969797       5.95669497       55       0.75856800       0.21614700       0.06678800 
Cs      19.30696647      11.90838799      24.91656484       55      -0.48232400      -0.40051500       0.00025800 
Cs       0.64401444      10.39087894      12.00599065       55       0.12082800       0.08111400       0.12199500 
Cs       1.76743609      10.09283805      30.50647901       55      -0.32825400       0.10745900       0.43139300 
Cs       1.54931681      20.58564756      11.67322387       55       0.08832100       0.10529000       0.10879000 
Cs       2.81970347      20.60519537      30.61938519       55      -0.47106000       0.30543400       0.22460800 
Cs       7.02706852      10.40730352      13.13430075       55      -0.29064600      -0.14196900      -0.26531800 
Cs       6.52427442       9.85162858      30.95811866       55       0.07878400       0.03075500       0.09591900 
Cs       6.22377039      20.86279158      12.25444617       55      -0.01514900       0.02516600      -0.05986200 
Cs       6.88446130      20.83582349      31.31042130       55       0.16384500       0.04362400      -0.00542600 
Cs      11.31035482       9.69214975      12.70890240       55      -0.16730600       0.16788800       0.01393600 
Cs      11.73604389       9.60057253      30.97768140       55      -0.11176400       0.15431100       0.05206800 
Cs      10.95800439      20.22901102      12.53630541       55       0.14463100       0.31379800      -0.01489600 
Cs      11.41326806      20.30001993      31.81846724       55       0.25817400       0.22362100      -0.45958700 
Cs      15.43930660      10.07096051      12.09732096       55       0.42384000       0.07719400       0.11907200 
Cs      16.12714183       9.72472512      30.50632668       55      -0.06715400       0.10545600       0.30916100 
Cs      15.65818055      20.30524788      12.19404449       55       0.08215000       0.07511600       0.20766300 
Cs      17.74983212      20.27017254      31.41956108       55      -0.88888700       0.00607600      -0.42720300 
Cs       3.52277253       6.94229829       2.43665639       55       0.12860800      -0.29310400       0.46617900 
Cs       4.40864457       5.79931090      21.47828677       55      -0.24066400       0.13557200       0.29064500 
Cs       3.70707789      16.88269547       3.49402827       55      -0.00229900      -0.04781800      -0.19934900 
Cs       4.18180077      17.04031251      22.06958762       55      -0.49297500       0.22444200      -0.17508600 
Cs       8.55174697       6.58067673       3.02306781       55      -0.09396200      -0.21318100       0.62298300 
Cs       8.86784623       6.13083317      21.34324419       55       0.01352000      -0.06506800       0.22009400 
Cs       9.49294308      16.37274891       3.55114045       55      -0.46814700      -0.17726400      -0.36511900 
Cs       8.38624967      17.26636581      22.15557250       55       0.43403000       0.05210200      -0.16012000 
Cs      13.73511864       6.52762067       3.38072086       55      -0.14080800      -0.32052800       0.07623700 
Cs      13.65718228       6.48179771      21.43612865       55       0.34548300      -0.09858100       0.44297500 
Cs      14.33910159      16.54904559       2.90171786       55      -0.17335000       0.47032400      -0.04483500 
Cs      13.92744166      16.94462641      22.15178321       55       0.11456700       0.07917300      -0.19562000 
Cs      18.28804406       5.32126170       3.99316848       55       0.53198300      -0.11016400      -0.12899400 
Cs      18.19007204       5.72792864      21.59765744       55       0.49070900       0.21803700       0.03753200 
Cs      18.63037268      17.23798096       3.37256183       55      -0.11064400      -0.09669900      -0.13958800 
Cs      18.84029510      16.74134073      22.31052728       55      -0.01381800       0.13727200      -0.46492400 
Cs       1.62695549       4.53307594      14.92013870       55      -0.12291200       0.06611300       0.20485700 
Cs       1.69980528       4.24225521      33.75172619       55       0.02385800       0.20273800       0.01772300 
Cs       0.91575429      15.80459997      15.51762827       55       0.36690100      -0.62888900      -0.89693400 
Cs       1.76425312      14.94866293      33.79209619       55       0.10684500       0.14676300      -0.01135400 
Cs       6.69669320       4.62879390      15.21836079       55      -0.50920000      -0.27318500      -0.11752400 
Cs       7.06519641       4.53302317      34.09294072       55       0.20500800      -0.09374500      -0.09090900 
Cs       6.22893661      15.27193159      15.40680391       55       0.13697000      -0.04593500      -0.01138900 
Cs       6.59704954      15.35635933      33.74267709       55      -0.31490300      -0.11729700       0.10323800 
Cs      11.24811027       4.52420704      14.83687681       55       0.43826000      -0.80663400       0.08372100 
Cs      11.72085785       3.83554148      34.51503962       55       0.30620100       0.06618500      -0.48675400 
Cs      11.94808895      15.25170079      15.19251475       55      -0.55832600      -0.44675000       0.25745100 
Cs      11.46732770      15.44311780      33.86292788       55       0.42989900      -0.44142000      -0.13889600 
Cs      15.95208966       4.84121231      15.44450170       55       0.07357700      -0.11920400       0.28332000 
Cs      16.90267836       4.24652837      34.61458272       55      -0.04872900      -0.22925900      -0.37563500 
Cs      16.43417009      15.66769660      15.97605300       55      -0.19120700       0.12315900      -0.46537100 
Cs      16.50848642      15.32490203      33.76111479       55      -0.01002300      -0.09869800      -0.14407800 
Pb       1.27175961       1.30172946       0.73337443       82      -0.63722400      -0.12929800       0.99725200 
Pb       1.97080441       2.06593197      19.08863214       82      -0.67809000      -0.20427800       0.65364700 
Pb       1.33788206      12.20572001       1.03427173       82      -0.16485200       0.63015100       0.36136700 
Pb       1.49196070      11.90080742      19.28501525       82      -0.30550900       0.63788700       0.67348800 
Pb       5.70743898       1.83556868       1.01255150       82       0.41273500       0.21914500       1.24005300 
Pb       6.52584450       1.45154192      19.57142144       82       0.49296700       1.09951600      -0.26512000 
Pb       6.36578025      12.91097045       1.11563897       82      -0.41324700       0.08836200       0.21813700 
Pb       6.01005271      12.53914887      19.76857317       82       0.57602200      -0.35525900      -0.51354200 
Pb      11.17793667       1.36034203       1.65106021       82      -0.20507800       0.30288200       0.59842000 
Pb      11.28036804       2.06827863      19.67092770       82       0.41440600      -0.13503900       0.13053700 
Pb      11.10495048      12.19558868       1.26404462       82       0.13615200       0.25518000      -0.53349800 
Pb      10.96367339      12.55793703      19.91956542       82       0.22869300      -0.62578100      -0.08023000 
Pb      15.67572918       1.17286067       1.59088254       82       0.78358100       0.27845500       0.09862000 
Pb      16.08588971       0.96374270      19.52327672       82       0.06262500       0.31197700       0.97482900 
Pb      16.13073200      12.29550513       1.27829479       82      -0.08286400       0.35436200      -0.14911000 
Pb      16.10792058      12.80890945      19.76120167       82       0.32151000      -0.53497300       0.03140800 
Pb       3.70623461       8.70656137      16.82996298       82      -0.17273100       0.27679200       0.31808800 
Pb       4.61905086       8.72863902      35.97955832       82      -0.49937500      -0.56425000      -0.23593500 
Pb       3.83406101      19.80451271      16.86677068       82      -0.12997900       0.03642000       0.62865800 
Pb       4.86213805      19.30726615      36.21623378       82      -0.00519100       0.27258800      -0.09930500 
Pb       8.83123167       8.72691761      17.55442570       82       0.56610600       0.66044400       0.03938800 
Pb       9.51202594       8.88632575      35.67986870       82       0.00707700       0.24923500      -0.35826300 
Pb       8.71931613      19.68997572      17.59139968       82       0.31612900      -0.58991700       0.00739600 
Pb       9.84662166      19.39595709      36.36733654       82      -0.58051800      -0.57193000       0.22854800 
Pb      13.78833500       9.31472388      17.60373628       82       0.21431400       0.41312200       0.65998200 
Pb      14.44760816       8.44934647      35.69659794       82      -1.99335100       0.03770400       0.49138700 
Pb      13.66033836      19.49504122      17.72887154       82      -0.49121900       0.43682200       0.84612600 
Pb      14.45873709      19.43839398      35.63374307       82       0.95631600      -0.30045300       0.25341600 
Pb      18.41722050       8.95725402      17.44799298       82      -0.22257500      -0.08593700       0.14625400 
Pb      18.84337352       8.53956667      36.23283657       82       1.02010800      -0.35793800      -0.26603000 
Pb      18.73077997      20.54302747      17.25605527       82       0.00911500      -0.31778300       0.43066200 
Pb      19.85555963      19.84798005      35.85832087       82      -0.71589100      -0.26300000      -0.10768700 
Pb       1.40245137       7.22878910       8.50256482       82      -0.38551600      -0.39765400      -0.67668100 
Pb       1.70961603       7.32467035      26.92704630       82      -0.60845400      -0.08330800      -0.62948700 
Pb       1.36932144      17.95495271       7.33611488       82      -0.36868300      -0.37924200       0.25045000 
Pb       2.20186363      18.15945005      26.75638777       82      -0.43194800       0.32982900      -0.38085700 
Pb       5.77975214       6.97923144       8.31393751       82       0.50089100      -0.57505000      -0.06129700 
Pb       7.07889501       6.80487322      26.87224692       82      -0.80634100       0.10932900      -0.36085100 
Pb       6.03389757      17.79532554       7.41852054       82      -0.42463100       0.12757800       0.50489300 
Pb       7.09020415      17.62757119      26.69664817       82      -0.71950700       0.43132400       0.23461600 
Pb      10.62724078       7.23721396       8.29414677       82      -0.10240600       0.26029100      -0.77200900 
Pb      11.34712669       6.91744089      26.52944141       82       0.31471500      -1.11587700       1.57078000 
Pb      11.01455804      18.12806941       7.92300818       82       0.61688400      -0.30433500      -0.40809400 
Pb      11.47707174      18.06484717      26.66592861       82       0.69974000      -0.19957200       0.24013500 
Pb      15.97093357       7.53492132       7.95834039       82      -0.05870400      -0.51940900      -0.03177900 
Pb      16.41711429       6.44589899      26.79761399       82       0.28577600      -0.13946600      -0.36928900 
Pb      15.90438500      18.08827488       8.17380637       82       0.21189400      -0.23655700      -0.76903600 
Pb      16.22794537      17.71298061      26.68089363       82       0.24395900       0.82572200      -0.25439900 
Pb       4.29731046       3.57138220      10.45987373       82      -0.36874700      -0.71398000      -0.01486900 
Pb       4.10838646       3.59870373      29.34541234       82       0.26467500       0.33092700      -0.55239400 
Pb       3.73891154      14.56947682      10.93019799       82      -0.65216200      -0.34082800      -0.57720900 
Pb       4.14532659      14.40898147      28.80442763       82       0.47691400      -0.13017000      -0.27374000 
Pb       8.72681805       3.57740763      10.25086229       82       0.08820500      -0.17052700      -0.10883700 
Pb       9.54121624       3.95010236      28.92050582       82       0.22870900      -0.35569400       0.84094700 
Pb       8.44912046      15.11741786      10.30788985       82       0.07430600      -0.77043200       0.28641000 
Pb       9.00254433      14.11889153      29.17525559       82       0.17080800       0.58024500      -0.69502600 
Pb      14.07153732       3.26697737      10.74441912       82      -0.62499900      -0.25104900       0.14124800 
Pb      14.47810072       2.84251191      29.70462551       82      -0.07090900       0.04360400      -0.02009900 
Pb      13.30072197      14.47400677       9.96449692       82       1.11166000      -0.66420100      -0.32049000 
Pb      14.17501806      14.31565397      28.90908518       82      -0.05949300       0.19792400       0.16582100 
Pb      18.34921734       3.35651459      11.40227553       82       0.28622400       1.27403400      -1.94596600 
Pb      19.53187083       2.95991326      29.62051138       82      -0.65899300       0.63826700      -0.88961000 
Pb      18.48983334      15.21745279      10.18938834       82      -0.01777700      -0.92505800       0.33985900 
Pb      19.10885696      14.09992416      28.72607609       82      -0.43722100       0.09087400       0.02991000 
I       4.53079599       3.86074834      18.28526531       53      -0.19585700      -0.13792400      -0.13991200 
I       4.14730586       2.94174935      36.73070738       53       0.57257900       0.70204900      -0.40348300 
I       3.89058578      14.27823794      18.44726105       53      -0.33585400       0.00894300      -0.10345700 
I       4.23470749      14.20320876      37.19683614       53       0.26779200      -0.06276700      -0.10979000 
I       8.99664832       3.71208084      17.88757380       53       0.29567100      -0.27066500       0.47899900 
I       9.65268874       3.18217129      37.30774911       53      -0.38279500      -0.50083300       0.35604700 
I       8.79690801      14.18139195      18.64891791       53      -0.42198500       0.23583000      -0.16591400 
I       9.64363764      14.18055464      36.91255160       53      -0.06599200      -0.17379800       0.26080700 
I      14.24623604       3.27564814      18.62270349       53      -0.53113500       0.14506800      -0.05548500 
I      14.51411094       2.93457100      37.38753731       53      -0.42630500       0.04522600       0.05589900 
I      14.07717247      14.65760824      18.61376391       53      -0.62583500       0.28055100       0.07461700 
I      14.65765304      13.99243908      36.94466600       53       0.23969000      -0.55499600       0.18130400 
I      18.67841087       3.30062999      18.50281211       53       0.13128900      -0.32519500      -0.15335500 
I      18.86809552       2.69785472      37.64673845       53       0.46352100       0.31826900      -0.07398400 
I      18.43087928      14.75626723      18.67579938       53       0.09673500      -0.51727400       0.69261500 
I      19.54714548      14.12602906      37.25660461       53      -0.44543400      -0.32067900       0.47814000 
I       0.99142863       6.86685791      -0.12354029       53      -0.22121400       0.14973600      -0.23145900 
I       1.07326082       6.81481737      18.29707325       53       0.34247500       0.46030000      -0.48199700 
I       1.41924134      18.32560644       0.04569950       53      -0.22868200      -0.31909100      -0.03370100 
I       0.96023218      17.94199584      18.07530904       53       0.43640000       1.15873200       0.34869900 
I       6.58665239       7.39787458       0.04823433       53      -0.80139800      -0.02183500      -0.16187400 
I       6.42190080       7.40592209      18.67207979       53      -0.36356900      -0.37879300      -0.09829700 
I       6.46821559      17.80812012      -0.15413639       53      -0.15178500      -0.11534000       0.35990500 
I       6.26680564      17.48035230      18.67477092       53       0.18344300       0.64033000      -0.25315700 
I      10.42572928       7.11381205       0.07177055       53       0.75112400       0.26510900      -0.39159500 
I      11.44105853       7.22995596      18.78959464       53      -0.33560400       0.04508300      -0.21113400 
I      11.66933004      17.46669452       0.30325988       53      -0.25451400       0.70372400      -0.41216500 
I      11.47533639      17.88618592      19.39125781       53      -0.43332000      -0.05798400      -0.29316400 
I      15.60354844       7.16160931       0.21769017       53       0.65186600      -0.73066700       0.48040500 
I      16.03967050       7.16835357      18.59496281       53       0.06383900      -0.15147200      -0.09839500 
I      16.34326291      18.04846142      -0.33954091       53      -0.09573400       0.25947800       0.01599300 
I      16.35600772      18.87046507      18.85137425       53       0.97589000      -0.46957800       0.37027200 
I       3.90195067       9.07362393       9.22889133       53      -0.44368700       0.66884700       0.47628400 
I       4.11400967       8.65174904      28.31966204       53       0.55432600       0.34317400      -0.13940600 
I       3.49722019      19.79279238       8.37596104       53       0.41330200       0.07333900      -0.01107500 
I       4.89712877      19.65315009      28.02349190       53      -0.19546000      -0.08106400      -0.30605500 
I       8.48974435       9.22452856       9.30969804       53      -0.02404200      -0.45839800       0.44188100 
I       8.84095182       9.23106176      27.71061044       53       0.38455500      -0.33231600       0.08257900 
I       8.48772226      19.06234305       9.47458005       53      -0.08689700       0.36664900       0.03758200 
I       9.64954261      19.80750750      28.34299416       53      -0.64649600       0.02885400      -0.19730400 
I      12.99194541       9.30129807       9.34460513       53       0.32543600       0.18359100       0.02078500 
I      13.96397359       8.29365892      27.43472089       53      -0.03843600       0.59168400       0.27070800 
I      13.57283219      20.08130628       8.74562015       53      -0.51100600      -0.25802600       0.65954500 
I      13.74266139      19.83690986      27.83956984       53       0.19404600      -0.13220000      -0.20060000 
I      18.21522812       9.16634809       9.20613068       53       0.48482900       0.19932100       0.29304600 
I      18.77496316       9.12498845      28.32745468       53       0.12711300      -0.13317600      -0.30609700 
I      18.65329262      19.45744001       9.33490191       53      -0.04678600       0.03443400       0.16776700 
I      19.35477766      19.92183342      28.18338789       53       0.38710000      -0.37258500      -0.16257400 
I       1.94612024       1.43406697       9.46134640       53      -0.23107900       0.46125000       0.07689500 
I       2.18401433       1.37679947      27.80532284       53       0.26499400       0.16772700       0.25921400 
I       0.98719131      13.00510639       9.32613755       53       0.39215800      -0.13117300      -0.19081000 
I       2.20842868      12.34481074      27.22315471       53      -0.25961800       0.29180000       0.48197700 
I       6.39555497       1.24629389       9.10436737       53      -0.04147800       0.57010800       0.27592500 
I       6.38966792       1.86603435      28.26736363       53       0.24141500      -0.06917200       0.05351700 
I       6.77494816      12.40581775       9.74317377       53      -0.43399500       1.00078600       0.33229100 
I       6.73565740      12.35128121      27.73545689       53      -0.17861100       0.29857900       0.28618500 
I      11.42235798       1.69028625       9.29696120       53      -0.14605500       0.21113000       0.15432500 
I      11.78105144       1.96431701      27.77981232       53      -0.45167400      -0.13296100       0.39944200 
I      10.79345890      12.91610282       9.21463220       53      -0.08930500       0.12072600       0.15376300 
I      11.74632854      12.52179538      28.33914712       53      -0.47859400      -0.41576700      -0.46922500 
I      16.35479805       1.54293495       9.41375523       53      -0.90594700       0.34970400       0.82367700 
I      16.76430945       1.09442152      28.70230689       53       0.09229400       0.01340900      -0.11673600 
I      16.39276864      12.90770186       8.82229707       53      -0.45229500       0.00100500       0.37443100 
I      16.37707483      12.50728735      27.47741066       53       0.23584800      -0.23696900       0.10870000 
I       2.08766813       0.54018424      16.22164614       53      -0.12147500      -0.39845400       0.08810700 
I       2.47186813       0.02965126      34.70045907       53       0.15578800      -0.06360200      -0.23926300 
I       1.18738463      10.96748857      16.35164794       53       0.51467600      -0.06557200      -0.47174400 
I       1.84764842      11.02088116      35.10672080       53       0.08005500      -0.69423500      -0.64490400 
I       6.73333663      -0.28613937      16.53068355       53      -0.42334500       0.47682300       0.15137000 
I       7.46207152      -0.34315597      35.75269559       53       0.13008500      -0.25239700      -0.79269400 
I       6.32775988      10.99716871      16.68432213       53      -0.05484900      -0.20969200      -0.04092100 
I       6.31225923      10.86216397      35.05046086       53       0.67746700       0.55894200      -0.25137000 
I      11.82014308       0.03912350      17.27911260       53      -0.89170800       0.20429800      -0.27162400 
I      12.07267761      -0.45561811      35.80061829       53      -0.01831800       0.48053600      -0.78194500 
I      11.35674329      11.04088396      16.82060822       53      -0.32281200       0.20507900      -0.20622000 
I      12.01084027      11.12987757      35.10466387       53      -0.07386700      -0.49766700      -0.28165800 
I      15.68847000      -0.07441091      16.56715275       53       0.55409600       0.11989500      -0.28904900 
I      17.16593860       0.17122604      35.04114593       53      -0.25688300      -0.56531500       0.69101300 
I      16.14351962      11.60183464      16.67257094       53       0.00551400      -0.59559500      -0.05266300 
I      16.54729431      10.19344346      35.09286091       53       0.77488100       1.69270100      -0.57017700 
I       4.03588513      10.81980872       2.00230452       53       0.02784900      -0.46309800       0.05050400 
I       3.85820754      10.14452615      20.06308064       53      -0.16371500      -0.17995900       0.16596600 
I       3.33058890      20.94541429       2.32986724       53       0.47845000       0.45754600      -0.88701600 
I       4.25882117      21.52281045      19.94523325       53      -0.82191200      -0.50917600       0.32744900 
I       8.51027980      10.61916439       1.95950722       53      -0.15373700      -0.11487900      -0.08129900 
I       8.70849783      10.45338334      21.05011265       53       0.20245800       0.18099900      -0.45776400 
I       8.43746485      21.28521505       2.12006330       53       0.34422200       0.03050700      -0.31609000 
I       8.83227706      21.56273741      20.11152902       53       0.37271300      -0.25829300       0.47953500 
I      13.67491609      10.34403747       1.80180057       53      -0.02971500      -0.01395300       0.31656500 
I      13.72004610      10.51963025      20.83236474       53      -0.02854900       0.06926100      -0.26464300 
I      13.48481328      20.89810289       2.17078964       53      -0.33129000      -0.13171000      -0.13901500 
I      13.43400132      21.26142594      20.83771614       53       0.15404700       0.46564300      -0.42941700 
I      18.60110373       9.81040036       2.27781076       53      -0.05549500       0.59133500       0.04984000 
I      18.33468641      10.17125430      20.36062372       53       0.31187300       0.26180400       0.25728300 
I      18.44824571      21.20485537       2.25134745       53      -0.08665100      -0.02328500      -0.31670400 
I      19.29601973      21.50976099      20.64015124       53       0.08648400       0.17757800      -0.53094700 
I       1.00538410       5.58749085      11.27285317       53       0.33647200      -0.06841300       0.44170400 
I       1.66879601       5.73578898      29.79227804       53      -0.14803000      -0.26423700       0.34380800 
I       1.22504558      16.76955134      11.24391476       53       0.47092900      -0.12113000      -0.01594400 
I       1.64598658      16.02965566      29.57411097       53       0.02435300       0.52560300      -0.06847300 
I       6.45429597       5.82297257      11.33837129       53       0.18604200      -0.28700700       0.20020300 
I       6.96514256       5.89492234      29.89015448       53      -0.10662200      -0.24200300      -0.20551200 
I       5.59263318      16.96884761      11.13852644       53       0.50639400      -0.09933900      -0.01429200 
I       6.66979579      16.50972197      29.80956282       53       0.04424000      -0.27731000      -0.27727000 
I      11.17431464       5.84132665      10.92203498       53      -0.06437600      -0.53342500       0.66213600 
I      11.63092935       5.96603678      30.31148676       53      -0.13750700      -0.64255500      -0.57294400 
I      11.75228428      16.65223660      11.03494017       53      -0.83531600       0.81011800       0.25406500 
I      12.01088208      16.51708650      29.63061882       53      -0.27168000      -0.14481100       0.17965800 
I      15.66702356       5.71517686      11.81843461       53       0.21169200      -0.25662900      -0.23861400 
I      16.71476291       5.04772377      30.07618923       53       0.05228200       0.11112100       0.05699700 
I      15.83410587      16.64743278      11.00380544       53      -0.36982500       0.25021300       0.17287400 
I      16.77155152      16.26673235      29.45984678       53       0.26379700      -0.17403200       0.60092200 
I       3.40995894       4.71154703       7.54429499       53       0.24921500       0.52229100       0.12869200 
I       3.95866959       5.66968843      25.98991029       53       0.87655400      -1.16752200      -0.03228400 
I       3.76499652      15.40240630       7.45688638       53       0.12076200       0.38781400      -0.15868300 
I       4.47682496      15.80883031      25.70413133       53       0.19604700       0.17364900       0.24125700 
I       8.30348360       5.15139566       7.27713693       53       0.29472000      -0.28822500       0.22184100 
I       8.91592525       4.37886488      25.86014046       53       0.01355000       0.55340800      -0.06896800 
I       8.36113839      15.78354878       7.17429736       53       0.42597300      -0.28832400      -0.02042400 
I       9.20570058      15.55079304      26.07135917       53       0.19169400      -0.16130500      -0.32200200 
I      13.39947057       5.98796111       7.40440976       53       0.26884500      -0.89700600      -0.23400500 
I      14.04128172       4.47126447      26.18240754       53       0.35611400       0.50028800       0.02896000 
I      13.48493773      16.20915223       6.62897378       53      -0.03701500       0.07982400       0.48581200 
I      14.37850784      15.65303524      25.63144880       53      -0.51923200      -0.13650900       0.24194400 
I      18.95132057       4.80301274       8.01802424       53      -0.39225400       0.27655100      -0.05494600 
I      19.28435118       4.49367865      26.45083898       53      -0.15012500       0.46055600       0.16178400 
I      18.10499914      15.92722629       6.99794194       53       0.18080800       0.25594800      -0.09744200 
I      18.88501592      16.07295375      25.75737159       53       0.30426500      -0.27071800       0.72528000 
I       1.68390141       2.94396060       3.30027356       53      -0.29417200       0.27262500       0.17292000 
I       1.82412713       3.24268050      22.13376167       53      -0.12340200      -0.03888600      -0.29944100 