320
Lattice="20.1296876657 0.0135871351635 -0.0838486761402 0.0536144910118 22.948973365 0.366524801401 -0.302321231911 0.602091847509 38.109838794" Properties=species:S:1:pos:R:3:Z:I:1:forces:R:3 energy=-101593.931355 stress="1026.32259 -686.571665 595.974678 -686.571665 -2324.200713 -1008.639956 595.974678 -1008.639956 152.43391" pbc="T T T"
Cs       3.67440817       0.01485729       5.79793337       55       0.27075700       0.14072500      -0.10243400 
Cs       3.72070794       1.56867749      25.52844133       55      -0.18762800      -0.11870400      -0.29952600 
Cs       4.05517786      12.76200357       6.95203467       55      -0.10628700       0.03823000       0.04676300 
Cs       4.28481787      12.24443465      24.60317485       55      -0.16244800       0.05536000       0.67292100 
Cs       9.05743751       0.36797228       7.22202885       55      -0.16786200      -0.06344200      -0.31231800 
Cs       8.52312772       1.31653865      25.53364154       55       0.11236700       0.02662100      -0.32538900 
Cs       8.29575069      11.97596321       6.03539534       55       0.29526400       0.59251600       0.10559800 
Cs       9.10428060      13.46588501      25.76519915       55      -0.17124000      -0.13707900      -0.68870200 
Cs      13.64064656       0.16622719       6.60356625       55      -0.25735600       0.58663500      -0.18695200 
Cs      13.17417760       1.32937318      24.96405923       55       0.23469500      -0.12473000      -0.02933400 
Cs      13.68623702      11.71048467       6.04826389       55       0.16926500       0.50322800       0.23521700 
Cs      13.31961840      13.40562592      25.80906171       55       0.26025600      -0.30485400      -0.42952500 
Cs      18.86397164       1.78616135       6.29147144       55      -0.11376100      -0.23992700      -0.05067200 
Cs      18.07850244       0.91402377      25.80623582       55      -0.01882300       0.19378000      -0.32780500 
Cs      19.23050366      12.79125937       6.44317228       55      -0.16501200      -0.26522300       0.16359200 
Cs      18.82131119      12.67005663      25.91461434       55       0.09742400       0.21770500      -0.25446400 
Cs       0.98086765      10.80188380      13.15031480       55      -0.07518600      -0.33152600       0.29912600 
Cs       1.22465461      10.76898353      32.36415285       55       0.58309100       0.15434000      -0.35719000 
Cs       1.08693473      22.36230996      13.26891433       55       0.32852800      -0.22234200      -0.15908600 
Cs       0.60504660      22.32427135      31.33374716       55       0.75912000       0.09439500       0.44741700 
Cs       5.66579928      10.80043013      13.55118013       55       0.17730500      -0.15990500      -0.14725200 
Cs       6.36958381      10.61651461      32.04366905       55      -0.01197500      -0.00578000      -0.02099900 
Cs       5.92127433      22.52951864      12.77783925       55      -0.14240800       0.06991400       0.10844800 
Cs       6.31838797      22.90889755      32.28259189       55      -0.02790400      -0.30955800       0.05087600 
Cs      11.47882191       9.85377827      13.24596910       55      -0.23800900       0.26617800      -0.27613000 
Cs      11.45529314      10.90282697      31.98946793       55      -0.59573200       0.23664000      -0.08444100 
Cs      11.09669030      23.40579349      13.52710495       55      -0.10383600      -0.20425000      -0.16276300 
Cs      11.66041156      22.54518730      31.91720425       55      -0.35302400       0.07727300       0.24854400 
Cs      15.95085852      11.26116794      13.76583604       55       0.25531600      -0.27243000      -0.16125700 
Cs      15.82608142      11.26071741      32.02474562       55       0.23081600      -0.09684900      -0.02423900 
Cs      15.87699374      22.21695473      12.70836227       55       0.29938000      -0.04318800       0.50004600 
Cs      16.26311829      22.04179420      32.50456871       55      -0.09962800       0.60721000      -0.40970000 
Cs       3.76293435       5.91348330       3.25225127       55       0.54675300       0.72181600      -0.11826000 
Cs       4.17029994       7.18653054      22.59481916       55      -0.32794000       0.02513700       0.04302400 
Cs       3.39654873      18.15494154       3.97640155       55       0.05758900      -0.04769700      -0.25248300 
Cs       3.19207879      19.35858089      22.33425731       55      -0.00569200      -0.16884700       0.06958300 
Cs       8.92955513       5.56451589       3.28128747       55       0.11515400       0.17019900      -0.11202600 
Cs       8.82493244       7.17918283      22.21623305       55      -0.22421600      -0.06481400       0.21893300 
Cs       9.61050370      17.24209927       3.69095006       55      -0.26511100       0.26867600       0.26181600 
Cs       7.81954835      18.72223511      22.33056953       55       0.79562000      -0.50698700       0.44799700 
Cs      14.01862130       6.68259928       2.90739124       55       0.07627500      -0.03078600       0.02121600 
Cs      13.31160262       7.01137619      22.52749691       55       0.21084500      -0.07921100       0.24572600 
Cs      14.78049884      17.69102526       3.71402829       55      -0.45628500       0.19033800      -0.05297300 
Cs      13.81134094      18.63558941      21.92011722       55      -0.10177800       0.16150300       0.46128700 
Cs      19.06980658       6.03887589       3.48778120       55      -0.66192600       0.99705300       0.00972000 
Cs      18.03714823       6.88718675      22.35982739       55       0.82016400      -0.21035000       0.73276400 
Cs      18.72680127      18.79698343       3.71582836       55       0.18541700      -0.22388900      -0.23445300 
Cs      18.96422097      18.37467291      22.89252783       55      -0.27192200       0.09208900      -0.01756100 
Cs       0.94881793       4.90198351      15.59956009       55      -0.07069900       0.13098700       0.17379500 
Cs       1.35401230       5.05324413      34.55237236       55      -0.27341900       0.27588300      -0.25293600 
Cs       1.31404886      16.57156657      16.41615630       55      -0.13552400       0.00765000      -0.11806400 
Cs       0.73555589      16.12116422      35.86808933       55       0.19120700       0.57763900      -0.92281400 
Cs       5.98298399       5.08579181      15.67136190       55      -0.26866900       0.18907100       0.17487100 
Cs       5.99104101       4.56111849      34.62941561       55       0.45815400       0.16701700      -0.36722100 
Cs       6.15998377      16.38135389      15.78714071       55      -0.26089300       0.15690500      -0.03010100 
Cs       5.75881224      16.12777479      34.69091701       55       0.02548600       0.13843800       0.05152600 
Cs      11.19132497       4.62722110      15.86041371       55      -0.11035200       0.43557700      -0.03012000 
Cs      11.06256112       5.96759266      34.36433709       55      -0.04141000      -0.42244600       0.06858000 
Cs      11.25313566      16.48510232      16.26605655       55      -0.04229800       0.23116200      -0.27847600 
Cs      11.03053305      17.18146182      34.88138743       55      -0.15364700      -0.02337000      -0.13402300 
Cs      15.77549385       5.20826882      15.99940477       55       0.82315400      -0.12048000       0.27305900 
Cs      16.55469889       5.44163784      34.29610243       55      -0.20367900       0.06738500       0.10676600 
Cs      16.09350643      16.84523615      15.88745601       55       0.07411700       0.08342100       0.12392900 
Cs      16.08982999      16.66240418      34.70907340       55       0.28714700      -0.17802200       0.16714700 
Pb       0.73333106       1.96930467       0.71840263       82       0.83308300      -0.96379900       0.13218700 
Pb       1.39221381       2.59757384      20.53084064       82      -0.43220800       0.00176200      -0.17228800 
Pb       1.97769057      12.90078225       1.71373271       82      -0.32206500       0.27714600      -0.15245200 
Pb       0.94199395      13.87102783      20.61861937       82       0.24616300      -0.30733900       0.00033100 
Pb       6.23163196       2.10361926       1.06561121       82      -0.17556300      -0.75992900      -0.35021700 
Pb       6.47907680       2.17050953      20.78220109       82      -0.51243400       0.55429700      -0.51624100 
Pb       6.63132302      13.79601456       1.06203271       82      -0.54757700      -0.03762500       0.06607200 
Pb       5.96586681      13.79747544      20.33529992       82      -0.38816400       0.89489300      -0.06799900 
Pb      11.41368840       1.57536951       0.91590735       82       0.13046300      -0.68145100      -0.69245500 
Pb      10.87171955       2.62605435      20.06320669       82       0.12566600       0.34682500       0.11474400 
Pb      11.65397110      13.71154833       0.74463769       82      -0.60020600      -0.90708600      -0.32361000 
Pb      10.95100413      14.02414523      20.13577554       82       0.32368100       0.43744900       0.46671400 
Pb      16.52535752       1.81277786       0.99243305       82      -1.03524900       0.00576900       0.02611900 
Pb      15.94430671       2.34725466      19.97274332       82      -0.00154300       0.66533800       0.66136300 
Pb      16.40304856      13.50467314       1.15970977       82       0.54069600      -0.67576900      -0.02755700 
Pb      16.35528894      14.22770791      20.42066103       82      -0.38761500      -0.46900300       0.40032200 
Pb       3.43794831      10.32627015      17.92771091       82       0.11788000      -0.38713700       0.03287400 
Pb       3.77971543       9.88754559      37.40178915       82      -0.42062500      -0.50970700      -0.25288200 
Pb       3.54761037      21.37139552      18.11000884       82       0.00995200       0.38943100      -0.22208900 
Pb       3.58694183      21.96222920      36.46100762       82       0.76147500      -0.46619500       1.22488000 
Pb       8.72994518      10.24844130      18.25076389       82      -0.60987700      -0.50080500       0.08433100 
Pb       8.72918741      10.08857003      37.19183342       82      -0.42374600       0.20985500      -0.03849800 
Pb       8.29692290      21.84077285      17.99160313       82      -0.05839900      -0.26891400       0.07084800 
Pb       8.70535348      21.15345289      37.45398503       82       0.90265700       0.86657600      -1.02762000 
Pb      13.75762747       9.97067877      18.49379206       82       0.00649100       0.14870500      -0.09883800 
Pb      13.76543912       9.84386138      37.10060611       82       0.16750800       0.52951500       0.22640800 
Pb      13.53574447      21.58588133      18.26235095       82      -0.12638900      -0.04962900      -0.31550000 
Pb      13.90486216      21.04670949      37.00025162       82      -0.56045400       1.25236800       0.49069000 
Pb      18.31978311       9.81953465      18.14812581       82       0.73770800       0.58886900       0.65485600 
Pb      18.75802312      10.84390299      36.90459320       82       0.43711300       0.16267600      -0.21147200 
Pb      18.92494312      22.20505117      18.19948557       82       0.00555300      -0.24051900      -0.09826900 
Pb      18.85424033      21.44427676      36.78242652       82      -0.12108900       0.33040100       0.58829200 
Pb       1.47868012       7.66154726       8.54879368       82      -0.28172100       0.81245800      -0.35034200 
Pb       1.02402812       8.47388660      27.72963765       82       0.36167000      -0.20801700      -0.38364800 
Pb       0.99988593      19.05148833       9.33239374       82      -0.45525000      -0.25558800      -0.63877300 
Pb       0.62372879      19.11707340      27.54229209       82       0.45378700      -0.08891500       0.45691000 
Pb       6.05911792       7.76648337       7.84608549       82      -0.17685300      -0.18922500       0.95399900 
Pb       6.13559105       8.23365648      27.78588008       82       0.32351900      -0.00211700      -0.34532700 
Pb       6.07145140      18.78615310       8.88487914       82       0.59619700      -0.12646200      -0.23195800 
Pb       6.00779528      19.38731914      27.26159955       82      -0.39493700       0.30760100       0.64721500 
Pb      11.08331761       7.96289938       7.98013305       82       0.68292800      -0.37421300      -0.56727800 
Pb      11.39621761       8.19110325      27.25371161       82      -0.32293100       0.14738900       0.25344900 
Pb      11.79089507      18.74376380       8.57293587       82      -0.62400300      -0.17480500       0.08866200 
Pb      10.94732976      19.29463197      27.43468269       82      -0.07281700       0.12169700       0.07734600 
Pb      16.25258076       8.29424857       8.46193767       82       0.90440900      -0.36290800      -0.56178300 
Pb      16.50850016       8.60757745      27.14305157       82      -0.35979600      -0.16826100       0.60833200 
Pb      16.32291138      19.34909288       8.78436279       82      -0.36412300      -0.14460300       0.18385300 
Pb      15.83270436      19.28296553      27.91813170       82      -0.22975300      -0.10780100      -0.60603400 
Pb       3.73251665       4.14119982      10.46296318       82      -0.66735000      -0.13786800       0.74586000 
Pb       4.07750040       4.43280001      29.59114939       82      -0.24255900       0.04782600       0.14884600 
Pb       3.48325628      15.62675395      11.63948599       82       0.45678200       0.08069200      -0.26145400 
Pb       4.20523844      15.71977000      29.76261184       82      -0.22887800      -0.25193600      -0.10076600 
Pb       8.48676030       4.16487808      10.45567836       82       0.70606200      -0.17601600       0.64595900 
Pb       8.74056209       3.60811070      29.28753533       82       0.39399300       1.00444500       0.47140700 
Pb       8.63713326      15.43715573      11.38537079       82       0.17812400      -0.39320100      -0.62306400 
Pb       8.75113570      15.51321854      30.19874764       82       0.11724300      -0.06724000       0.01951200 
Pb      14.22592331       4.73764402      11.23079457       82      -0.67048800      -0.30316800      -1.39709600 
Pb      14.23585669       4.74894241      30.06129066       82      -1.16744100       0.26300000      -0.92677400 
Pb      13.77001044      14.88724018      11.17736359       82      -0.30618400       0.45784800      -0.98645700 
Pb      13.57566976      15.38233913      29.91218064       82      -0.40583200       0.24732800      -0.11270900 
Pb      19.04402103       3.84163746      10.50780929       82      -0.23162300       0.10929200       0.66349300 
Pb      19.15235005       4.14373394      29.75189492       82      -0.55243500       0.43175700      -0.50623500 
Pb      18.78492728      15.51137620      11.21261035       82      -0.29462100       0.02519900      -0.39654200 
Pb      18.94959564      15.64877441      30.34688649       82      -0.06640700      -0.80806400      -0.34606200 
I       3.61829049       4.61542063      19.67491917       53       0.13555500      -0.17474500      -0.19878400 
I       3.62677948       4.34956786      37.31550223       53      -0.22321700      -0.22680400       1.07246800 
I       3.67455044      16.28852239      19.41833789       53      -0.19252700      -0.49645600       0.08644700 
I       3.53532638      16.29375352      38.31486752       53       0.03541600      -0.20146100       0.30023500 
I       8.26978987       4.54671379      18.89097993       53       0.08320000      -0.19974900       0.21606900 
I       8.70034607       4.09878887      37.65734255       53      -0.22059300       0.04710100       0.25067700 
I       8.35048481      15.72413718      18.55237685       53       0.27475300      -0.27721400       0.68268700 
I       8.64573978      16.46392004      38.31754391       53       0.17017300      -0.19388100      -0.30119100 
I      13.69063410       4.80755091      19.18267599       53      -0.62332400      -0.40338700      -0.07918600 
I      14.15403490       4.49789743      37.34245587       53      -0.21987400       0.02882500       0.31783600 
I      13.72622004      16.09532506      19.28525840       53      -0.10584400      -0.10898000      -0.29507000 
I      13.73006968      16.05239346      38.02776029       53       0.38211200       0.52970000      -0.07525900 
I      18.52820888       3.88554126      18.36747881       53      -0.04829400       0.13988400       0.31296900 
I      18.48697014       4.28965105      37.34543228       53       0.03935400       0.39997000       0.13326200 
I      18.90658982      15.94778933      19.52959796       53       0.06694000       0.37742600      -0.25499100 
I      18.79720096      15.86055907      38.50793701       53      -0.43913400      -0.12327800       0.60345300 
I       1.01294314       8.00033901       0.36032559       53       0.28600800      -0.15930900      -0.09096300 
I       1.24082123       8.28987417      19.04851193       53      -0.83379200      -0.04793300       0.54433400 
I       1.37960610      19.66733536       0.76123216       53      -0.19690200      -0.10611600      -0.33438500 
I       0.77386874      19.68284216      18.68777911       53       0.27808000      -0.24899600       0.76870000 
I       6.50143541       7.21584098       0.10899091       53      -0.00192700       0.11533400       0.46785100 
I       5.58739206       8.09195809      18.91630051       53       0.61963400       0.00314800       0.10446900 
I       6.39218058      19.29568768      -0.20176365       53      -1.12937200      -0.98673700       0.43309500 
I       6.03135188      19.63327938      19.48010425       53      -0.17482400       0.38800400      -0.75462800 
I      11.07271822       7.33979536       0.23999299       53       0.39878200      -0.00612200      -0.02416100 
I      11.28677617       8.22446540      19.58990137       53      -0.23589000       0.05045300      -0.30006700 
I      11.69440466      18.80380534       0.12956182       53       0.31037700      -0.26485200       0.22242700 
I      10.37011931      19.31607921      19.09402816       53       0.40246100       0.48771200      -0.05312700 
I      17.15526594       8.23857214       0.15028635       53      -1.12763000      -1.00755200      -0.21382000 
I      16.20453659       7.82802498      19.59966568       53      -0.43490900       0.36160200      -0.76047700 
I      16.70474709      18.71523277      -0.11209618       53       0.36944800      -0.03693600       0.18600100 
I      16.74896327      20.13640752      19.46785222       53      -0.63008100      -0.43627400       0.13192300 
I       3.74049841       9.96899726       9.91987573       53       0.11658600      -0.40406800      -0.36721000 
I       3.83449801      10.38677151      28.66930779       53      -0.12947400      -0.20886200      -0.03648000 
I       3.48302947      20.79259017       9.77222969       53       0.51950100       0.72434200       0.12049200 
I       3.20886090      21.46547863      28.46659565       53       0.12296000      -0.30823400       0.11846700 
I       9.04839385       9.30673808       9.73299411       53      -0.75306500       0.35930300       0.03201300 
I       8.57575145      10.32455874      28.39621555       53       0.10528100      -0.36177400       0.25181600 
I       8.61899646      20.72541019      10.36609234       53      -0.31180000      -0.24399200      -0.25904200 
I       8.57652571      21.46458890      28.39813727       53      -0.20584800      -0.14955600       0.19702500 
I      14.06272201       9.80702694       9.84611508       53      -0.99348600       0.24522700       0.21847300 
I      13.55816598       9.96799619      29.03119117       53       0.31368100       0.10011700      -0.41483000 
I      13.43170634      21.08694923      10.14767752       53       0.08736100      -0.23585800      -0.20813900 
I      13.58360925      21.41784169      28.84734060       53       0.04309900      -0.11519600      -0.12558300 
I      18.86851512       9.93315667      10.03932684       53      -0.09853400      -0.12521800      -0.34914800 
I      18.81448309      10.21220275      28.98988438       53       0.19165700       0.11836200       0.13836100 
I      18.70340550      21.29082533       9.76846562       53       0.05260500       0.19709600       0.25959100 
I      18.36132290      21.08954417      28.93575853       53      -0.38072800      -0.08945100      -0.11342800 
I       1.32809478       2.14253523       9.32903484       53      -0.36884600      -0.66516700       0.17582000 
I       1.12798481       2.41857501      28.26830121       53       0.00077300      -0.09007200       0.05413900 
I       1.36598081      13.48576002      10.71379784       53      -0.52753200       0.11569400      -0.78827700 
I       1.24665032      13.63546800      29.15169284       53      -0.33492400       0.38647500      -0.04097400 
I       6.10521047       2.26339671       9.48497606       53      -0.10936500      -0.59173100      -0.42684500 
I       6.06286446       1.96133734      28.59244083       53      -0.07169400      -0.11157800      -0.12143000 
I       6.39443427      13.03801758      10.30715908       53       0.01230000       0.52516200       0.00949800 
I       6.45273555      13.91021598      28.20443374       53      -0.56275700       0.17901100       0.49169800 
I      11.49143787       1.94485009       9.61755553       53      -0.26988200       0.43061400       0.07840900 
I      11.45054862       2.34178331      28.38094072       53      -0.03978000      -0.15877500      -0.02164500 
I      11.11983245      13.11693410       9.81249932       53       0.07630100       0.36052600       0.36609700 
I      10.98398997      13.30343426      28.91740110       53       0.24386600       0.40229800       0.34730300 
I      16.15079426       1.99075706       9.66267381       53       0.29897600       0.48702000      -0.09062000 
I      16.00520706       2.75134384      28.47177421       53       0.58566600      -0.44808400      -0.17707000 
I      16.18413269      13.33274882       9.46920946       53       0.30471300       0.27997900       0.40584500 
I      15.95863202      13.69848493      28.61112302       53       0.36769900      -0.17705900       0.08608300 
I       1.31143123       1.00728106      17.19343239       53       0.42381100       0.04819400      -0.06626300 
I       1.18193642       0.88977539      35.59103611       53      -0.96222300       0.50384300      -0.05720600 
I       0.96312674      12.29202932      17.29310334       53      -0.53723900       0.30687400       0.05201500 
I       1.85349597      12.82442459      36.61082076       53      -0.20717600      -0.76963400      -0.01435900 
I       5.60301845       0.73976739      16.61881586       53       0.21966200       0.10146300       0.29659800 
I       6.45161282       0.55061352      35.98518468       53      -0.09969700       0.71167400      -0.08044700 
I       6.19568930      12.20918068      17.10914040       53       0.19268800       0.16728000       0.28071800 
I       5.82343232      12.01553591      36.46219530       53       0.76880000       0.44599700      -0.55126100 
I      11.12772658       1.03495432      17.16914071       53       0.03567700      -0.45878900      -0.35200200 
I      11.12605847       0.35170050      35.46606107       53       0.37255500      -0.02511700       0.52743600 
I      11.23902892      11.86475057      17.31811464       53       0.21690400       0.48661200      -0.25490000 
I      11.21499292      12.55385926      35.94597282       53      -0.05219200      -0.57126500       0.25841300 
I      16.01448990       0.76853657      17.27222932       53      -0.74416400      -0.19548500      -1.08398300 
I      16.17411168       0.88216684      36.01256824       53       0.14753300      -0.45610400      -0.07643000 
I      15.60779135      12.78250438      17.55875715       53       0.25922200      -0.55401600      -0.52269400 
I      15.72591973      12.41431147      36.27496521       53       0.04035900      -0.11895100      -0.30213100 
I       4.51794668      10.97946814       2.09091979       53      -0.30317700       0.28635000       0.51990800 
I       4.03555647      11.36481121      21.08956067       53      -0.29644500       0.11455000      -0.07590500 
I       3.86849419      22.70662358       1.93927874       53       0.19349900       0.47386700       0.01952500 
I       3.72366785      23.34244769      21.49459524       53       0.11743400      -0.29019500       0.15772100 
I       8.49178318      11.46466361       1.99026220       53       0.55390900      -0.26531500       0.00244800 
I       8.52285142      12.14299456      21.08478522       53       0.34141000      -0.43530200       0.62764700 
I       9.37857701      22.01252912       2.19001443       53      -0.03248300       0.51513100       0.10244400 
I       8.86986926      23.01942873      21.47020149       53       0.09085400       0.02528900       0.10620700 
I      13.96811105      11.19107857       1.75470752       53      -0.19357900       0.04020500       0.13877000 
I      13.47121821      11.91198027      21.16167589       53      -0.01913300       0.15788300       0.09720900 
I      14.00368772      22.59467379       2.23352027       53       0.35598700      -0.03501900      -0.24874700 
I      13.11121944      23.39307031      21.23685618       53       0.46859100      -0.40635800       0.07496500 
I      18.81829355      10.94628539       1.95896199       53       0.34980700       1.07657200       0.43997400 
I      18.29292226      11.68899310      21.28737571       53       0.34170500       0.25176400      -0.04838300 
I      18.55535016      22.59978636       2.62617188       53       0.57055400       0.23716000      -0.20684300 
I      18.35388549      23.91302592      21.82140713       53       0.51089500      -0.64917000      -0.05218900 
I       1.00259222       6.58802440      11.45772520       53       0.14700800      -0.79680800       0.73868500 
I       1.38057005       6.27631826      30.49779555       53       0.04183600       0.22541400       0.21147400 
I       1.09637737      17.63788502      12.55254580       53      -0.26978000       0.07001700      -0.27462900 
I       0.96561138      17.80149664      30.69792924       53       0.32521800       0.21367600       0.42169900 
I       5.99458960       6.13273114      11.23900314       53       0.40346600       0.70101600       0.22143800 
I       6.41541964       6.47444362      30.65873697       53      -0.06796400      -0.31826500       0.11196600 
I       5.47181532      18.19380700      12.49545798       53       0.41497700      -0.36699800      -0.57782600 
I       6.56109344      18.00728313      30.61076187       53      -0.24468200      -0.15688200       0.08524400 
I      11.05974657       5.92703847      11.84137851       53       0.13831100       0.26814000      -0.04352700 
I      11.36161933       6.68799949      30.40699712       53      -0.25147500      -0.13834600      -0.01529700 
I      11.48804598      17.46969899      11.58742414       53      -0.06414300      -0.38754800       0.47866700 
I      11.15723393      17.61713471      30.87449601       53      -0.03533900       0.10435700      -0.13279500 
I      16.55663093       6.35929577      12.09015329       53       0.65201600       0.40409000       0.05746200 
I      16.41246956       6.67210608      30.76663608       53       0.81268700       0.56608200       0.03163500 
I      15.93379290      17.55098158      12.11541512       53       0.29644400      -0.15825700      -0.33684800 
I      15.80500533      17.54150492      30.82564047       53       0.33066400       0.28569600       0.15790000 
I       2.91761639       4.98068456       7.43065153       53       0.67223600       0.57318900      -0.67106000 
I       3.88926615       5.96878136      26.63907288       53      -0.20026200      -0.00032700       0.02065200 
I       3.13754571      16.82003206       8.19622407       53       0.23509200      -0.07811900       0.05952400 
I       3.24011368      17.02284730      26.86733345       53       0.12304200       0.31186800      -0.20542000 
I       8.46360578       5.54506667       7.53138129       53       0.20364800       0.28367900      -0.72128200 
I       8.90974404       5.79060628      26.50454385       53      -0.07018000       0.02586700       0.20089200 
I       8.80131913      16.47021308       7.91865330       53      -0.19105000       0.28745800       0.24357800 
I       8.33575021      17.53618924      26.39293016       53       0.39341800      -0.45695400      -0.00571600 
I      14.11200952       6.19739659       6.79695019       53      -0.15213100       0.11963700       0.37228500 
I      14.13173195       6.64929074      26.42389117       53      -0.22715000      -0.66509300      -0.07607300 
I      14.00724146      16.70440275       7.57551603       53       0.15373200       0.18791200       0.06245200 
I      13.23112109      17.09647289      26.80910847       53       0.35145800      -0.01214800       0.07870600 
I      18.91346226       5.94437215       7.89554311       53      -0.30340600      -0.38288500      -0.30135800 
I      18.76720905       6.37666553      26.44888288       53       0.12155700      -0.03191500       0.06955100 
I      18.46210833      17.21473530       7.90591981       53       0.30389800      -0.27806700      -0.10784200 
I      18.33152378      17.01274174      26.77821240       53       0.04464900       0.02902900       0.17411800 
I       1.28091250       3.49615885       3.48315628       53       0.01400500      -1.12570800       0.14040700 
I       1.12943435       3.76578189      23.41346905       53       0.00127800       0.13905900       0.10484300 
I       1.70875828      14.73627132       4.55794001       53      -0.08717000      -0.13294600      -0.13833500 