320
Lattice="20.9986312716 0.0350721301991 -0.0143432738574 0.0697504497329 22.2293637664 0.0660515543335 -0.192731148481 0.0695770476893 38.3478598475" Properties=species:S:1:pos:R:3:Z:I:1:forces:R:3 energy=-101595.506888 stress="-1459.135779 -91.497887 -372.742023 -91.497887 1882.668956 -271.831582 -372.742023 -271.831582 1528.524942" pbc="T T T"
Cs       3.87697825       0.06430500       6.08276089       55      -0.06378900       0.23020300      -0.00542000 
Cs       3.48144610       0.87355876      25.24521598       55       0.45615000       0.45444800       0.22636500 
Cs       4.23366835      12.15078364       7.01658521       55      -0.00425100       0.13638300      -0.27214400 
Cs       4.30422418      11.86548505      25.26938572       55      -0.22807300      -0.04269600      -0.15139100 
Cs       9.16691366       0.47414177       7.24202562       55       0.05231000       0.09171500      -0.32325500 
Cs       9.16266531       0.97156643      25.36327770       55      -0.13357800      -0.17211100       0.03860400 
Cs       9.00219947      12.09245788       6.46699057       55       0.17220500      -0.70995400       0.00460500 
Cs       8.82693075      12.42867922      25.50335417       55       0.16590700      -0.16751000       0.05336400 
Cs      14.15004339       0.94835980       6.79097139       55       0.38054400      -0.01193800      -0.27883100 
Cs      13.96408328       1.09844345      25.59975944       55      -0.12676500      -0.11446900      -0.17069700 
Cs      14.82714495      11.93805381       6.05668686       55      -0.18318500      -0.07426500       0.03351300 
Cs      14.46859862      12.23000435      25.62638188       55       0.06542700       0.43235800       0.05758500 
Cs      19.57618715       0.73542105       6.02943349       55      -0.06275200       0.20783900       0.44238800 
Cs      19.04575134       0.65910535      25.47904864       55       0.45207800      -0.07856200       0.19012600 
Cs      20.30323685      11.82133647       6.62701558       55      -0.13946000       0.34958500      -0.19962800 
Cs      19.86348404      11.88069011      25.33303889       55      -0.02753700       0.18687100       0.17052600 
Cs       0.87345012      10.03821923      13.62555862       55       0.15673300       0.14818400      -0.36782000 
Cs       1.90164694       9.89416392      32.09303817       55      -0.36662500       0.17725600       0.06927700 
Cs       1.52110780      20.93227783      13.09338566       55      -0.34944400       0.28984700      -0.14691300 
Cs       1.83209914      21.45762439      31.72808328       55      -0.35340600       0.02219300       0.29212300 
Cs       6.21885224      10.29573798      13.55336592       55       0.53520900       0.09959300      -0.35766100 
Cs       6.32931665       9.65702931      32.24019592       55      -0.02621500       0.23590000      -0.11536100 
Cs       6.13465301      21.17813686      12.81808589       55       0.32536800      -0.00391400       0.07944000 
Cs       6.40318488      21.90374084      32.27050681       55       0.26275800      -0.19272200      -0.31120200 
Cs      11.37748260       9.60636144      13.25233788       55       0.07667400       0.15801700      -0.02046700 
Cs      11.35083405      10.17484542      32.34447740       55       0.68334900      -0.04080300       0.25207600 
Cs      11.50141597      22.07475077      13.20927045       55       0.22315600      -0.21890100      -0.17337400 
Cs      12.17994548      20.90443322      32.04868903       55       0.20518800      -0.11338900      -0.18612400 
Cs      17.09170147      10.75539337      13.06017917       55      -0.03044000       0.00077100      -0.00325200 
Cs      16.65336826      10.65690623      31.81238488       55       0.20410400      -0.45376200       0.46161700 
Cs      17.17104126      21.84120120      13.08323746       55      -0.84870600      -0.29551500      -0.45846000 
Cs      17.01493868      21.73683198      31.79921572       55      -0.15757200      -0.43945600      -0.03013100 
Cs       3.94383414       5.48557469       3.01553570       55      -0.24298200       0.27354800       0.29961100 
Cs       3.36795029       6.55862519      22.26196126       55       0.18952200      -0.09926800      -0.02803600 
Cs       3.39473255      17.50488302       4.05277554       55       0.32876700       0.05257300      -0.17851700 
Cs       3.96935140      18.19517985      21.81607984       55      -0.31891100       0.11471800       0.22109900 
Cs       9.58776042       5.77618398       2.59675201       55      -0.10905900      -0.18613200       0.37324300 
Cs       8.90935522       6.20306639      22.46560734       55      -0.02307000       0.13248000       0.07978100 
Cs      10.28248526      17.59266102       3.43518641       55      -0.30249700      -0.29472900      -0.17286100 
Cs       9.12288730      17.62849466      22.77977632       55      -0.37264900       0.34698700      -0.29911100 
Cs      14.15737433       6.46183238       3.10206959       55       0.11462600      -0.12495700      -0.09923100 
Cs      13.71429764       6.19351465      22.79341972       55       0.34109600       0.06150400      -0.13900800 
Cs      14.83240551      17.66050300       3.64765823       55       0.01240400      -0.09650900       0.04726200 
Cs      14.78950104      18.50198447      21.87050824       55      -0.36393400      -0.34654900       0.11532400 
Cs      19.45108489       6.56404348       3.02559407       55       0.10775600      -0.13307300       0.10305200 
Cs      19.06148079       6.25916508      23.17294666       55      -0.01599800       0.20123700      -0.41929500 
Cs      19.57870043      17.73313652       3.14155512       55      -0.04691900      -0.04413800       0.03083300 
Cs      19.97595720      17.71572737      22.81997948       55       0.00773100       0.01472400       0.04899800 
Cs       1.23704913       4.49214289      15.60896776       55      -0.05958600       0.08537300       0.43563900 
Cs       0.90045488       5.07287574      34.76609648       55       0.07968400      -0.19574700       0.32257900 
Cs       1.09611819      15.30200749      16.25509615       55       0.20770600       0.54986100       0.01801300 
Cs       0.52907993      16.04002957      34.90609565       55       0.64282000      -0.03620600       0.26550700 
Cs       5.79799295       4.62634041      15.28428183       55       0.63495000      -0.20916000       0.28991500 
Cs       6.60804477       4.70451861      35.03873464       55      -0.03870500       0.01968200       0.11950300 
Cs       6.69571099      15.97407203      15.51376272       55       0.01611700      -0.13148900      -0.08030100 
Cs       6.73569688      15.66222621      34.67082773       55      -0.01697800       0.03532000       0.22547800 
Cs      12.07509783       4.90902961      15.83394855       55       0.02070400      -0.06419900       0.06151800 
Cs      11.46579752       4.81590122      34.54903055       55       0.35741400       0.20609900       0.37590500 
Cs      11.74859118      16.15975114      15.68152502       55       0.13366400      -0.06585100       0.29623800 
Cs      11.74584077      16.18508873      34.93790553       55       0.19595100      -0.17869800       0.15607700 
Cs      17.15358615       4.81261912      16.13313497       55      -0.30654700      -0.24169600      -0.22338900 
Cs      17.06937230       4.52244751      34.69054229       55      -0.05269600       0.00781600       0.19499900 
Cs      17.62783970      16.22476437      16.77204421       55      -0.44461500      -0.33405200      -0.39453800 
Cs      17.63687541      15.33158925      34.20889618       55      -0.77774000       0.40093700       0.44551900 
Pb       0.93185736       1.37733557       0.48406956       82      -0.06835800       0.78098600       1.03154600 
Pb       1.29764270       1.96372278      20.51828567       82      -0.22767700       0.20835900      -0.11902900 
Pb       1.57486347      13.03153023       1.47665106       82       0.46913100      -0.41811900       0.00894300 
Pb       1.26917552      12.67832071      20.51172773       82       0.26862800       0.66934900       0.35668100 
Pb       6.60179603       1.11412693       0.82549401       82      -0.31387700       0.77436300       0.44920400 
Pb       6.39747515       2.21221209      20.24584390       82       0.99926800      -1.14517000       0.38753000 
Pb       6.55765581      13.31426748       0.94481864       82       0.12879500       0.08377500       0.49012600 
Pb       6.12808045      13.81015345      20.36367059       82       0.39587200      -1.21822600      -0.35246900 
Pb      11.73463441       1.00889278       0.92471654       82       0.20376800       0.86164200       1.04247200 
Pb      11.19611033       2.23929414      19.65193459       82      -0.00478700      -0.48942500       0.53973800 
Pb      11.93346701      12.80577643       0.75335562       82      -0.34450600       0.28438800       0.79674300 
Pb      11.24398079      13.88458158      20.27837768       82       0.53747900      -1.09446100      -1.48483900 
Pb      16.31391078       2.06491332       1.07851475       82       0.72251100      -0.04876700      -0.54514400 
Pb      17.06634926       2.35244942      20.34312036       82      -0.30141700      -0.50800900       0.10342200 
Pb      16.82902976      12.79087326       0.68935460       82       0.07244600       0.56076300       0.60440800 
Pb      17.04925035      13.35634046      20.72154003       82      -0.09594200       0.64179300      -0.06858800 
Pb       3.74031237       9.43595215      17.88040395       82       0.22581800       0.05547400       0.18234200 
Pb       4.00345624       8.97748655      37.56135205       82       0.03902800       0.54507100      -0.32023700 
Pb       3.80861398      20.69214420      17.81214413       82      -0.17116000       0.06186200       0.01801200 
Pb       4.05911412      20.72941729      36.75334136       82       0.10349100      -0.73960800       0.00574900 
Pb       9.22898637       9.33032106      18.45224002       82      -0.02973000       0.42296400      -0.39456200 
Pb       8.65907026       9.51266793      37.46678317       82       0.51766400      -0.11686200      -0.26051000 
Pb       8.64542895      20.55779314      18.27154882       82       0.26723000       0.31986800       0.12684200 
Pb       9.60889249      20.31505117      37.11139359       82      -0.43644700      -0.08947100       0.53533900 
Pb      14.55186189       9.88557425      18.58050948       82      -0.39229800      -0.08883900      -0.32729300 
Pb      14.26174251       9.33089140      37.29122614       82       0.16583100      -0.37243000      -0.73963800 
Pb      14.14928920      20.84106418      18.32059444       82       0.01714700      -0.30750700      -0.57457400 
Pb      14.59659649      20.67225520      36.85515238       82       0.75640300      -0.40530000      -0.03794000 
Pb      19.25245598       9.55859440      17.81188299       82       0.03245900      -0.94814000       0.14789400 
Pb      19.78980384       9.88107833      37.40277693       82      -0.11107700      -0.36425900      -0.39405300 
Pb      19.52042168      21.13455236      17.53396025       82       0.16124100       0.07263700       0.91800300 
Pb      20.09874883      20.87789435      37.08610823       82      -0.94236000      -0.23095700      -0.31670100 
Pb       1.12131163       7.85865583       8.39497581       82       0.75165800      -1.49042100      -0.12428300 
Pb       1.28837718       7.30855769      27.57295875       82      -0.89962000       0.80883100       0.70905900 
Pb       1.21899130      18.36360442       9.32829351       82      -0.14334100       0.17453900      -0.30240600 
Pb       1.10770792      18.19387724      27.54063911       82      -0.35181700      -0.09217100       0.12835800 
Pb       5.95078522       7.23593984       8.21093775       82       0.78326800      -0.33338700      -0.82759100 
Pb       6.84394572       7.64985574      28.09309593       82      -0.54339200       0.54155600      -0.11215400 
Pb       6.80009485      17.80288175       8.46250233       82      -0.72228500       0.20565800       0.23932300 
Pb       6.18816112      18.52020109      27.53122422       82       0.70286400      -0.34689900      -0.35962100 
Pb      11.80584624       7.36910425       7.93326676       82      -0.67383000       0.27367000      -0.24636800 
Pb      11.89495504       7.52108279      27.57742646       82       0.05067400      -0.03037200       0.19910100 
Pb      12.00527635      17.97576568       8.47995012       82       0.53934500      -0.02130600      -0.37877400 
Pb      11.43087059      18.19481946      27.77671242       82       0.13050800      -0.11666700      -0.13669400 
Pb      17.35832278       7.50850069       8.47824431       82       0.00145800      -0.36149900       0.29728300 
Pb      17.23215399       7.95407918      27.61130149       82       0.49765300      -0.35349700       0.33693900 
Pb      16.94199179      18.90253901       8.68292557       82       0.52678500      -0.26994800      -0.11163200 
Pb      16.72349790      18.20216085      27.40882640       82       0.07358300      -0.07350000       0.56239400 
Pb       3.64766032       3.87833831      10.81644238       82       0.12005200      -0.59751800      -0.77935800 
Pb       3.87532153       3.66640654      29.87464315       82      -0.07568300       0.37004500      -0.31561800 
Pb       3.69067447      14.83341563      11.59440960       82      -0.20018600      -0.16891200      -0.44621000 
Pb       3.98034572      14.83932905      29.98100964       82      -0.32659600       0.14044700       0.15046400 
Pb       9.38035382       3.85961402      10.77715428       82      -0.64828900       0.35928400       0.02179000 
Pb       9.44270752       3.66118568      29.92302441       82       0.00357300      -0.44260300       0.22343400 
Pb       9.21094420      14.94444098      10.90781377       82       0.15924000       0.05908400       0.35306400 
Pb       8.85441811      14.54993149      29.91803231       82      -0.12682600       0.18085000      -0.22242000 
Pb      14.51873897       4.32243661      10.54410716       82       0.50831000       0.05025200       0.57134500 
Pb      14.18914242       4.60229915      29.84342243       82       0.55814000      -0.93530300       0.73592700 
Pb      14.24507294      14.30439733      10.61056297       82       0.37986100       0.08376700       0.42400500 
Pb      13.88768610      14.63775544      30.22717578       82       0.46804800       0.37809900      -0.22880300 
Pb      19.46725410       4.02846165      11.43494136       82       1.10923100      -0.47111200      -1.86923500 
Pb      19.43639585       3.83114266      29.80933326       82       0.33985100      -0.46342100       0.22049700 
Pb      19.52027335      14.92435037      10.95365876       82       0.61560900       0.24204600      -0.02300800 
Pb      19.70137820      14.18070317      29.80496374       82      -0.05498000       0.58879700       0.43641400 
I       4.15092528       3.83177255      19.24058316       53      -1.11671700       1.08419200      -0.42928700 
I       3.45252766       3.31932773      38.28418892       53       0.38106200       0.21090700      -0.33308200 
I       3.43434447      15.02171562      19.36037055       53      -0.14211800       0.38122700      -0.29263400 
I       3.69697858      15.36539325      38.82954774       53       0.07351800      -0.02247200      -0.10641000 
I       8.75399847       4.13813844      18.85132482       53       0.05707800       0.07475900      -0.04609800 
I       8.97180920       2.95774059      37.69250249       53       0.15232000       0.44626900       0.50684000 
I       8.69109427      15.05610459      18.77443355       53       0.12773900       0.43127700      -0.11350300 
I       9.60090764      15.31253801      38.31026190       53      -0.13443400      -0.29248700      -0.00630600 
I      13.97768281       3.90213722      19.14342579       53       0.62280000       0.32072200       0.09255700 
I      14.30611568       4.33781090      37.70394703       53      -0.21733700      -0.54458400       0.32121400 
I      14.31336409      15.36851448      19.23354993       53       0.19837100      -0.02035800       0.11919700 
I      14.81187930      15.71310508      38.58550421       53       0.08418900      -0.94081300      -0.22493900 
I      20.02624693       4.00395973      18.89989620       53      -0.26930400      -0.21612300       0.30537300 
I      19.28910440       3.93980934      38.34610389       53       0.14124600      -0.23746900      -0.05366600 
I      20.09518782      15.59902534      19.65416793       53      -0.15651500      -1.21858000       0.26786300 
I      19.73037499      14.48549383      38.75761932       53      -0.51123000       0.60053900      -0.65844600 
I       1.56341790       7.63627188       0.49879307       53      -0.21186500      -0.12223300      -0.14173400 
I       0.82139190       7.74503048      18.99142427       53       0.76044700      -0.15932700       0.11151900 
I       1.11685122      18.67396483       0.16843710       53       0.62923500      -0.34528600       0.05794100 
I       0.65782050      18.68225365      18.60722175       53       0.63757600       1.01240300      -0.16756200 
I       6.86112505       6.94968231       0.18940204       53      -0.25520400       0.06717200      -0.12381000 
I       6.74499687       7.61671819      19.45576883       53      -0.62984600      -0.07753700       0.06404800 
I       6.50265184      18.55846966      -0.11210129       53       0.09716300       0.46142500      -0.36133700 
I       6.27189760      18.33191258      18.57020773       53      -0.17145900       0.19147200       0.44187000 
I      11.80943545       7.49158041      -0.12202176       53      -0.08011600      -0.00169300      -0.10228400 
I      11.75132696       7.76061159      19.70131657       53       0.27850600      -0.13221300       0.07404500 
I      12.38962302      18.45575193      -0.16653490       53      -0.34904100       0.32865800      -0.13471100 
I      11.26280013      18.74294959      19.10678468       53       0.06847400      -0.27931800       0.25474600 
I      17.01601461       7.33529294      -0.36676099       53       0.09182500       0.44918400       0.41402400 
I      17.10059825       7.18051386      19.08834870       53      -0.07348900       0.48501800       0.45551400 
I      17.83524734      18.74332564      -0.51859224       53      -0.49777600      -0.15751300      -0.02355600 
I      17.53242888      19.00902876      19.19878805       53      -0.28870600       0.55109900       0.14371500 
I       4.09561838       9.21320678       9.61114776       53      -0.49598500       0.42720800       0.57755000 
I       3.80661985       9.60096509      28.55812992       53      -0.10773800      -0.42747500       0.15135000 
I       3.95893266      20.53237302       9.79786624       53      -0.36903000      -0.49312000      -0.21429800 
I       3.66566384      19.94017893      28.69772379       53      -0.22816800       0.61520800       0.21731200 
I       9.20358506       8.84630581       9.50931375       53       0.28952500       0.17605100      -0.25845500 
I       9.17778158       9.57610279      29.42249001       53      -0.27817200      -0.28521000      -0.77160900 
I       9.45528126      19.36271043       9.71878969       53      -0.37086400       0.64794100       0.45010700 
I       9.01281774      20.30872826      28.35698669       53      -0.00632200       0.20735500       0.35685500 
I      14.56544888       9.15442871      10.79617523       53      -0.14095700      -0.12066100      -0.58380400 
I      14.47715904       9.31043414      28.71258100       53      -0.37061800       0.04294200       0.29977800 
I      13.95233059      20.05107058      10.01641340       53      -0.00165100       0.30428900      -0.08845900 
I      14.08894633      20.34516358      28.02322849       53       0.27426100      -0.30290900       0.56283900 
I      19.89644819       9.35893553       9.80699387       53      -0.63782600       0.64345400       0.58301500 
I      20.03661763       9.43281629      29.46692481       53      -0.52216800       0.02068000      -0.54266400 
I      19.52262472      20.65610060      10.13971061       53      -0.02907800      -0.37304200      -0.18824900 
I      19.21570519      20.24166972      28.66187971       53       0.27979400      -0.08290000      -0.16671200 
I       0.61671899       1.51705478      10.07360683       53       0.69252300       0.66923600      -0.07406400 
I       1.38086733       1.88864074      28.68954673       53      -0.03221300      -0.06368500      -0.08908500 
I       1.24621751      12.70364994       9.95058957       53       0.41979500       0.28071400       0.38710600 
I       1.41131192      13.01072825      28.46402798       53       0.49384100      -0.03312000       0.03123700 
I       6.34038200       1.59212533       9.59155542       53       0.21741300       0.32468200       0.07672800 
I       6.46454100       1.71647654      28.48462626       53       0.00699100       0.15547900       0.27083700 
I       6.88302385      12.92482320      10.14212257       53      -0.49724000      -0.31905100       0.11915000 
I       6.08527730      12.81706741      28.57625357       53       0.40054800       0.15171100       0.26301100 
I      12.22029175       2.27303129       9.82720044       53      -0.34377400      -0.59227500      -0.26186700 
I      12.03872623       1.50850063      28.89636001       53      -0.23874700       0.80288000      -0.02616200 
I      11.49129702      12.80200755       9.82666978       53       0.03334600      -0.31142200      -0.17986600 
I      11.64701205      12.73091480      28.96497917       53       0.05531300      -0.16119300      -0.20184600 
I      16.84532119       2.15258581       9.68154272       53       0.11292400       0.05413500       0.03051800 
I      16.73323035       2.21699840      28.55876085       53      -0.08913500      -0.09111400       0.18829300 
I      17.58566749      13.45262769       9.11022581       53      -0.90038900      -1.07336500      -0.15541100 
I      16.96395326      12.79024755      28.76386413       53      -0.32269400      -0.12400100      -0.29324300 
I       1.51952002       0.93029361      16.95829576       53      -0.01886500      -0.50539100       0.17308400 
I       0.68692697       1.19887875      35.65971765       53       0.48174800      -0.23360800      -0.34719300 
I       0.77227421      11.61888018      17.24052430       53       0.46499000      -0.09714600      -0.05602200 
I       1.95064033      11.46362581      36.50937199       53      -0.32597800      -0.12540400       0.04493000 
I       6.30828905       0.85436231      17.00700084       53      -0.12728400      -0.49127500       0.05455900 
I       6.39363837       0.60194117      35.86744285       53      -0.10346700      -0.41726900      -0.05324500 
I       6.69896281      11.45413571      17.34389385       53      -0.35628400      -0.04831600      -0.07689200 
I       6.44001088      11.52872575      36.14149747       53      -0.19052000      -0.08005400       0.17638300 
I      11.43460813       0.11588271      16.98842384       53      -0.01591800       0.61515000       0.31116000 
I      11.53921866       0.54305133      36.14967243       53       0.60871800      -0.56288700      -0.67206000 
I      12.01745000      11.87012721      17.17455213       53       0.05901900      -0.31797600       0.40472600 
I      11.31370721      11.57583992      36.18132249       53      -0.00250600      -0.14185100      -0.07388900 
I      16.05578722       0.81924736      16.83785864       53       0.40140900      -0.13865400       0.47990200 
I      17.07457018       0.49991809      36.28565933       53      -0.35747400       0.20001200      -0.22547300 
I      17.08829506      11.70373855      17.18495521       53      -0.59049200       0.67656500       0.08628400 
I      16.81196532      11.42896107      35.82116226       53       0.15483900       0.11841200       0.38515000 
I       4.50963874      11.24282234       2.26335942       53      -0.06274000      -0.38090000      -0.30732300 
I       4.28588221      10.85702159      21.02334211       53      -0.34973400       0.00187100       0.04776900 
I       3.88773858      21.67295630       1.56506835       53      -0.07941800      -0.26067100       0.29511300 
I       3.92662869      22.08259356      21.11309856       53       0.13088400      -0.05452800       0.01267600 
I       9.35435604      10.79312503       2.05640095       53      -0.01771200       0.44593900      -0.35338600 
I       9.17319687      11.39452823      21.45626747       53      -0.15849400      -0.25911100      -0.52843600 
I       9.26167683      21.70576585       2.17047233       53       0.08457700      -0.46649600       0.12576800 
I       9.46969870      22.20037951      21.41959816       53      -0.29087700      -0.18593700      -0.25913200 
I      14.53757816      10.46014192       2.04132960       53       0.04152500       0.38740700      -0.00965000 
I      14.66036456      11.48833769      21.69678342       53      -0.13794200      -0.08761600       0.00451200 
I      14.63300047      21.45360481       1.95149794       53      -0.20061500       0.17725500      -0.20089100 
I      14.60479234      22.47060153      21.29646182       53       0.04053500      -0.01126700      -0.08637600 
I      20.08647176      10.92579953       2.37148709       53      -0.21983300      -0.45840900      -0.16739000 
I      19.56112520      11.28968998      21.28516561       53      -0.47100500      -0.66242800       0.13207400 
I      19.35118233      22.07763176       1.87459100       53      -0.22797400      -0.21260800       0.04389800 
I      19.98741114      22.13675767      21.11365323       53      -0.45558000       0.22131700      -0.06585600 
I       1.53240922       5.75202469      12.21733660       53      -0.46876700       0.49833900      -0.42758200 
I       1.14634211       5.85229286      31.01104807       53       0.17588100      -0.11228600      -0.55753700 
I       1.08939520      16.74622924      12.47543823       53       0.40770200       0.08784700      -0.04737800 
I       0.92271301      17.03932779      30.75137747       53       0.22116900      -0.18355000      -0.39141400 
I       6.90218060       6.18605523      11.40791466       53      -0.33422100      -0.49731800       0.19207100 
I       6.75262134       5.40568545      31.06511713       53       0.09600600       0.30726300      -0.18292700 
I       6.33645643      17.01543382      11.76323948       53      -0.08448700      -0.09315500       0.34021800 
I       6.85949445      17.06796733      30.88923000       53      -0.25057200      -0.18440400      -0.18428800 
I      11.73758537       5.68338046      12.07732385       53      -0.11480800       0.36700300      -0.25718000 
I      11.46047428       6.40355049      30.84860483       53       0.04030100      -0.55560700       0.01122900 
I      12.28709018      16.60463602      11.63810588       53      -0.05484600       0.30308200      -0.11916300 
I      11.34289307      16.65966715      31.04629674       53       0.05963300       0.07558300       0.00646600 
I      17.46569103       6.24014518      11.71273874       53      -1.17678500       0.58100400       0.34570100 
I      17.50619816       6.14386317      30.73533673       53      -0.76521800       0.21763200       0.17576700 
I      17.30420045      17.10569272      11.47117925       53      -0.56023500       0.11823000       0.50663500 
I      17.24604809      16.69404880      30.65110408       53      -0.26205800      -0.07536700       0.03667100 
I       3.58979522       5.08434743       7.31804257       53      -0.02802200       0.08864300       0.27505100 
I       3.70933817       5.75764250      26.90961236       53       1.32160300      -1.04448300      -0.43756000 
I       3.58799435      16.21881543       8.08238311       53       0.11844800      -0.06778700       0.21482200 
I       3.92622130      16.32954099      26.51078871       53      -0.29458000      -0.09858200       0.13514000 
I       9.57223049       5.21939107       6.95440700       53       0.12298300      -0.04238100       0.34588200 
I       8.86725195       5.49397216      27.10474607       53       0.63317600      -0.45308600      -0.53067700 
I       8.92089481      15.65994378       7.65827410       53       0.50125900       0.06141600      -0.29352400 
I       8.89944727      16.01622544      26.84393059       53      -0.02533000       0.39569800      -0.21702000 
I      14.97713876       5.86358175       6.95871384       53      -0.32088500      -0.32862400       0.26067500 
I      14.71913950       5.33064310      26.71631191       53      -0.35155700       0.48313700      -0.29242200 
I      14.96132888      16.43444192       7.49007725       53      -0.25780800      -0.15171700       0.00872700 
I      14.13887985      16.00423458      27.02307684       53      -0.14082300       0.03469900      -0.11505900 
I      19.66092852       5.17236151       7.59818715       53       0.00992600       0.50010900       0.24151600 
I      19.20137550       5.21109284      26.78435655       53       0.26295500       0.42951300      -0.23207200 
I      19.48567964      16.58816910       7.82251195       53       0.29255600       0.27020100       0.17488900 
I      19.38704626      15.93869696      27.13724328       53       0.22757300       0.48440200      -0.91270900 
I       1.03776422       2.29326292       3.95626373       53       0.59237500       0.37501000      -0.39212300 
I       0.77374081       3.52429103      23.48982531       53       0.25702900      -0.24074400      -0.24554200 