320
Lattice="20.3842909881 0.159220747162 0.159315881093 0.189187935494 22.9191377215 -0.187432662192 0.130144263328 -0.372956373192 38.9628939629" Properties=species:S:1:pos:R:3:Z:I:1:forces:R:3 energy=-101595.908532 stress="2545.461855 35.138349 -75.073726 35.138349 -479.281574 603.596248 -75.073726 603.596248 -1170.107683" pbc="T T T"
Cs       4.11179200       0.65111126       6.40847146       55       0.11467200      -0.25554400       0.11560800 
Cs       3.79401645       0.87038556      25.59104631       55       0.02646000      -0.17787900       0.29497000 
Cs       4.14119571      12.71565352       6.58896353       55       0.04579600      -0.14945300       0.07085000 
Cs       4.11677660      12.13939698      25.85748300       55       0.16789700      -0.17804700      -0.20282800 
Cs       8.82891494       0.93366845       6.43632584       55       0.11408200      -0.08065200       0.04196500 
Cs       8.93057025       0.68326026      25.47556731       55      -0.11147900       0.14492800       0.19431300 
Cs       9.50653302      12.12658944       6.74830555       55      -0.13635900       0.29164200      -0.70579900 
Cs       8.74152345      12.16677673      25.57320400       55       0.26275200       0.02258500      -0.05991400 
Cs      14.38027777       1.80913270       6.49884870       55      -0.41343400      -0.61642100       0.28898200 
Cs      13.91867121       0.83433503      26.12909247       55       0.19113300       0.13058300      -0.16793700 
Cs      14.62384991      13.00891588       6.29783279       55      -0.19996400      -0.32515100      -0.06256700 
Cs      14.70194859      12.40733699      25.93397173       55      -0.45314500      -0.16275000      -0.03455000 
Cs      18.84751733       0.36166471       6.70876747       55       0.08541300       0.18532400      -0.08713800 
Cs      19.47801902       0.67776026      25.73262756       55      -0.23411100      -0.21940500       0.10508900 
Cs      19.54807941      12.32065116       6.58046943       55      -0.20824800       0.09000000       0.19049900 
Cs      19.37498898      12.27676724      25.47920122       55      -0.04205200      -0.04531100       0.22913000 
Cs       1.16287327      10.32358295      13.41825105       55       0.11562700       0.18654900      -0.11734500 
Cs       1.79980957       9.91330481      32.43385017       55      -0.10683800      -0.20739900       0.07034200 
Cs       1.34111139      21.44078675      13.00657935       55       0.16525900       0.17100400       0.32902500 
Cs       2.68761615      22.11121752      33.09385175       55      -0.14062300      -0.14084400      -0.48771700 
Cs       7.27117104      10.43335705      12.97771091       55      -0.87346100      -0.15489700       0.16730000 
Cs       6.18009776       9.84288792      32.58613869       55       0.19434400      -0.06759100       0.01562500 
Cs       6.72241135      20.98494363      13.14210548       55      -0.20615500       0.29561100       0.10636600 
Cs       7.06333790      21.69130052      31.95451943       55      -0.51069200       0.18672900       0.72255200 
Cs      11.00036365      10.45278947      13.20362681       55       0.85593300      -0.09786600       0.13192600 
Cs      11.60712786      10.55680012      32.97913487       55      -0.26623700      -0.36816800      -0.29673900 
Cs      11.68362495      21.74476475      12.62429985       55      -0.30891500       0.18437400       0.35023400 
Cs      12.15041683      20.87144571      32.28508161       55      -0.22873600       0.53104600       0.01591600 
Cs      16.65094281      10.93422570      12.42471932       55      -0.45461200      -0.34560100       0.82153200 
Cs      17.05251359       9.93703602      32.88715186       55      -0.27647800       0.37028400      -0.43273700 
Cs      16.04474626      22.55969141      12.95702085       55       0.43225700       0.16564600      -0.06824800 
Cs      16.83799075      22.20474149      31.54712039       55       0.21558500      -0.12744600       0.37876900 
Cs       3.72610650       6.14426467       3.44673265       55      -0.03150400      -0.02880400       0.07881600 
Cs       3.02633998       6.28998058      22.46598031       55       0.46521600       0.07924900       0.30481600 
Cs       3.93617581      17.97368185       3.59932747       55       0.00441800       0.16338100       0.23273800 
Cs       3.96895938      18.00982543      22.23285304       55       0.38534600      -0.27911100      -0.17065500 
Cs       9.17671100       6.16419785       2.78901533       55      -0.09859800       0.24778400       0.23548300 
Cs       8.39539275       6.15534725      23.35945624       55       0.39630700       0.02712100      -0.05899100 
Cs       9.58501224      18.32924544       2.97260604       55      -0.18959200      -0.28166300       0.00134000 
Cs       9.51795746      18.52478958      22.79638672       55      -0.45881200      -0.41330200       0.37337100 
Cs      13.66748627       6.69849928       2.92963478       55      -0.13440500       0.14294000       0.35775600 
Cs      14.20840735       6.15968473      23.16833008       55      -0.35489900       0.41981400      -0.00898100 
Cs      13.86968142      18.41768341       3.62905526       55       0.30291300      -0.00139100      -0.32133300 
Cs      14.09384937      18.96981356      22.83745531       55       0.31923500      -0.38339400       0.00102600 
Cs      18.71162530       7.52790093       2.68035669       55       0.12394500      -0.33601500       0.35159800 
Cs      19.07563072       6.60776660      23.37378592       55       0.09682100       0.14195300      -0.16656400 
Cs      19.26567173      17.74140347       2.65048882       55       0.00355300       0.51101100       0.06511600 
Cs      19.63736940      18.00077516      22.89943559       55      -0.01903200       0.06882700      -0.21871800 
Cs       1.32231878       4.83058949      16.28863621       55      -0.18265400      -0.10085900      -0.47580500 
Cs       1.03333326       4.72969734      36.03839537       55       0.05381600      -0.03345000      -0.14560300 
Cs       1.17502741      16.10927007      16.11657342       55       0.19520100      -0.05959100      -0.06811200 
Cs       1.80036156      16.90977923      34.86029336       55      -0.92306500      -0.24452100      -0.00410400 
Cs       6.31687108       4.33418482      15.81175386       55       0.01833900       0.00977000      -0.00409800 
Cs       7.15294988       5.21365724      35.91894270       55      -0.50638300      -0.84396800       0.01140700 
Cs       6.74088928      16.29907062      15.39726368       55      -0.16025000       0.02374300       0.64671000 
Cs       7.29133525      16.15732106      35.62131463       55      -0.36866300      -0.34253700       0.04396700 
Cs      12.07044161       5.53749523      16.08096615       55      -0.30503200      -0.14984600       0.09064200 
Cs      11.93258313       4.15212461      35.77419381       55      -0.43148400       0.12940900      -0.18895300 
Cs      11.93409482      16.71868130      15.89373317       55       0.46767100      -0.47345200       0.08031900 
Cs      12.09757464      16.05438406      35.66475634       55      -0.07522300       0.17642200       0.08652200 
Cs      16.59039163       4.96245244      16.25527556       55      -0.14882200       0.17005300       0.14766200 
Cs      16.47168748       4.37716445      35.96912010       55       0.18848700       0.19225500      -0.17147900 
Cs      17.08809158      16.28300344      17.11411019       55      -0.13807900       0.07315100      -0.33187800 
Cs      16.97984276      15.55793130      35.15240994       55       0.05518600       0.10966500      -0.07394700 
Pb       1.31825520       1.58441799       0.97517402       82      -0.56777600      -0.48651700       0.36005200 
Pb       1.27669945       1.70643719      20.46687979       82      -0.00976300       0.32011300      -0.09471800 
Pb       1.09010417      13.55481842       1.27729534       82       0.54280200       0.50481900      -0.12201600 
Pb       1.36911631      12.67133156      20.95371879       82       0.71270700      -1.07477200      -0.37910700 
Pb       6.19279134       0.87167353       1.01941025       82       0.15028800      -0.15780500       0.07992000 
Pb       6.29960688       1.81333114      20.43477365       82       0.00869800       0.37357100      -0.42913200 
Pb       6.24259343      13.61021146       1.30020485       82      -0.05101700      -0.39347400      -0.91141200 
Pb       6.48703327      13.57572489      20.16617188       82      -0.08534100       0.29552500       0.43022100 
Pb      11.35020457       1.42789026       1.53191451       82      -0.00755900      -0.75959800      -0.57736400 
Pb      11.21888942       1.91236869      20.36659921       82       0.27171100       0.01703300       0.04691300 
Pb      11.61342238      13.29095244       1.60155151       82      -0.31681200       0.06487400      -0.54429600 
Pb      11.64508839      13.72288558      20.52237318       82      -0.10467000       0.12000500       0.54619600 
Pb      16.11038972       2.41952245       1.06759298       82       0.17433200      -0.49141800       0.54003200 
Pb      16.71625173       2.11012077      20.92552465       82       0.38914200      -0.00385800      -0.43507600 
Pb      16.57781304      13.20615779       1.20656483       82       0.03633400       0.22455400      -0.35431200 
Pb      16.87881053      13.78693058      21.26278698       82      -1.09076700      -0.86448700      -0.28560800 
Pb       4.07605824       9.20343109      18.34198921       82       0.01026000       0.81411600       0.06787200 
Pb       4.18754057       9.41298814      37.95987915       82      -0.18710000      -0.33332900      -0.12549700 
Pb       3.97756848      21.24704388      17.80700511       82       0.45081700      -0.48308800      -0.08611200 
Pb       4.27250040      20.28959927      37.31456584       82       0.25554200       0.22132900       0.48581300 
Pb       9.21543156       9.40212615      18.74427610       82      -0.16372100      -0.29668400      -0.65131600 
Pb       8.76294845       9.45851443      37.63918372       82       0.46518300      -0.15483500       0.69754000 
Pb       8.94067431      20.78856211      18.46303407       82      -0.08609300      -0.08877700      -0.68469900 
Pb       9.38481282      21.04196858      37.44481673       82       0.21934200      -0.24347900      -0.34943000 
Pb      14.35433966      10.14573895      18.62602463       82      -0.19580500       0.19368500      -0.17591400 
Pb      14.30547532       9.37964736      37.26993129       82      -0.33313600      -0.03382100       0.44931800 
Pb      14.09509134      21.30753025      18.31951460       82      -0.35568600       0.32047500      -0.70604600 
Pb      15.03144653      21.19071205      37.24341506       82      -0.79712500      -0.25696900       0.23251800 
Pb      19.20352836       9.52575531      18.31628736       82       0.16052300       0.41165100      -0.07273800 
Pb      19.50866051       9.44804552      38.19391490       82      -0.52611400      -0.60542500      -0.31249200 
Pb      18.96994633      21.43240451      17.67287777       82       0.19552000      -0.16494300      -0.14600000 
Pb      19.45082326      21.30850668      37.42398345       82       0.19174300       0.18124300       0.03893000 
Pb       1.40724516       7.55787962       8.27620980       82      -0.10532400       0.74784600       0.71642900 
Pb       1.46762907       6.90222493      27.91318612       82       0.42999300       0.43372500      -0.62704700 
Pb       1.63202991      19.11059715       9.01195472       82      -0.56722400      -0.54085300      -0.26382500 
Pb       1.46313791      18.56000481      27.73671268       82      -0.05194600       0.51252300      -0.03580600 
Pb       6.71857776       7.24914388       8.42054052       82      -0.43552600      -0.96598100       0.54921400 
Pb       6.65880856       7.40730352      28.44498689       82       0.18484800      -0.61665500      -0.43251000 
Pb       6.66540626      18.45825855       8.35184964       82       0.25182600       0.28946300       0.01922900 
Pb       6.57741887      18.68793904      27.97454333       82      -0.31838300       0.18757100       0.04447400 
Pb      11.43951965       7.45676793       8.54799699       82       0.41932200      -0.35045000      -0.32859400 
Pb      11.71093884       7.46572725      28.22343146       82      -0.31116500       0.31885700       0.07059700 
Pb      11.81283356      18.64980288       8.29362140       82       0.06660500       0.09705900       0.74729300 
Pb      11.42135429      18.47628695      28.08954875       82       0.18941300       0.01526300      -0.10641300 
Pb      17.12882145       7.48485544       8.78742818       82      -0.58187800       0.66360000       0.24732700 
Pb      17.04065739       7.64080923      28.42022070       82      -0.52730400       0.29927000      -0.04569800 
Pb      16.99242344      19.21995203       8.70226554       82      -0.40985400       0.01607700       0.10577100 
Pb      16.86065981      18.40530031      27.70576593       82       0.29008300       0.16347600      -0.01573300 
Pb       3.76296097       3.28880091      10.77937693       82       0.35149000       1.13989800       0.69087300 
Pb       3.76776366       3.51106618      30.55736788       82       0.25528800       0.10162100       0.02979200 
Pb       3.81073911      14.73303230      11.25293064       82       0.43406000       1.23836800       0.33534100 
Pb       3.65773343      15.23114834      30.54356405       82      -0.43371600      -0.22307300      -0.73909200 
Pb       9.06577961       4.13689691      11.36972793       82       0.26974300      -0.52617300      -0.43564300 
Pb       9.12156991       3.49462369      30.65159438       82      -0.15488100       0.50354100       0.02983800 
Pb       9.40060714      15.37268463      10.84443182       82       0.01241800      -0.45092800       0.22827000 
Pb       8.58259333      14.63563920      30.27239367       82       0.28560400       0.08600400      -0.09286900 
Pb      14.29588248       4.51143606      10.84293372       82      -0.31479400      -0.42220900       0.05323500 
Pb      13.94331090       3.97088715      30.40881886       82       0.36366300       0.72903000       0.52618500 
Pb      14.31007416      15.06642759      10.50063974       82       0.09547900       0.01300800       0.51127600 
Pb      13.85224055      15.16877080      30.72128364       82       0.30147700       0.29271100      -0.09317000 
Pb      19.27035002       4.24147314      11.36636165       82      -0.05213500      -0.14913900       0.53702000 
Pb      18.87436287       3.71291425      30.28034310       82       0.24308000       0.19935800       0.17417600 
Pb      19.18186082      15.42720578      11.09207276       82       0.16177000       0.05718700       0.00551800 
Pb      19.23305647      14.53645946      29.99792914       82       0.33213800       0.50549600       0.07877200 
I       3.54040716       4.03762622      19.05521874       53       0.65202800      -0.53564000       0.56312300 
I       3.39928486       3.40156075      39.09170635       53       0.68240400       0.12910900      -0.01629900 
I       3.94673777      15.46194639      19.06629401       53      -0.02336800      -0.38713800       0.21685200 
I       3.93779518      15.46137977      39.37910178       53       0.26048700      -0.58705000      -0.05160100 
I       9.14255583       3.99043143      19.18961372       53      -0.04117600      -0.00928200       0.23468100 
I       9.13974781       2.89435159      39.24934432       53      -0.71477600      -0.00132200      -0.70656700 
I       9.01394835      15.95363409      19.31859442       53       0.04351200      -0.55721500       0.15498500 
I       9.78846400      15.08503516      38.61502577       53      -0.23383000      -0.09501100       0.54337800 
I      14.22300675       3.83078101      19.78157154       53      -0.50021000       0.19500200      -0.14878900 
I      13.09000345       3.52784948      39.31574049       53       1.00323100       0.29032400      -0.29468700 
I      13.97604847      15.79702378      19.43584960       53       0.25271500      -0.13613100       0.30148700 
I      14.68647940      14.97818512      38.90232292       53      -0.20910400      -0.15172700       0.13580900 
I      19.28410680       4.39725652      20.36022001       53       0.25149700      -0.37663200      -0.77898900 
I      19.21734892       3.63090357      39.78023766       53       0.08403600       0.10909200      -0.30571000 
I      19.56734351      14.82414865      20.13467628       53       0.04158200       1.29359700      -0.79235300 
I      19.22490527      15.20781961      38.36221309       53       0.32123100      -0.55628000       0.56541400 
I       1.67555734       7.57885404       0.14555596       53      -0.26064700       0.30201300       0.09974600 
I       1.51565916       7.55039018      19.25900399       53      -0.85417700      -0.13398400       0.02763200 
I       1.56460609      18.81416191      -0.71991087       53      -0.38134800       0.49992900       0.25590400 
I       1.36557858      19.44748103      18.83706096       53      -0.19266800      -0.21330700       0.13292700 
I       6.19294293       7.49210653       0.31277946       53       0.02358500       0.24020400      -0.04941900 
I       6.48810902       7.81081565      20.09011596       53       0.55076500      -0.39528800      -0.02180800 
I       6.98031734      19.28568540      -0.23570320       53      -0.25349700       0.07738700      -0.17084100 
I       6.09028714      18.95281491      18.86860674       53       0.54111600       0.02143300       0.22717100 
I      11.60632079       7.86343935      -0.47385479       53      -0.10133700       0.02333200       0.06653100 
I      11.79630430       7.78231206      19.90739609       53      -0.02786900       0.07976900      -0.14215200 
I      11.64369693      19.71491819      -0.37180013       53       0.12108900      -0.30746600       0.00289000 
I      11.61718174      19.27823150      19.79328451       53       0.34937800       0.11218300      -0.25450600 
I      15.91733266       7.58049536       0.03975553       53       0.37363700       0.07348000      -0.29589400 
I      16.50441460       7.95075244      19.66735227       53       0.08974100      -0.36124300      -0.05351300 
I      17.01333095      19.41196680      -0.67926777       53       0.53970400      -0.58687200       0.15460000 
I      16.58891548      19.80708102      19.45851239       53       0.80699400      -0.78579100       0.05801900 
I       3.77189415       9.20889554      10.04891038       53       0.09994600      -0.19651600      -0.26924500 
I       3.72463872       8.86156156      29.22273187       53       0.27361800       0.47055800       0.09519100 
I       4.07901262      20.93248824       9.60818415       53       0.49092400       0.16171600       0.11964600 
I       4.25470408      20.78064822      29.49970856       53      -0.03576700      -0.29740500      -0.32279400 
I       8.85040580       9.39996734       9.03889644       53       0.09743100       0.25524800       0.94648800 
I       9.18311007       9.22589106      29.55783539       53      -0.29392500       0.46799500       0.25452700 
I       8.88415535      20.37537976      10.03613212       53       0.19179100      -0.09507600      -0.55718600 
I       9.24116581      20.66962169      29.46391206       53       0.49796700      -0.32441900      -0.85258900 
I      13.75383756       9.12294779      10.27954640       53       0.39338300       0.34706200      -0.34522400 
I      14.10735839       9.55910445      29.24702134       53       0.41789400      -0.14358000       0.09388600 
I      13.90878147      20.94192532       9.82665243       53       0.43985000      -0.31696600      -0.24048700 
I      14.41792467      20.25933832      29.03787514       53      -0.08638700       0.15598100      -0.01392100 
I      19.40797013       9.92153023      10.22008351       53       0.11240200      -0.64368500      -0.57311700 
I      19.39665547       9.63370409      29.45172969       53       0.29774700      -0.48815700      -0.10940900 
I      19.17747734      21.21483321      10.41264922       53      -0.00860800      -0.17951300      -0.49082600 
I      19.31220476      20.64208512      28.59706945       53      -0.48644800       0.37080600       0.27672800 
I       1.13413864       1.74466535      10.49983999       53      -0.90307900      -0.59745400      -0.62149700 
I       1.32451836       1.48985068      29.22711116       53      -0.12833700       0.16351100       0.03402900 
I       1.57423134      13.28159900       9.84095702       53      -0.92151900      -0.77524400      -0.44568200 
I       1.72211233      13.26182892      28.55368106       53      -0.18971400      -0.31787200       0.04345900 
I       6.35811007       1.93004897       9.72036901       53       0.32270100      -0.33683200      -0.19818000 
I       6.49210883       1.87897668      29.29724683       53       0.02833700      -0.25366800      -0.04329400 
I       6.26964910      13.08309944      10.26439710       53       0.79350700      -0.42248600      -0.57835800 
I       6.16552868      12.70362169      29.57762011       53      -0.29836600      -0.11779600      -0.45952600 
I      11.00623372       1.59164190       9.59295436       53       0.14520000       0.29289000       0.22602900 
I      11.81028062       2.09825621      29.40726138       53      -0.82715200      -1.30869900      -0.49666400 
I      11.66136675      12.64896881       9.76932744       53       0.15399000       0.62619300       0.23889800 
I      11.97879313      13.18820153      29.35463140       53      -0.49311200      -0.33878400      -0.12194700 
I      16.99584408       2.37120696       9.83983946       53      -0.65615400      -0.29828800       0.01016400 
I      16.38525360       1.94412566      28.99310783       53       0.17086800       0.00386200      -0.13493000 
I      16.83640379      13.03081028       9.46916630       53       0.05451000       0.62495700      -0.17530400 
I      16.89176860      12.66903162      29.08066345       53      -0.34732000       0.14774400       0.12737500 
I       1.47559836       0.30207950      17.15976821       53      -0.75760800       0.58988500      -0.19388900 
I       1.11350294       0.77793629      36.45220602       53      -0.14243000      -0.34093400       0.58866400 
I       1.62457496      11.48849167      17.39143919       53      -0.37468500       0.09484800       0.24484500 
I       1.21024369      10.80552413      36.54016414       53       0.81022000       0.89864900       0.00219000 
I       7.03283336       0.32081357      17.29960986       53      -0.64048800      -0.04428300      -0.11866600 
I       5.95461257      -0.08928267      36.41037323       53       0.11370300       0.06399100       0.05557400 
I       6.13218580      11.77533406      17.55548877       53       0.43741500       0.01659800      -0.23233300 
I       6.57285872      11.55984630      36.57098439       53      -0.37411500       0.13391100       0.05501700 
I      11.08624450       0.35241894      17.26772326       53       0.37151800      -0.27408300       0.29091700 
I      12.43891832       0.11330138      36.56108106       53      -0.91917100       0.31511700      -0.10141600 
I      11.65879918      12.35764363      17.57661791       53      -0.02322800      -0.33055400      -0.05831200 
I      11.22230588      11.43986046      37.06116145       53       0.38037700       0.22763600      -0.16160000 
I      15.97292223       0.72897263      17.40280927       53       0.27404600      -0.17878000       0.04807900 
I      16.77675691       0.55472700      36.38009032       53       0.49128800      -0.09598200       0.15600200 
I      16.67290829      12.06854729      17.14573857       53       0.15393900      -0.22198200       0.42583300 
I      17.24323621      11.53238291      36.72667368       53      -0.26130300      -0.03017100       0.31989300 
I       3.88125844      11.27887084       2.09582978       53      -0.04445900       0.43550200       0.13835100 
I       3.96396538      10.72927062      21.61512543       53       0.07587300       0.23058400       0.06533700 
I       3.83952287      21.85574946       2.12400510       53       0.19483200       0.24110500      -0.53307600 
I       4.39114182      22.46171078      21.01528195       53      -0.46290300      -0.00266800       0.21732100 
I       9.10377987      11.05403905       2.12871475       53       0.01016600       0.34500100       0.04293000 
I       9.06719826      11.14298718      21.28507341       53       0.04026800       0.66263800       0.67523000 
I       9.24581796      22.02559384       2.40040681       53      -0.38997300       0.47798600      -0.30127800 
I       8.77491441      22.55490544      21.27884371       53       0.22628900       0.18522400       0.30236600 
I      14.10335963      11.10262844       2.17888483       53       0.18357500       0.11777000       0.01059400 
I      14.35569977      11.64710293      22.01877452       53      -0.16226600      -0.04608500      -0.40614800 
I      14.23533025      22.45078815       1.72049506       53       0.42554500       0.17876700       0.08384500 
I      15.03228810      22.70651339      21.71930231       53      -0.76316700      -0.14491600       0.12027900 
I      19.76174291      11.28119274       2.40365077       53      -0.41993200      -0.02680100       0.16203300 
I      18.92075477      10.65146989      21.68888454       53       0.21882300       0.69311900       0.08475500 
I      18.50498708      22.80467488       1.79648198       53       0.07880700       0.21320800      -0.13959400 
I      19.48250914      22.58886826      21.01656050       53      -0.07668700       0.05730300       0.10130800 
I       1.22772011       5.96349661      12.16180259       53       0.33185700       0.16251600      -0.17306300 
I       1.24985809       5.75486790      30.91533177       53      -0.21387600      -0.12762900       0.52935900 
I       1.59181021      17.33856564      12.10181698       53      -0.39995200      -0.12178700      -0.22068800 
I       0.99774899      17.25465333      30.81607676       53       0.20072400      -0.07803600       0.17234500 
I       6.40617780       5.94912407      11.98694642       53      -0.12589700       0.05460900      -0.01334400 
I       6.49301417       5.67313740      31.62647254       53      -0.09371200      -0.01717500      -0.04038100 
I       6.73801227      17.09415402      11.73433970       53      -0.08483400       0.23317600      -0.36371000 
I       6.32923849      16.85206430      31.07755917       53       0.68365800       0.69219100       0.20789000 
I      11.37148216       6.58403538      11.83313054       53      -0.24132700      -0.64080700       0.35998400 
I      11.52738158       5.92780466      31.90944685       53      -0.04454500      -0.22234700      -0.34239200 
I      11.97817006      17.32448477      11.62098396       53      -0.20651300      -0.10173400       0.02403800 
I      11.14780974      17.14077592      31.43109986       53       0.25098700      -0.27506900      -0.27748400 
I      16.25266304       6.44201820      12.28212819       53       0.72177700       0.13903800       0.11020400 
I      16.27799480       6.09772536      31.50784785       53       0.75647300       0.00537300      -0.12125600 
I      16.74106182      17.42777513      11.79408067       53      -0.20324700       0.06556800      -0.39748000 
I      17.17057793      17.04425366      31.02207832       53      -0.25140300      -0.02280400      -0.00773700 
I       3.40391610       5.35779037       7.50302707       53       0.55809500      -0.61884900      -0.16622400 
I       4.67628121       5.11546230      26.58842209       53      -0.58526600       0.07107000       0.53643300 
I       3.91420406      16.46989771       8.29638342       53      -0.07092400       0.43200300      -0.64582800 
I       3.93505302      16.75792144      27.10302347       53       0.87381600      -0.57367500      -0.11278800 
I       9.69568541       4.99274789       6.98227229       53      -0.60200100       0.38090200       0.43116900 
I       9.35189961       5.21496403      27.32330766       53      -0.50425900      -0.02678900       0.20376800 
I       9.34324974      16.30500133       7.32275663       53      -0.35216800       0.24141200       0.31399500 
I       9.07776231      16.40104479      26.94662956       53      -0.03395900       0.24276300       0.20716200 
I      14.21529567       5.38391875       7.75907220       53       0.14628400       0.66617200      -0.66420300 
I      13.53721760       5.21960259      27.07663060       53       0.90001500      -0.42389300      -0.16001600 
I      14.58746170      16.90060665       7.45745582       53      -0.10112600       0.05646300       0.01556400 
I      14.12681485      16.37382917      27.19640840       53      -0.07501300       0.07634900       0.29008500 
I      19.14043261       5.31719746       7.88355234       53       0.43817400      -0.20306200      -0.05379700 
I      19.21317870       5.42110148      27.17455164       53      -0.28923300      -0.48589100      -0.16130000 
I      19.14863190      17.07036740       7.69817290       53       0.22908600      -0.13556800       0.15811100 
I      19.78262324      16.63609669      26.50572038       53      -0.24851200      -0.15385700       0.43161700 
I       1.51723252       2.06407386       4.24007332       53      -0.38862700       0.44398000      -0.17742900 
I       1.20360418       2.97637063      23.50060676       53       0.12819100      -0.04852800       0.04668800 
I       1.16726615      14.83238349       4.42347585       53       0.17006800      -0.04068000      -0.59161100 