320
Lattice="19.9525773807 -0.175153974583 0.0451886834408 -0.165231554023 22.1899107372 -0.153882486594 0.0103325052166 -0.249582813372 38.062183436" Properties=species:S:1:pos:R:3:Z:I:1:forces:R:3 energy=-101593.305419 stress="865.244573 482.213753 725.679932 482.213753 -582.237526 556.776423 725.679932 556.776423 -575.47102" pbc="T T T"
Cs       3.63065652       1.50192946       6.34274682       55       0.16962800      -0.46087700       0.01852400 
Cs       3.78367712       0.83892127      25.19902443       55      -0.01783700      -0.22285500      -0.16931000 
Cs       3.44820447      12.08577281       6.17931536       55       0.33523400       0.06163800       0.15853500 
Cs       3.38035123      11.99217582      26.12746119       55       0.30808100      -0.27222600      -0.71392500 
Cs       9.47549341       0.15870378       5.40822087       55      -0.86706100       0.05175600       0.50334700 
Cs       8.68091216       1.05459019      25.26261910       55       0.38461500      -0.17919500      -0.46298300 
Cs       9.33363058      11.78185327       5.91550475       55      -0.37079300      -0.43039000       0.08067500 
Cs       8.80075965      11.47785640      25.09548976       55      -0.08812300       0.12422600      -0.15254400 
Cs      14.23525545       0.25901578       5.79392635       55      -0.14480600       0.04730000       0.17057000 
Cs      14.13457306       0.98534083      25.71942593       55      -0.38882000      -0.39077400      -0.94195700 
Cs      13.45768000      12.07844624       6.26507495       55       0.24105800      -0.07386700      -0.15682700 
Cs      13.75270589      11.35618947      25.17427791       55       0.04607900       0.13857000      -0.12773700 
Cs      18.64930697       0.12424853       5.35749147       55       0.19994700       0.05249200       0.47934700 
Cs      19.13861937       0.81477818      25.26251226       55      -0.18523300      -0.25861500       0.03802500 
Cs      18.17848807      11.51215494       5.91760605       55       0.10525600       0.28190200       0.27307200 
Cs      18.29822159      11.99674577      25.56941229       55       0.16711000       0.17668600      -0.06135400 
Cs       0.82184425      10.65726479      12.56707483       55       0.02565600      -0.22289800       0.10110000 
Cs       1.81608788       9.86567421      31.36414660       55      -0.46312300       0.05083600       0.20158600 
Cs       0.96129033      21.29882222      12.60985286       55       0.01406300       0.27459000      -0.02702700 
Cs       0.88033067      20.97058354      32.09636140       55       0.17999000       0.04171600      -0.08555900 
Cs       5.73204936      10.34881499      12.16740205       55      -0.24618600      -0.23888100       0.27423500 
Cs       6.52184900       9.90168839      31.72000646       55       0.04600500      -0.00216500      -0.14389200 
Cs       5.83395591      21.67147520      12.45482051       55       0.16190800      -0.27685400       0.26977500 
Cs       5.94722984      20.51628708      31.49687869       55       0.32293700       0.15112200       0.19981700 
Cs      10.25429709      10.35495913      12.55300068       55       0.54882200      -0.17958200       0.15348700 
Cs      11.29280137       9.72652220      31.75310223       55       0.12340500       0.31390300       0.02734100 
Cs      11.10464069      20.89620151      12.41103100       55       0.05261100       0.25009700      -0.07221300 
Cs      11.36302659      20.95534325      31.58873358       55      -0.27168900      -0.03092200       0.10549800 
Cs      15.93230380       9.14129477      13.05361331       55       0.21518500       0.41995400      -0.14712300 
Cs      16.63570482       9.90321272      31.64030656       55      -0.19558100       0.05911900       0.32417600 
Cs      16.43182660      21.17466425      12.59722673       55      -0.22553300       0.09666100      -0.20215200 
Cs      15.85484257      21.01087563      31.87677277       55       0.14813800      -0.07936400      -0.03551700 
Cs       3.19294661       6.92816556       3.40958528       55       0.49720300      -0.26584700       0.07135700 
Cs       3.43542570       6.49492791      22.06142195       55      -0.09417600      -0.14848700       0.21698900 
Cs       3.91785010      17.22293180       3.21373373       55      -0.19190100      -0.03979900      -0.50871000 
Cs       4.05032271      17.13272437      22.42944495       55      -1.00223500       0.77271600      -0.30101800 
Cs       8.73099438       6.39200582       3.29791404       55       0.07438500      -0.41213500       0.08175900 
Cs       8.64032497       6.44211959      22.19365034       55       0.15536900       0.05240400      -0.08167200 
Cs       7.97687923      17.35331837       3.96208023       55       0.52031300      -0.09467400      -0.34121300 
Cs       9.16871854      17.14699389      22.53753736       55      -0.42220200      -0.11106900      -0.31091600 
Cs      14.06291305       5.50576098       3.37061909       55      -0.18791000       0.29545700      -0.04523800 
Cs      14.04644149       6.26343869      22.43204588       55      -0.11196800       0.04420800      -0.00633100 
Cs      13.04669885      17.11958843       3.26965381       55       0.04029000      -0.26750700      -0.08902700 
Cs      13.14488105      17.49725096      22.78703470       55       0.80242600      -0.44572300      -0.43905300 
Cs      18.63607233       6.26121527       2.95665848       55       0.07174000      -0.04116700       0.33400900 
Cs      18.48357273       6.31347207      22.83562007       55       0.48476800      -0.39002200      -0.22953800 
Cs      19.15030831      17.19538591       3.32803338       55      -0.29968400      -0.08903300      -0.01325400 
Cs      17.97862827      17.21906296      22.27962362       55      -0.49799100       0.23900500       0.28316300 
Cs       1.29113170       4.95371173      16.44355522       55      -0.16914700      -0.21986700      -0.43425100 
Cs       1.54249935       4.27298240      34.51555560       55       0.16756400      -0.10527600       0.04196100 
Cs       0.92483757      16.31595580      15.33653831       55      -0.13155200       0.34424500       0.24394300 
Cs       2.05777021      15.40565436      34.30473647       55      -0.77247000      -0.53243300       0.17163500 
Cs       5.88669300       4.94365194      15.81445381       55       0.06983300      -0.34087000       0.11707100 
Cs       6.31361758       4.72529763      35.11347124       55       0.15141500      -0.32053100      -0.11581600 
Cs       5.80884407      16.55617485      15.82861853       55      -0.13723100      -0.26290400      -0.13779900 
Cs       6.72050398      15.25066780      34.29694588       55      -0.19857100      -0.22424600       0.11045400 
Cs      10.85172022       4.89485899      15.24607241       55      -0.08446700      -0.06355300       0.67418900 
Cs      11.43370768       4.02242474      34.89059176       55       0.25070400       0.15532700      -0.16816900 
Cs      10.18151876      15.47949097      15.97286046       55       0.41187100       0.01478900      -0.37850800 
Cs      11.33486507      14.70893681      34.98186154       55      -0.08832800       0.36783400      -0.04390200 
Cs      16.11396215       4.35633032      16.17972324       55       0.01262100      -0.09736900      -0.15812100 
Cs      16.61980615       3.67742144      35.07420589       55      -0.19711500       0.43863400       0.01843800 
Cs      15.60659686      15.20361898      15.82943259       55      -0.03446200       0.04662100      -0.17466500 
Cs      15.81716770      15.24726298      34.92168187       55       0.24902700       0.05484900      -0.05371700 
Pb       2.07310412       1.92670695       1.24462220       82       0.12967700      -0.18948100      -0.47015200 
Pb       0.64359581       1.56645216      20.23347112       82       0.23703300       0.34521200       0.59123700 
Pb       1.44092046      12.51459620       1.22995277       82      -0.29281000       0.08753200      -0.57862500 
Pb       0.52315100      13.66242926      20.17412485       82       0.76247100      -0.58728600       0.13499900 
Pb       6.82756355       1.80164232       0.91228776       82      -0.75117400       0.45379100       0.32281900 
Pb       6.01445217       2.18053612      20.37540519       82       0.94294300      -0.55016100       0.25907100 
Pb       6.29179456      11.89707892       1.08738373       82       0.60085900       0.24021500      -0.16054800 
Pb       5.89233853      12.73990261      20.34659343       82       1.13539300       0.84435900      -0.49837200 
Pb      11.79124961       1.79736136       0.89237983       82      -1.38364800       0.31411300       0.00809700 
Pb      11.16834933       1.37464447      20.58556798       82       0.39931800       0.28323600      -0.15067700 
Pb      11.05085448      12.30789522       1.24415513       82       0.46277400      -0.67486800      -1.08215500 
Pb      11.08661020      12.25184489      20.20177250       82       0.05120300       0.68508300      -1.13096700 
Pb      16.75550143       1.27273080       0.43524635       82       0.62850600       0.65620400       1.25930300 
Pb      16.09998263       1.80811820      20.20865541       82      -0.55380400       0.17110200       0.85522500 
Pb      16.58799559      12.43590472       1.33077864       82      -1.25588600       1.13002000      -0.19315400 
Pb      15.73625790      12.44433130      20.12450766       82      -0.13207600       0.06683400      -0.17081200 
Pb       3.26333057       9.37789530      17.86135831       82       0.28951300       0.30541900       0.09415400 
Pb       3.47540844       8.95823216      36.23686101       82       0.94276800      -0.83971100       0.25367500 
Pb       3.81787289      21.18090405      17.96884831       82       0.22475000       0.45670300      -0.34085000 
Pb       3.68052200      19.87660691      36.86342254       82       0.44612300      -0.07934600      -0.22074500 
Pb       8.00386951       9.55338202      17.19630479       82       0.36107700      -0.25393400       0.35039100 
Pb       9.26235827       8.30244778      36.66116940       82      -0.34475200       0.43222800       0.31206900 
Pb       8.80613044      20.52335315      17.43230189       82       0.63998900       0.73474400      -0.48485500 
Pb       8.87958444      20.27306719      36.60172443       82      -0.07739200      -0.23880900      -0.50888000 
Pb      13.25150408       9.03735611      17.56084054       82       0.04226900      -0.02247300       0.73947900 
Pb      13.90131935       9.02359029      36.74526830       82       0.14255900      -0.15195700       0.14943700 
Pb      13.52781668      20.38165211      17.04792741       82       0.06034600       0.81959500       1.76565600 
Pb      13.41434432      19.44411820      37.28177605       82       0.06641900      -0.64648100      -0.46264600 
Pb      18.20607058       9.22031187      18.33503763       82       0.02954900      -0.07217700      -0.68837900 
Pb      18.93351192       8.52015592      36.83585936       82      -0.12247900      -0.02066100       0.39122800 
Pb      17.84316703      19.62513648      18.39720565       82       0.71250800       0.61111200      -0.05216800 
Pb      19.00315305      19.29302083      37.08461488       82      -0.33267800      -0.31069100      -0.42233700 
Pb       1.18601876       7.10711409       7.86231704       82      -0.10529900       0.17204800       0.49526400 
Pb       1.28021001       7.21957803      27.20051536       82      -0.42668200       0.03722800       0.29389400 
Pb       1.12434121      18.53028982       7.99894443       82      -0.76607500      -0.14005900      -0.12718100 
Pb       0.99080625      18.37377689      27.87600009       82      -0.49585400       0.08181000      -1.24146500 
Pb       6.75905499       7.48486515       8.42519436       82      -0.88077200      -0.27325500      -0.26701800 
Pb       6.47167113       7.27672226      27.24344603       82      -0.02079300      -0.62464000      -0.26170500 
Pb       5.81506047      18.27950932       8.42120646       82       0.27783200       0.35119900      -0.01087200 
Pb       5.80959505      18.20238796      27.27029793       82       0.29796900       0.23829900      -0.20478600 
Pb      11.21738345       6.69623776       8.42473848       82      -0.34591300       0.49355600      -0.50976800 
Pb      11.36514824       6.87536640      27.85190482       82       0.35121600      -0.23454900      -1.42047600 
Pb      10.77142808      18.05586360       8.73829654       82       0.00970300       0.18153000      -0.84991300 
Pb      11.18148120      18.40043545      27.11357639       82      -0.09971700      -0.16015000       0.30389600 
Pb      15.71584423       7.10939652       8.14946890       82       1.43973400      -0.55470900       0.40393300 
Pb      16.07603491       6.92707675      27.59516028       82       0.30233000       0.20231700      -0.35357700 
Pb      15.82930234      17.85681685       7.66129110       82       0.61663300      -0.10262700       0.26342700 
Pb      16.00324743      18.11049746      27.66417966       82      -0.11809800      -0.16245200       0.58468100 
Pb       3.52470917       4.03141811      10.37865958       82       0.25415800      -0.43694000       0.34513000 
Pb       3.85948274       3.22735404      29.26968755       82       0.57967100       0.36776900       0.73271100 
Pb       3.03984257      15.06704451      10.62867080       82       0.63480700       1.26141900       0.66288100 
Pb       3.76302941      14.42085692      29.35196091       82      -0.08601900       0.07358400       0.44547600 
Pb       8.58714014       3.51192837      11.11158364       82      -0.53920500       0.39169600      -0.67714300 
Pb       9.24394313       3.69546618      29.53822380       82      -0.26837100      -0.01536600      -0.20143300 
Pb       7.94796775      14.52345542      10.64431303       82      -0.04997500       0.34073200       0.46284200 
Pb       8.72093255      14.87107187      28.99462861       82       0.46902500       0.30207100       1.12585700 
Pb      13.86443818       3.53198079      10.91128120       82      -0.24165600      -0.33005100      -0.07267600 
Pb      13.89689491       3.08812673      29.43137487       82       0.20680300       0.05455500       0.02601700 
Pb      13.13222541      14.48373928      10.99310886       82       0.72178300       0.21573200       0.28405300 
Pb      13.56495122      14.73392654      29.72187355       82       0.29620000       0.10209100      -0.00731000 
Pb      18.56602214       3.78326805      10.40895599       82       0.72503600      -1.27036700      -0.37445700 
Pb      19.12075780       3.73812821      29.78590679       82      -0.43367300      -0.02156600      -0.53336500 
Pb      17.97210762      14.35326113      11.22130011       82       0.53014500      -0.05961800      -0.17195000 
Pb      18.63997678      14.96030955      30.15091775       82      -0.29475600      -0.17655800      -0.13642900 
I       3.47982881       3.23564731      19.13050621       53      -0.48878600       0.56844300      -0.25058300 
I       4.36354089       3.85679125      38.68859843       53      -0.34566500      -0.65941400      -0.15710700 
I       3.65862572      14.79265005      19.28982766       53      -0.02999000       0.54129900      -0.40318200 
I       3.93646673      13.62405938      37.71942593       53       0.00743900       0.11143500       0.25087100 
I       8.61558150       3.66733926      19.12450961       53      -0.04164800      -0.00153000       0.23584700 
I       8.90480922       3.61126959      37.78774318       53       0.21352800       0.06981600       0.20338300 
I       8.87864216      14.60621925      19.13466302       53      -0.26197900      -0.01078900       0.36736200 
I       8.80269814      14.03735450      38.13958056       53      -0.66647700      -0.06272000      -0.71859400 
I      13.46123644       3.43227731      19.29569604       53       0.02673300       0.40169100      -0.18233300 
I      14.06748300       3.24046046      37.85831539       53       0.39351100       0.03040800       0.02100800 
I      13.52619771      14.33709179      19.01567945       53      -0.14884200       0.16742700      -0.13497800 
I      14.09591723      14.28319567      38.27397639       53      -0.48301400      -0.32660000      -0.18618300 
I      18.44632117       4.02443446      19.89284545       53       0.44713000      -0.42389900      -0.52926500 
I      19.50650500       3.40831636      38.35912950       53      -0.43149700      -0.66728300      -0.60204300 
I      18.16381864      14.43879380      18.52851720       53      -0.27611200       0.28303600      -0.00891300 
I      18.88316716      13.97678306      38.26352584       53       0.04176400       0.07145800      -0.10752300 
I       1.79394535       6.75462038      -0.17106636       53      -0.31690200       0.93765600      -0.42006000 
I       0.91437278       7.47481350      19.05914843       53       0.05171200       0.15934600       0.38338400 
I       1.17698570      17.41991795      -0.37345585       53       0.41481500       0.60375000       0.09787400 
I       0.51775477      18.65824641      20.03326128       53      -0.10729600       0.02187800      -0.74112600 
I       6.00804040       7.36735504       0.10401701       53       0.50728500       0.44174500      -0.21321900 
I       5.89613614       7.85073495      19.69127205       53       0.11597300       0.02930900      -0.64327700 
I       6.34457541      18.73692161      -0.31338608       53      -0.03080200      -0.64672400       0.01671400 
I       6.46919841      19.10933343      18.47120914       53      -0.95997600      -0.57769900       0.54902000 
I      12.00306189       6.99277170      -0.01905113       53      -0.33902600       0.11487200      -0.22435700 
I      10.67559649       7.23494348      18.47774200       53       0.02770100       0.12091600      -0.01541100 
I      10.43528993      18.17365456       0.16167918       53       0.66567300      -0.06713400       0.11392300 
I      10.85220662      18.43919913      18.69944822       53       0.14066300       0.22936600      -0.06437100 
I      16.40513853       6.76531006      -0.06324869       53       0.16949300       0.39367100      -0.35465100 
I      15.97915317       6.96740853      18.91568698       53      -0.04811000       0.35719100       0.12139100 
I      15.85494637      18.09273662       0.70605893       53      -0.11988200       0.39756900      -0.50455000 
I      15.44923323      17.72192240      18.62513844       53      -0.03525800       0.25870400       0.30875500 
I       3.39127088       9.19966925       9.36597231       53       0.07167500      -0.20798700      -0.20699400 
I       3.97386278       8.86936285      28.58015106       53       0.15888800       0.17874900      -0.07450800 
I       3.16581386      20.16083628       9.78436042       53       0.50380400      -0.02698200      -0.27001900 
I       3.41560732      20.21222304      28.71725671       53       0.31269100       0.17990500      -0.23389200 
I       8.42993628       9.95295813       9.25190365       53       0.24449900      -0.07486600       0.07028300 
I       9.09049515       8.78273221      28.54644678       53      -0.58811400       0.58454500       0.16463500 
I       8.55935716      20.42037713       9.20208498       53      -0.04648500      -0.38183000       0.01597200 
I       8.66891286      20.20887215      28.12614359       53      -0.20226800      -0.15415000       0.09779400 
I      13.68177040       8.92202057       9.20967613       53      -0.89056300       0.49368300       0.72274300 
I      13.62195502       9.12534726      28.21576082       53       0.19411800      -0.01281100       0.37318800 
I      13.57818078      19.80823776       9.03162816       53      -0.02178800       0.13853200       0.23252600 
I      13.42545223      20.30317127      28.32444547       53       0.19493300      -0.14407200       0.12619900 
I      18.65463400       8.82094437       9.40190713       53      -0.01966700       0.05939100      -0.26982400 
I      18.63612321       8.91140823      28.70708091       53       0.17273400      -0.18272800      -0.16301600 
I      18.23874507      19.66984487       9.24101657       53       0.01024100       0.17489800      -0.20364300 
I      18.45361722      19.99174911      28.93874211       53       0.33626100       0.19777400       0.08230900 
I       0.84663351       1.88037858       9.58542255       53       0.70084400      -0.38115800      -0.36678500 
I       1.31050031       1.71661946      28.45620068       53      -0.59688400      -0.34480900      -0.00552200 
I       1.29080913      13.13193744       9.52127229       53      -1.12797500      -1.11708900      -0.64225700 
I       0.89343201      12.95400649      28.51330115       53      -0.09951800      -0.07786100       0.30757500 
I       6.31785987       1.66130484       9.67853314       53      -0.13154400       0.25611900      -0.26019400 
I       6.42750511       2.01078041      27.82779733       53      -0.20238900      -0.22220600       0.31783400 
I       5.32985603      13.18403549       9.60842088       53       0.47706600      -0.49625300      -0.35394200 
I       6.58888818      12.89095318      28.12525626       53      -0.60783800      -0.66480100      -0.23477500 
I      10.78398298       1.81446586       9.65445008       53       0.68147800      -0.06687000       0.04323400 
I      11.39889424       1.28211391      28.39613498       53      -0.44215200       0.29110700       0.16565500 
I      11.03255534      13.14093590       9.23422829       53      -0.46123600      -0.47479600       0.12850000 
I      11.33707322      13.16252284      28.10284813       53      -0.03051100      -0.41121500      -0.04767200 
I      16.16271134       1.23496435       9.27187671       53      -0.28986600       0.51732100       0.29887700 
I      16.35328979       1.28699117      28.37219235       53       0.33324300       0.29862900       0.76405900 
I      15.59286462      12.25771938      10.11130067       53      -0.09254200       0.40081900       0.05483900 
I      16.50324137      12.70007047      28.98866355       53      -0.30481400       0.25343100      -0.07634900 
I       0.54875738       0.74726583      17.32410670       53       0.26282000      -0.21266900      -0.20357200 
I       0.99830887      -0.38676987      36.05612867       53       0.19313900       0.16978900       0.03893900 
I       1.27857273      11.55645426      16.90086271       53      -0.29035200       0.07685300       0.18220500 
I       1.58098523      11.05641962      35.29051181       53      -0.61670500       0.16567000       0.04102700 
I       6.42934184       0.97560768      16.91930837       53      -0.33623200      -0.51565300       0.34071400 
I       6.64629189      -0.21955098      35.59797761       53      -0.55551100       0.27884000       0.17489900 
I       5.79569389      11.77841284      16.66805062       53      -0.11723000      -0.29323100       0.39717100 
I       6.84987908      10.41033074      35.43877522       53      -0.01667400      -0.00539700       0.36902100 
I      11.85892171       0.72352467      16.79662895       53      -0.43823200      -0.49631900       0.12969700 
I      11.02440046       0.48197972      35.35881583       53       0.14132100      -0.58818200       0.62607400 
I      11.14825315      11.11825082      16.59595408       53      -0.59090400       0.23317800       0.06809200 
I      11.40998891      11.10321099      35.88852412       53      -0.03012400      -0.80627500       0.02217900 
I      16.42546367       0.46179196      17.44726540       53      -0.09312600      -0.42800300      -0.66763700 
I      15.88363703      -0.73587809      36.28485211       53       0.06566300      -0.33199700      -0.88398800 
I      15.90659770      11.05036095      16.72432889       53       0.00176700       0.00017600       0.30186000 
I      16.89763189      10.92048317      36.13527908       53      -0.20999700      -0.21960600      -0.04752000 
I       3.63041841      10.57371131       2.32796410       53       0.21175700      -0.30922300       0.10805300 
I       3.52001202      11.35903055      21.10725773       53      -1.27883600      -1.09407200       0.58597000 
I       4.35764605      21.28603429       1.79538522       53      -0.45166400       0.57525100      -0.11876900 
I       3.30705089      21.43721612      21.03128624       53       0.05626200       0.37502700       0.35000400 
I       9.00305452       9.84171020       2.20721401       53      -0.09424200       0.73801800      -0.46378200 
I       8.68077377      10.56554116      20.66131764       53      -0.75866600      -0.56561400       0.30327500 
I       8.64974878      21.88543051       1.58820496       53       0.76264200      -0.39244600       0.12748300 
I       8.23450499      21.86881750      20.95216840       53       0.08449500      -0.03263900       0.05835000 
I      13.38675163      10.32728300       2.18727250       53       0.45141800       0.03548400      -0.02677500 
I      13.37054566      10.17418506      20.71385732       53       0.54369500      -0.25518100       0.49599800 
I      13.44531844      21.82839618       1.65435782       53       0.56455800      -0.37540200       0.60272600 
I      13.70013670      21.58846206      21.06097210       53      -0.22717200       0.10057500      -0.14463100 
I      17.92757019      10.03580439       2.33462823       53       0.92127700      -0.77938000       0.26177600 
I      18.55064142      10.88186805      21.09200421       53       0.24102700       0.06538400       0.51378600 
I      18.96994535      21.35128049       1.67551636       53      -0.20581500       0.43842400       0.07215800 
I      17.96568771      21.84641548      21.18708382       53       0.25546700      -0.59248700       0.11889200 
I       1.02464688       5.94417201      11.10142209       53       0.09961500       0.16606200       0.10375100 
I       1.37957973       5.89519691      30.60108081       53       0.12566600      -0.18435400      -0.08071800 
I       0.56143846      16.96354460      11.27969800       53      -0.29625700       0.21847600       0.05995800 
I       1.63500753      16.79043800      30.52320237       53       0.09551200      -0.31793400       0.52473500 
I       5.92420506       5.85842259      11.82380809       53      -0.02610600      -0.00236000      -0.57628900 
I       6.32841217       5.24926575      30.06511034       53       0.25211300       0.61533400       0.22556400 
I       5.95915689      16.96034024      11.84403350       53       0.20212100      -0.17987300      -0.46336600 
I       5.95785439      16.58391204      30.19840515       53       0.24926200       0.15278000       0.25434000 
I      11.13049536       5.62107618      11.72011467       53       0.37764500       0.23352400      -0.49676200 
I      11.71656942       6.07014330      30.77799113       53      -0.03931500      -0.78653500       0.10735900 
I      10.30708811      16.85205653      11.49236709       53       0.27528800      -0.44181100       0.74885200 
I      11.25855778      16.97421596      30.34810131       53      -0.00883400      -0.08961400      -0.05039600 
I      16.62063853       5.84706844      11.24677013       53      -1.39927300       0.47819300       0.72150300 
I      15.89254696       5.36392562      30.40923649       53       0.56139900       0.25032300       0.24613400 
I      16.12166930      16.60701721      11.88159746       53      -0.47042800       0.18216600      -0.00535700 
I      16.37278255      17.04338188      31.18235291       53      -0.36601100      -0.39955800      -0.36275000 
I       3.88977915       5.00713773       7.19901579       53      -0.09190000       0.69643000      -0.01563500 
I       3.55429123       5.10072861      26.62072281       53       0.29705000      -0.02653900      -0.27010500 
I       3.52897893      16.79711536       6.82301904       53      -0.09423200      -0.95315100       0.46941600 
I       3.45378589      16.05676297      26.60529427       53      -0.06081200       0.23143000      -0.37493900 
I       8.31577400       4.91739126       7.39423441       53       0.52908000       0.32530100       0.28395100 
I       9.24501362       5.04278558      25.80707517       53      -0.24544000       0.20284100       0.72896400 
I       8.16333750      15.87530000       7.51067606       53      -0.08320300       0.26389000       0.18712900 
I       8.73079494      16.06869918      26.25989716       53      -0.17126200       0.68278900      -1.08944100 
I      13.50701226       5.05222974       7.29881290       53      -0.03766400      -0.95006200       0.07851200 
I      13.89858104       4.70851062      26.45542512       53      -0.09127800       0.38486700       0.15666400 
I      13.40074844      15.81377814       7.64183904       53      -0.12670400      -0.03155700      -0.05907000 
I      13.73113828      16.03690083      26.54263476       53      -0.01595300       0.11225900      -0.15756800 
I      18.83491047       4.64520800       6.99560566       53      -0.08179900       0.28488900       0.08620400 
I      18.61678512       4.96372370      26.55554683       53       0.21214000       0.07600200       0.21511400 
I      18.86076412      15.66374007       7.29597588       53      -0.15970500       0.41146600       0.03800200 
I      18.30668684      15.99810356      27.00491312       53       0.27065800       0.09118000      -0.28282200 
I       1.35784219       3.31378828       3.75215860       53      -0.04501900       0.08161600       0.64407500 
I       1.48829185       3.23143758      23.35872731       53      -0.10611900       0.08451600      -0.30591500 
I       1.07691589      14.10547740       3.75493151       53       0.22410800       0.02178800       0.31064300 