320
Lattice="20.2068654268 -0.00655949017929 0.0537428063564 0.0119926341176 21.7134146279 -0.0367213316076 0.0479715548665 -0.0419589434679 37.7201257564" Properties=species:S:1:pos:R:3:Z:I:1:forces:R:3 energy=-101597.463172 stress="252.704657 264.350931 -26.856449 264.350931 1851.437714 932.298674 -26.856449 932.298674 -294.822604" pbc="T T T"
Cs       4.00628322       1.21540296       6.39754583       55      -0.26224800       0.49666100       0.00386200 
Cs       3.93820140       0.43558233      24.79697077       55       0.34547300       0.76568200       0.39386600 
Cs       4.06528707      11.98668465       5.98038018       55      -0.49722800      -0.33871400       0.17164000 
Cs       3.95944005      11.93604082      24.58307294       55      -0.39942700      -0.03054000       0.63993600 
Cs       8.71825394       0.81178503       6.31154634       55       0.60554600       0.41062400      -0.09245300 
Cs       9.16941366       1.09981804      24.55083357       55      -0.55458400      -0.24923900       0.52611200 
Cs       8.93684862      11.63108919       6.56910995       55      -0.26895000       0.21523000       0.10483600 
Cs       8.90349003      11.07256709      25.25170608       55       0.02116000       0.30363700      -0.10763100 
Cs      14.58512774       0.44068653       6.57656054       55      -0.41753000       0.02766500      -0.27250700 
Cs      14.03315291       0.91831029      24.91376351       55       0.25541400       0.15843000       0.24242300 
Cs      14.05487021      11.90454081       6.37081293       55      -0.41452300      -0.18000800      -0.07991600 
Cs      14.00885805      11.51670293      25.29315888       55      -0.13551600       0.11475400      -0.07886400 
Cs      19.24438118      -0.14580175       5.87013369       55       0.13101700       0.84073500      -0.89016700 
Cs      19.40505661       1.04427878      25.50366851       55      -0.02066600      -0.16745700       0.01605000 
Cs      18.60668997      11.66260347       5.83857767       55       0.26320500      -0.16501200       0.11703800 
Cs      18.47427707      11.94176013      25.28944479       55       0.33845200      -0.03215500      -0.00349000 
Cs       1.15205056      10.34400540      12.85214629       55      -0.05294700      -0.04743300       0.03740300 
Cs       0.96047292       9.71957371      31.35508306       55       0.65951900       0.08900300       0.11647200 
Cs       1.08247984      21.15967695      13.05846114       55      -0.18912700      -0.11754800      -0.09784500 
Cs       1.68571667      20.92473599      32.19894146       55       0.13428500      -0.12835600      -0.14127000 
Cs       5.05147041      10.53603929      12.55204019       55       0.72788700      -0.29980200       0.00169700 
Cs       6.53772603      10.01350425      31.22001724       55       0.14380400      -0.05621000       0.07022900 
Cs       6.56681754      20.69477601      12.73502053       55      -0.16643100       0.41612000      -0.14415400 
Cs       6.75187439      21.27449807      31.55808610       55      -0.06936200      -0.16376800      -0.18254300 
Cs      10.87515709      10.40688831      12.84906869       55      -0.24755200      -0.25494500      -0.36008200 
Cs      11.99323192       9.98996606      31.49651182       55      -0.38040300       0.05337800       0.08302100 
Cs      11.82548678      20.69114746      12.21508546       55      -0.42127600       0.15778300       0.27123200 
Cs      11.71918149      20.43116007      31.33486586       55       0.25428200       0.45882900      -0.08540500 
Cs      16.57119798      10.12120169      12.50248808       55      -0.16638900      -0.06555200       0.10674700 
Cs      16.74295051      10.17212150      31.95444388       55      -0.03703300      -0.07754400      -0.12046500 
Cs      16.51619440      20.97493478      12.45196748       55      -0.12117800      -0.14549700       0.17229000 
Cs      16.46090872      20.84190575      31.99387414       55      -0.15179000      -0.18431300      -0.51595300 
Cs       3.90046574       6.21096036       3.51828913       55      -0.07435500      -0.00799500      -0.28558100 
Cs       3.33076470       6.53579923      22.26067123       55       0.12129900      -0.08818000      -0.23635100 
Cs       4.13813906      16.51661907       3.02392905       55      -0.01747100      -0.09847100       0.13430300 
Cs       3.76617187      17.71789280      21.66749922       55      -0.08612100      -0.39130900       0.18641400 
Cs       8.53223877       6.32442701       3.06754390       55       0.36781200      -0.03796400       0.22273900 
Cs       8.90366418       6.76842232      21.95287319       55      -0.12864900      -0.22157100      -0.09088800 
Cs       8.82099383      17.33837216       3.24882454       55       0.22553300      -0.31895100       0.35288300 
Cs       8.80494696      16.67784443      22.01483751       55       0.08484200       0.46639300       0.29664400 
Cs      14.81226982       5.86117079       3.09760798       55      -0.48983500      -0.33523000      -0.11801500 
Cs      14.36054591       5.51605259      22.19141622       55      -0.42316900       0.63315700       0.06660200 
Cs      13.35269415      16.69426098       3.05574782       55       0.35812000       0.25622800       0.09533500 
Cs      13.85489181      16.76069810      22.23087092       55      -0.27100500       0.29203300       0.09505300 
Cs      19.30896379       5.96557269       3.16782029       55      -0.18846200      -0.31509500      -0.33510100 
Cs      18.86329832       6.82168444      22.01136376       55       0.07282300       0.01782300       0.19162700 
Cs      19.23725546      16.62953681       3.42114635       55       0.13601600       0.40154400      -0.23441000 
Cs      18.76114401      17.56812235      22.50793580       55       0.25940200      -0.42272600      -0.18723000 
Cs       1.15776173       4.58846267      15.56118110       55       0.08009300       0.25979300       0.45250900 
Cs       2.10189855       4.59914463      34.57804645       55      -0.42735300      -0.02664400       0.00743300 
Cs       0.95060262      16.12087335      15.63655057       55       0.08778700      -0.43043100      -0.34979800 
Cs       1.58509810      14.59679449      34.43965862       55       0.38770100       0.39488100       0.10189000 
Cs       6.00528506       4.61993112      15.35408717       55       0.18678100       0.08035500       0.13051000 
Cs       6.91983339       4.59756815      34.62170408       55      -0.27002300       0.34435500       0.14084100 
Cs       5.77963085      16.25601351      15.60771163       55       0.44325300      -0.23110400      -0.08258000 
Cs       7.37667780      14.99981360      34.09057989       55      -0.48284400       0.03361600       0.04887100 
Cs      11.44285291       4.57893252      15.78598087       55      -0.26623700      -0.06067300      -0.29100500 
Cs      12.09757578       4.42390512      34.13145933       55      -0.16243900       0.08863900       0.33831400 
Cs      11.45469278      15.10034459      15.79261063       55      -0.49536700       0.43341900      -0.00617100 
Cs      11.34987537      15.03282084      34.76191382       55       0.17366900      -0.02122000      -0.09093700 
Cs      15.97097255       4.23775960      15.69898539       55       0.33095900       0.23853800      -0.15593100 
Cs      16.65151176       4.12151272      34.67980359       55       0.25053100      -0.06462100      -0.19797200 
Cs      16.20486558      15.08742216      15.62167180       55      -0.04670200       0.33550300      -0.07508900 
Cs      16.72017611      15.34365167      34.54316638       55      -0.09527900       0.02484600      -0.01658700 
Pb       1.76683091       1.46156257       1.57117561       82      -0.51942600       0.90715700      -0.65206200 
Pb       0.74808333       1.75064656      20.13934881       82       0.71935400      -0.66347700      -0.38621600 
Pb       1.24085268      12.41435200       0.92907983       82       0.49269300      -0.43902400       0.00407600 
Pb       1.24334164      13.15451831      19.94637596       82      -0.36097400       0.38921500       0.06866700 
Pb       6.87531624       1.42935680       0.88754862       82      -0.54506800       0.93631800       0.13668200 
Pb       6.45116846       2.01671989      20.42691132       82      -0.00556900      -0.18603300      -0.95537500 
Pb       6.56070003      11.58816176       1.17540137       82      -0.28013100       0.04554500      -0.14145500 
Pb       6.23238334      12.80355758      20.12224790       82      -0.13713800       0.29932200       0.43818600 
Pb      11.12987123       1.84083573       1.03597681       82       1.50976900       0.43122100      -0.34974600 
Pb      11.90266085       1.55064983      19.77261312       82      -0.85508500       0.16407400       0.13784000 
Pb      11.61856292      12.09656858       1.29033451       82      -0.60177900       0.17025000       0.14114000 
Pb      11.03226508      12.34112829      20.04361244       82       0.10234000       0.17606700       0.56945500 
Pb      16.77194425       1.53787303       0.83284648       82      -0.14367400      -0.28014500       0.19902700 
Pb      16.66552999       2.12783507      20.45223782       82      -0.00037100      -0.58346900      -0.57830000 
Pb      16.18058905      12.25700876       1.24516457       82       0.65397400       0.24276400      -0.76636600 
Pb      16.06392870      12.35610585      20.01035467       82       0.14887900       0.16276800       0.02717500 
Pb       3.53008012       9.61302502      18.07947744       82      -0.29984000      -0.48552600      -0.43400000 
Pb       4.24210815       8.99476176      35.92662610       82      -0.03495100       0.37543700       0.44545200 
Pb       3.95652133      20.97060863      17.74193306       82       0.24942900      -0.61687500       0.20157800 
Pb       4.30555016      19.56800204      36.56259622       82      -0.52471000      -0.16708400       0.50046100 
Pb       8.19248753       9.31771252      17.09547651       82       0.71994300      -0.02309900       0.07475400 
Pb       9.63205579       8.51443313      36.57722243       82      -0.65745700       0.45791500       0.03602200 
Pb       8.99732201      20.49698513      17.80365500       82       0.10605400      -0.10600400       0.64503300 
Pb       8.82638216      20.33852980      36.23242300       82       0.32490000      -0.56231900      -0.20489400 
Pb      13.77057064       8.77606117      17.35882258       82      -0.69332800       0.17583700      -0.05952900 
Pb      14.40477690       8.99663051      36.47421165       82      -1.16227400      -0.27523200      -0.11553300 
Pb      13.85198735      19.96042067      17.71033120       82      -0.37378700       0.60907500      -1.04614400 
Pb      13.68925374      19.45575950      36.85591573       82       0.43960900       0.47160500       0.07509400 
Pb      18.31143246       9.22267476      17.43778800       82       0.82177000      -0.06961800       0.17344700 
Pb      19.49316418       8.49615801      36.72186219       82      -0.53103600      -0.33316800      -0.44899700 
Pb      18.57099925      19.90860059      17.97110582       82      -0.07343800      -0.19909900      -0.34641100 
Pb      19.59595906      19.26939706      36.80220755       82      -0.14190800       0.22842300      -0.16331300 
Pb       1.15055759       7.16818459       8.01101645       82      -0.38553300      -0.17011000      -0.11022500 
Pb       1.40247420       6.82291161      27.19923206       82      -0.06396900       0.40237000       0.29289200 
Pb       1.29176943      18.33865521       8.20092189       82      -0.16195000      -0.50884900      -0.10694000 
Pb       1.35634085      18.32229060      27.10232758       82       0.55531200      -0.41575500       0.96583200 
Pb       6.22306909       7.56353416       8.43939668       82       1.09853800      -0.40553000      -0.72364700 
Pb       6.41999739       7.15936528      27.10769453       82      -0.01625600       0.20092400       0.39488900 
Pb       6.21689965      18.39550616       8.26327829       82       0.33702300      -0.18053200      -0.47960300 
Pb       6.44246219      18.25609688      27.25623882       82      -0.39335000      -0.05413500      -0.34583800 
Pb      11.50557899       6.96061202       8.39067966       82       0.21050500       0.30245100      -0.39162300 
Pb      11.78634472       6.95685108      26.98790465       82      -0.28137000      -0.57063300       1.86603500 
Pb      11.27889417      17.51556089       8.17251882       82       0.08263900       0.53840100      -0.10082300 
Pb      11.49384401      18.26001974      27.50009278       82      -0.10822200       0.03362200      -0.57111700 
Pb      16.32243942       6.79982660       7.96328524       82      -0.86809000      -0.37615100      -0.21878300 
Pb      16.60398016       7.11464750      27.58343019       82       0.09265600      -0.26888100       0.02004700 
Pb      16.45525764      17.63630296       7.73696806       82      -1.17284200       0.49106900       0.13979100 
Pb      16.96903243      18.50707656      27.67619488       82      -0.28362700      -0.03442100      -0.34480000 
Pb       3.26672286       3.82366543      10.65495742       82       0.31935000       0.42128200       0.14356100 
Pb       3.93014181       3.78034082      29.65215346       82       0.18551200      -0.24877900      -0.48902300 
Pb       3.18952027      15.23208330      10.50870044       82      -0.17319200      -0.80065600       0.61811700 
Pb       3.77640471      14.47594854      29.55282927       82       0.08428100       0.23332200      -0.13010900 
Pb       8.71159770       3.52201850      10.81821957       82       0.75819000      -0.21021000      -0.14939400 
Pb       9.11987377       3.99343717      29.61601567       82      -0.37711500      -0.74700000       0.43595700 
Pb       7.89695811      15.13449549      10.50796109       82       0.86308300      -0.83129100       0.15464400 
Pb       8.81402901      14.69520110      28.96032736       82       0.01563300      -0.31928200       0.15414900 
Pb      13.97340156       3.74900884      10.33619125       82      -1.07042400      -0.50507100      -0.05154000 
Pb      14.06879474       3.49897321      29.31692491       82       0.20211600      -0.35276700      -0.11284000 
Pb      13.89666032      14.51338173      10.99079089       82      -1.01810100      -0.30386500      -0.02581900 
Pb      13.75231996      14.71534091      29.48763969       82      -0.37684800      -0.03656100       0.18922500 
Pb      18.63355322       3.73582672      10.31473466       82       0.42898800       0.65469700       0.40755100 
Pb      18.88742311       3.66155712      29.64426089       82       0.47899100      -0.09362800       0.61254000 
Pb      18.62789909      14.55516347      10.67990100       82      -0.05327500      -0.25297000      -0.16917300 
Pb      18.66811352      14.61522033      29.85464526       82       0.08865200       0.14797100       0.06348200 
I       3.30873476       3.34974557      18.98661592       53       0.12109600      -0.06799300      -0.19483500 
I       4.42266166       3.57492724      37.58029486       53       0.08347500      -0.23955700       0.37701200 
I       3.73475333      14.92577008      18.45642662       53      -0.25284600      -0.47027700       0.50095800 
I       4.32736930      13.59916539      37.72127451       53      -0.55517000       0.23042200      -0.11845600 
I       8.52920090       3.93001757      18.65717187       53       0.08886000      -0.10665700       0.22089100 
I       9.22127854       3.93670130      37.56979112       53      -0.56504900      -0.29184200      -0.01927200 
I       8.63000074      14.70244190      19.03154451       53       0.13360100      -0.39870900      -0.21105300 
I       8.77496944      13.55548332      37.55839119       53       0.31777900       0.22983100       0.30194800 
I      13.67092362       3.90813427      18.89072883       53       0.33815800      -0.22818200       0.01710800 
I      14.52533566       3.46485999      37.87781830       53      -0.20839400      -0.15940400      -0.26413700 
I      13.43436443      14.35918228      19.01375007       53       0.09936700      -0.16535700       0.14358100 
I      13.71265546      14.28411222      37.83334392       53       0.36797200      -0.32692300      -0.01054100 
I      19.16647488       3.83806352      18.91885795       53      -0.52773600       0.36040800       0.11966800 
I      19.61662333       3.13582839      37.36598254       53      -0.30906300       0.09952000       0.23690700 
I      18.72658270      14.99848154      18.57526430       53      -0.08773300      -0.61082300       0.41191400 
I      19.02036354      13.98366496      37.22444787       53       0.03651400       0.13442200       0.52136000 
I       1.84542259       7.12827874      -0.22882854       53       0.01368700      -0.61945100       0.11241600 
I       0.97329453       7.63693100      18.90865973       53       0.20031700      -0.12526700      -0.06287800 
I       1.84666910      17.46024669       0.10087520       53      -0.34754200       0.01373100      -0.18762700 
I       0.88002572      18.16982242      18.52285355       53       0.35320400       0.13840200       0.82125000 
I       6.54858825       7.44755512      -0.28950052       53      -0.30357200      -0.31142500       0.15577800 
I       6.19909299       7.62586103      18.61179010       53      -0.62501400      -0.50701800       0.42722000 
I       6.52365078      18.19920112       0.72008761       53       0.07622000       0.18594200      -0.61237300 
I       5.87910678      18.48396711      18.83801154       53       0.30379400       0.25055800      -0.44190100 
I      11.79451226       6.84623390      -0.02885931       53       0.56645200      -0.26607800       0.17136800 
I      11.15683836       7.18533439      18.71241579       53       0.25944000       0.33407900      -0.27824800 
I      11.03944070      17.68129164      -0.03584246       53      -0.07889100       0.22307000      -0.05991100 
I      11.46593893      18.31750312      18.69702579       53      -0.18758500      -0.25228400       0.30542100 
I      16.33645154       6.98865458      -0.37091315       53       0.55052100      -0.71670800       0.32418900 
I      16.06863675       7.03871690      18.79302389       53       0.29035100       0.08457800      -0.18785700 
I      16.46507396      17.94554713       0.05438541       53       0.16848000      -0.02387000       0.11707000 
I      15.74324387      17.96062041      18.61200600       53       0.79977500      -0.79733800       0.48387500 
I       3.63889576       8.63380750       9.48496781       53      -0.56943600       0.98019400       0.60940600 
I       3.61454489       9.11527469      28.12329222       53       0.28679700      -0.11535600       0.13197100 
I       3.63493827      19.81598662       9.72359434       53      -0.35272700       0.37191400      -0.13398600 
I       4.02838751      20.23500473      28.12414156       53      -0.29874100      -0.03844200       0.16783600 
I       9.33587867       8.84191270       9.59384658       53      -0.42130600       0.31759100       0.17871900 
I       8.98165805       9.09737638      28.46239576       53       0.21209000      -0.41706800      -0.25035500 
I       8.86489587      19.84838180       9.01329962       53      -0.11673400       0.00818400       0.31752700 
I       8.74502045      20.16530366      28.24915275       53       0.36616000      -0.02963100       0.04086200 
I      14.06594730       8.69977921      10.05787068       53      -0.05377500       0.02398700      -0.67112500 
I      14.25353793       8.86481643      28.75698622       53      -0.11643400       0.09689700      -0.26370900 
I      13.86239026      19.44137058       9.42846922       53       0.13416000      -0.11968500      -0.29806400 
I      13.90172480      20.21217025      28.18261481       53       0.27312600       0.08393100       0.28254700 
I      18.22096628       8.62278642       9.22994204       53       0.96382500       0.67766300       0.25832800 
I      18.98989210       8.92567172      28.61401357       53      -0.26883900      -0.00537800      -0.33362000 
I      18.38471829      20.00018089       8.70251768       53       0.32713100      -0.35443800       0.96121400 
I      19.40538657      20.33772323      28.97735800       53      -0.28532900      -0.55083700      -0.26139200 
I       1.45227887       1.77842739       9.30881479       53      -0.47388400      -0.10890200       0.07185900 
I       1.15058815       1.75909925      28.81052535       53       0.67400700       0.20531900      -0.23780700 
I       1.01864371      12.35400591       9.49605712       53      -0.13517000       0.47904700       0.10359200 
I       0.88092700      12.99740422      28.66449344       53       0.08855400      -0.16296800      -0.22850300 
I       6.49639544       1.59165250       9.60105276       53      -0.42058600       0.05338800       0.03339300 
I       6.21551667       2.02304413      27.76600113       53       0.14164400       0.22073500       0.39367100 
I       5.62307993      12.78975322       9.23730301       53       0.24543800       0.24648700       0.49962000 
I       6.45165933      12.50813305      28.06940378       53       0.05298400       0.38211100       0.06824900 
I      11.34078007       1.44595055       9.46895352       53      -0.12562200       0.36598200      -0.03313900 
I      11.15431070       1.63723388      28.75402676       53       0.12692900       0.06586700      -0.34502500 
I      11.44175406      12.87591260       9.53521853       53       0.00324000       0.10047500       0.02369000 
I      11.59987026      12.86527240      27.83961081       53      -0.19955000      -0.00677700       0.08379600 
I      16.43480825       1.80506965       9.62983569       53      -0.08585300      -0.62248100      -0.27779700 
I      16.78399697       1.91256240      28.33537629       53      -0.47709800      -0.71617900      -0.37149900 
I      16.03675484      12.88177958       9.41220238       53       0.16488600      -0.30131300       0.18143700 
I      16.25524258      12.88831870      28.72083825       53       0.58699900      -0.46431000      -0.13541000 
I       0.76569038       0.04609669      17.05891099       53      -0.00892700       0.66950900      -0.27030200 
I       1.95685347       0.13146172      36.14603041       53      -0.58099900      -0.40317500      -0.05890200 
I       0.91088008      11.30355973      17.07592840       53      -0.06183100       0.19723000      -0.25773200 
I       0.86675093      10.87692401      35.55757051       53       0.64571700       0.26649500      -0.05111900 
I       6.68290555       0.53413966      16.72566527       53      -0.72111700       0.64134500       0.02899600 
I       5.64454161       0.30669614      35.37990619       53       1.25661000       0.27837500       0.08540500 
I       6.32214988      11.78432830      17.01842873       53      -0.42478200      -0.03423700      -0.34323400 
I       6.71641384      10.81523465      35.17530122       53       0.12644600       0.18689300       0.10707600 
I      11.39757196       0.52320005      16.65616583       53       0.07316100       0.16586800      -0.01932000 
I      11.38804486       0.31263848      35.74936609       53       0.10815700      -0.27571400      -0.42888300 
I      10.92576222      11.29541052      17.03581784       53       0.29320800      -0.07302000      -0.19474200 
I      11.51239613      10.94548244      35.87732961       53       0.34954900       0.33635800      -0.11681500 
I      16.74429377       0.86748927      17.17121057       53      -0.30163900      -0.22476000       0.16670100 
I      16.31746659      -0.05886738      35.50813857       53      -0.18503700       0.12308600       0.78338600 
I      16.04842056      11.37863284      16.57358612       53       0.03606500      -0.40571200       0.16488900 
I      16.82625023      10.59198896      35.93900063       53       0.63490100       1.08796800      -0.35400900 
I       3.56003116       9.87299001       1.69072107       53       0.09023600       0.57281200       0.19629200 
I       3.15683179      10.73851174      21.20717189       53       0.23152000       0.07090000      -0.47098400 
I       4.30483932      21.70320419       2.17805728       53       0.54843000      -0.79043100       0.25741100 
I       4.21233024      21.47708763      21.16158033       53      -0.41772600       0.07758500      -0.44618000 
I       9.20141472       9.83207391       1.97688532       53       0.27325300       0.31212500       0.29562300 
I       8.19656824      10.62264065      21.23918925       53       0.37890400      -0.10423500      -0.33361200 
I       9.58931370      21.21378434       1.91249925       53      -0.95758800      -0.62758200       0.33156800 
I       8.56064185      21.30342358      20.95244146       53       0.24016100       0.32665900       0.36993500 
I      14.26553565      10.00838783       1.93952240       53      -0.56927700       0.00128900       0.56901400 
I      13.76838618      10.12094811      20.83401420       53       0.00399300       0.30779600      -0.19574900 
I      13.95384938      21.46586796       2.23948694       53       0.12132700      -0.04943800      -0.46127100 
I      14.19709434      21.50291620      20.82801483       53       0.24043400      -0.14808200       0.08693900 
I      18.71971056       9.55709877       1.93109415       53      -0.01930400       0.90357200       0.34108700 
I      18.96991015      10.72917508      20.77388299       53      -0.41211800       0.16268800      -0.05954000 
I      19.59355768      21.03083760       1.86296344       53      -0.15738700      -0.08999200       0.31953200 
I      18.42121557      21.12540486      21.19931700       53       0.04284600       0.63020400      -0.24121100 
I       0.73766615       6.02898517      11.25003995       53       0.44197200      -0.18314800      -0.06198600 
I       1.33338823       5.53176950      30.37145691       53       0.11229400       0.47561500       0.22872200 
I       0.32797655      16.91394127      11.37300315       53       0.54397000       0.39362200      -0.03229100 
I       2.32787355      17.00174943      30.76044863       53      -0.32985900      -0.32505600      -0.24872100 
I       6.55815710       5.85075157      11.12641785       53      -0.37780300      -0.19555100       0.49048700 
I       6.43204400       6.03421871      30.20564061       53      -0.14020900      -0.17054700       0.06007300 
I       5.79193104      17.15264418      11.40282586       53      -0.16010100      -0.04197400       0.38740200 
I       6.74104375      16.67100081      30.49078443       53      -0.11449000      -0.22587900      -0.28307800 
I      11.48788028       5.62405250      11.38811920       53      -0.27070600      -0.30718200       0.19882600 
I      11.84436072       5.27378631      30.44402986       53      -0.24846400       1.09322100       0.19133600 
I      10.58702631      16.78831598      11.68311600       53      -0.05045900      -0.15536500      -0.35668500 
I      11.29245208      16.64946275      30.54688992       53      -0.01705200      -0.04411900      -0.32109800 
I      15.66452286       5.61294078      11.94694784       53       1.27566900       0.12684300      -0.19443200 
I      16.37940036       5.52236869      30.82795099       53      -0.21532900       0.04201700      -0.31641100 
I      16.11304494      16.58045520      11.76384937       53       0.64021600       0.11967300      -0.09599000 
I      15.88093614      16.77883268      30.48385323       53       0.64063500       0.42958300       0.36275700 
I       3.92797976       5.38025149       7.45712092       53      -0.12913000      -0.48632000      -0.07561100 
I       3.92206491       5.33315067      26.13593676       53       0.00430300      -0.56817900       0.02695200 
I       3.43497312      15.63273159       7.53528894       53      -0.17531100       0.84585100      -0.84812900 
I       3.52030963      15.90744499      26.30101065       53       0.12127700       0.18048000       0.34302400 
I       9.03182120       5.41867864       7.27949836       53      -0.46820200      -0.39056800      -0.00396800 
I       9.22332552       4.84741945      26.62158956       53      -0.00096700       0.44733900      -0.72337700 
I       8.53134666      16.06565896       7.16270460       53      -0.31881000      -0.10547200      -0.00281300 
I       8.65455733      16.55779283      25.77486947       53       0.65696000      -0.57078400       0.64366400 
I      13.75755961       4.19796882       6.76560950       53       0.15121100       0.50979500       0.62048200 
I      13.96673311       4.96798025      25.94987577       53       0.18289800      -0.15578800       0.36500600 
I      13.61002149      15.79378790       6.93210609       53       0.47847400      -0.07008800       0.21797900 
I      14.65190602      16.33751780      26.62297662       53      -0.45317600      -0.12357700      -0.15469200 
I      19.24241873       4.81287749       7.13813172       53      -0.24467200       0.09481000       0.16497000 
I      18.95686450       4.90230184      26.46526370       53       0.08832200       0.15309100      -0.03427300 
I      18.62722185      15.62226247       7.35359076       53       0.86244200      -0.38789300      -0.18593900 
I      19.10596789      16.31050280      26.32335630       53      -0.27348500      -0.03644500       0.29068500 
I       1.48129501       3.26671776       4.33602567       53       0.11922100      -0.34835800      -0.16965600 
I       1.09716104       3.20011567      22.69315764       53       0.01498900       0.39108900       0.75446100 