320
Lattice="19.36678611 -0.0990082707347 0.0977614663871 -0.109110633349 21.4631159019 0.0511445638184 0.162675985404 0.131858170286 36.569421979" Properties=species:S:1:pos:R:3:Z:I:1:forces:R:3 energy=-101595.191724 stress="-859.150532 1340.582339 -824.331181 1340.582339 -1649.461083 -1141.06473 -824.331181 -1141.06473 -1748.572518" pbc="T T T"
Cs       3.98029544       0.55089268       6.28178409       55      -0.10652400      -0.00804700      -0.05997200 
Cs       3.71121696       0.71368872      24.35516961       55      -0.02580700       0.02274100      -0.04081800 
Cs       3.80382982      11.72682370       6.53430281       55      -0.08605500      -0.20750200      -0.34778300 
Cs       3.53393752      11.33753734      24.05409933       55       0.10591400      -0.01446400       0.15525700 
Cs       8.17490445       0.21180421       5.72618170       55       0.18577300       0.16207100       0.49480800 
Cs       8.63715889       1.30923707      24.24868642       55      -0.23158100      -0.29800700      -0.03907400 
Cs       8.07660274      12.20988117       5.30577836       55       0.49878400      -0.32891200       0.44581000 
Cs       8.92654837      11.37065589      24.55056363       55      -0.30776700       0.36759200       0.08602600 
Cs      13.38404219       0.93854747       5.56071590       55      -0.21527900      -0.21159800       0.18075100 
Cs      13.34947117       0.82362891      24.70305755       55      -0.13901500      -0.19723400      -0.30124000 
Cs      13.49679582      11.83554071       5.93895324       55      -0.10920200      -0.03345000      -0.09629100 
Cs      13.22993737      11.77018140      24.06174252       55       0.43616400      -0.02635100       0.22771900 
Cs      17.94441164       1.29489636       6.62246181       55       0.54445700      -0.48868600      -0.06178600 
Cs      17.92662081       0.66101689      23.85716722       55      -0.18110800       0.47657400       0.02570900 
Cs      18.40736377      11.30632295       6.40748302       55      -0.38721400       0.20100900      -0.46021200 
Cs      17.87846681      11.56790781      24.05878739       55       0.01208000      -0.10199200       0.26979200 
Cs       1.37634702      10.10241182      12.53618571       55      -0.22956900      -0.22727500       0.22445000 
Cs       1.28379419       9.97416220      30.72466889       55      -0.04280400       0.24713400      -0.27262600 
Cs       1.72611845      20.22319112      12.18676068       55      -0.00693200       0.24845300       0.19256500 
Cs       0.37141190      20.88107870      30.52450808       55       0.15212800       0.07339800      -0.07081000 
Cs       5.39962130       9.82823492      11.71098033       55       0.77802100      -0.32824500       1.02525300 
Cs       6.23847461      10.19393041      31.46899239       55       0.09073400      -0.13230700      -0.64155500 
Cs       6.23207133      20.11581834      12.47054791       55      -0.01522900      -0.06934800      -0.02326400 
Cs       5.98660734      20.93085345      30.87994671       55       0.10050600      -0.30788400      -0.02621000 
Cs      10.47576822       9.62020359      12.14102746       55       0.14185000       0.12231700       0.36319300 
Cs      10.71505428       9.95192342      30.40860153       55      -0.07340200      -0.20790100       0.06935800 
Cs      10.63625171      20.98269768      12.43949786       55       0.37485400      -0.19678500      -0.03889700 
Cs      10.77440590      20.43156686      30.55630996       55      -0.09279100      -0.26537300       0.50053300 
Cs      16.28852557       9.64222293      12.55169549       55      -0.34874700       0.18688800       0.22803500 
Cs      15.97100475       9.68538775      30.43985036       55      -0.18051400      -0.01162900       0.01331200 
Cs      16.09740040      20.70730350      12.57108639       55      -0.19963200       0.03839800       0.02924300 
Cs      15.14824673      20.14342320      30.62784819       55       0.21648600       0.21227200       0.01658200 
Cs       3.18466304       6.55282085       3.26631741       55       0.03879900       0.15470000       0.04430500 
Cs       3.88978749       6.44714656      21.83049512       55      -0.14578300      -0.08095700      -0.13494000 
Cs       3.06528768      17.74762714       3.29547512       55       0.62096000      -0.39122400      -0.47133200 
Cs       3.57588801      17.03821810      21.42083280       55      -0.32773300      -0.12408100       0.44863300 
Cs       7.99726878       6.35780766       2.93687962       55       0.26835300       0.01021200       0.10299500 
Cs       8.62240487       6.24932683      21.79642302       55      -0.14440500      -0.00037900      -0.17262200 
Cs       8.36510067      17.14803824       3.35486315       55       0.14098000      -1.02671600       0.30426800 
Cs       8.69686871      16.98732840      21.61994362       55      -0.36713300      -0.07731800       0.07394600 
Cs      12.55025285       5.53359618       3.26412788       55       0.08179300       0.36296800       0.06040700 
Cs      13.40395957       6.42865508      21.92874665       55      -0.04591300       0.00165600      -0.48814200 
Cs      13.32491296      17.03721632       2.49583070       55       0.11055600       0.24331800       0.63009700 
Cs      12.86987071      17.21736331      21.26484350       55       0.53239900       0.09446600       0.26659400 
Cs      17.88023024       6.21759187       3.60043441       55      -0.00232000       0.11525500       0.04375100 
Cs      18.09056328       5.87873367      21.16232608       55       0.14582700      -0.07782600       0.16519000 
Cs      18.29808191      16.86605774       3.23702292       55      -0.30837200       0.25096400       0.00573100 
Cs      18.57053277      16.55591836      21.48838362       55      -0.43258800       0.16001000       0.04960300 
Cs       1.08254206       4.80204480      15.28657706       55       0.20718800      -0.24484600      -0.18055200 
Cs       1.52197909       4.71894387      33.18363473       55      -0.22504200       0.01665300       0.01227000 
Cs       1.21413355      14.43554994      14.78580356       55       0.08999400       0.63892900       0.12536300 
Cs       1.24585079      15.31175326      33.37967922       55      -0.11804400       0.05225500      -0.13881300 
Cs       6.03944153       4.77036692      14.95753585       55       0.01091500      -0.08286100       0.04001200 
Cs       6.53842208       4.18073868      33.92343844       55      -0.00634700       0.31036900      -0.10611000 
Cs       6.03208076      14.90401576      15.39040821       55      -0.19439000      -0.20798600      -0.01044400 
Cs       6.51143718      15.11335490      33.63252563       55      -0.28094800       0.09649200      -0.22407100 
Cs      11.28629830       4.25538260      15.23473578       55      -0.54403300       0.26445500      -0.17754000 
Cs      11.12972349       4.09802349      33.46176559       55      -0.07521500       0.09535400       0.02133200 
Cs      10.77807251      15.29571012      15.33930596       55       0.34529200      -0.65387600      -0.03038700 
Cs      11.47172872      14.73838268      33.57592445       55       0.18392700       0.20894800       0.32643000 
Cs      15.60802133       4.70301488      15.05796116       55       0.13923800      -0.05509800       0.23595400 
Cs      16.00575290       4.97500225      33.81898438       55      -0.07295500      -0.08331700      -0.08128800 
Cs      15.64161026      16.39609024      15.62854587       55       0.28924100      -0.30513400      -0.06603900 
Cs      16.07803803      15.29496519      33.35699761       55      -0.28516300      -0.64665400       0.19562800 
Pb       1.13237979       1.90166693       1.23964236       82       0.43646700       0.16999800       0.14879100 
Pb       1.56214154       2.07389519      19.10738094       82      -0.34899000      -0.28327900      -0.16161700 
Pb       0.96895592      13.03788915       1.95923347       82       0.50139300      -0.20175200       0.03485500 
Pb       1.29143148      12.26421311      19.59584286       82      -0.05392100      -0.03623700      -0.43675400 
Pb       5.88581398       2.38050671       1.23217137       82       0.39860500      -0.89349800       0.25754600 
Pb       6.12266646       1.69787002      19.14863274       82       0.34762700       0.68678000       0.16124700 
Pb       5.65258285      12.97647691       1.22068247       82      -0.01965700      -0.20688400      -0.28542800 
Pb       5.98200981      12.28501319      19.43182659       82       0.31236000      -0.85906300      -1.28599600 
Pb      10.67070957       1.31188812       1.31645416       82       0.15164800      -0.45011600       0.14536200 
Pb      10.88696960       1.77866038      19.65585873       82      -0.51648100       0.24428400       0.06994700 
Pb      11.08645239      12.45505585       1.32291550       82      -0.17854900       0.14339100      -0.25666700 
Pb      11.31006238      13.17069399      19.50357049       82      -0.78292100      -0.69413100       0.03582200 
Pb      15.66722141       2.06735906       1.14857348       82       0.04416400      -0.39124600       0.29529200 
Pb      15.60791111       1.71164194      19.56647359       82       0.28591000      -0.40320300      -0.81371500 
Pb      15.82306506      11.98700924       1.34590610       82      -0.08496000      -0.09934400      -0.57741400 
Pb      15.95034539      12.38045129      19.60748233       82      -0.09441300       0.60357500      -0.27535100 
Pb       4.00007407       8.79297794      17.30284469       82      -0.47338000      -0.44170900      -0.19124200 
Pb       3.19166168       9.20441649      35.59734954       82       0.30885900       0.38499300      -0.15096500 
Pb       3.88479732      19.76970171      17.44747105       82      -0.69563900      -0.11669100      -0.15414700 
Pb       4.20810343      19.67865252      35.19394585       82      -0.42842600       0.22870000       0.45691900 
Pb       8.69255853       9.34275961      17.27415048       82      -0.21611600      -0.22965500      -0.59903900 
Pb       7.97580840       9.53774033      35.55823118       82       0.83921100      -0.32357700      -0.34263000 
Pb       8.06552320      19.12025343      17.26636853       82       0.11243000       0.66422200       0.65021100 
Pb       8.51269593      18.88284594      35.93557893       82       0.99605200       0.79458700      -0.64638800 
Pb      13.22320640       9.08732315      17.12506043       82       0.26138000       0.28618700      -0.42971700 
Pb      13.36925865       9.36871027      35.05883339       82      -0.69160800      -0.34534400       0.08859300 
Pb      12.81807568      19.80441444      17.31460717       82       0.17916300       0.54095900       1.02291900 
Pb      13.83029777      19.82746802      35.20584707       82      -0.34877300       0.05889300       0.88537400 
Pb      18.19424289       9.12068575      17.54542145       82       0.31105100      -0.30650600      -0.82063800 
Pb      18.21481762       9.33745651      35.36579524       82       0.35322800       0.06451600      -0.07576400 
Pb      18.31407486      20.02710137      17.31021727       82       0.05091400       0.44255800       0.45970100 
Pb      18.46134439      19.70289386      35.33019391       82      -0.11456700      -0.26615500       0.10285200 
Pb       1.20084578       7.17460917       8.48660849       82      -0.48925800      -0.18731600      -0.34735400 
Pb       1.25810234       7.17204667      26.34399476       82      -0.05063200       0.51214100      -1.04064800 
Pb       1.22356281      17.61240447       8.14362806       82       0.18035300       0.15046800      -0.11707800 
Pb       1.07470500      17.76892712      26.06101642       82       0.65582200       0.22593900       0.87953700 
Pb       6.21465445       7.07880795       7.93179827       82       0.35047000       0.04932400       0.53100400 
Pb       5.80275438       6.88257157      26.42875383       82       0.20067200       0.86669100       0.17692200 
Pb       6.32680878      17.37662166       8.54808273       82       0.08584000      -0.02591300       0.04806500 
Pb       5.56789659      17.96627647      26.76543431       82       0.47049600       0.05045400      -0.30692100 
Pb      10.97417309       6.84332528       8.20770613       82      -1.46355400      -0.14392300      -0.30330600 
Pb      11.35631518       7.10610775      26.15748188       82      -0.74949700       0.18880600       1.08938900 
Pb      11.00746385      17.82148381       8.28328885       82       0.77050500       0.37737500       0.15399000 
Pb      10.88140966      17.87392635      26.55311248       82       0.09068100      -0.08943100      -0.12990300 
Pb      15.08876816       7.16180654       8.31019699       82       0.18616200      -0.14404800      -0.23269700 
Pb      15.56850147       7.43113399      26.54394694       82       0.98077400      -0.13573700      -0.30803100 
Pb      15.93265100      17.97520288       7.79307136       82      -1.10201100       0.27381700      -0.06916500 
Pb      16.12093420      17.55852225      26.26004359       82      -1.09367800       0.40948400      -0.37996300 
Pb       3.65113319       3.62188889       9.81959979       82       0.73096400      -0.96623200       0.47802500 
Pb       4.28119450       3.86387521      28.88777675       82      -0.05222500       0.13758900      -0.62888600 
Pb       3.48956427      14.00953451       9.89351944       82       0.73900400       0.53397000       0.34118900 
Pb       4.18922423      14.10768763      28.64854087       82      -0.08028300       0.07688600      -0.16879100 
Pb       8.51699135       3.56743198      10.75321121       82      -0.06726600      -0.58256800      -0.72656900 
Pb       8.54967002       3.29190888      28.28789263       82       0.43579200       0.05363400       0.62640300 
Pb       9.00049853      14.21055243      10.49706525       82      -0.61692700      -0.55392700       0.08284500 
Pb       8.91914234      14.88364867      28.94084712       82      -0.46010600       0.30552100      -1.03136200 
Pb      12.94710468       3.95876519      10.21627841       82      -0.19288800      -0.64646200       0.64097200 
Pb      13.94380617       3.69575344      28.64337653       82      -0.42639200      -0.09004200       0.66133700 
Pb      13.44438083      14.13876425      10.51368701       82      -0.03430700       0.62572400      -1.40038300 
Pb      13.42998600      14.18907237      28.32829716       82       0.40688000       0.24119000       0.18761300 
Pb      17.90265009       3.32086682      10.34088308       82       0.42230100       0.61124000       0.36779500 
Pb      18.36061107       3.90293059      28.12803007       82      -0.19002300       0.23996900       0.38179200 
Pb      17.68305999      14.17005540      10.15166207       82       0.37773700       0.73826300       0.78821400 
Pb      18.45132174      14.31389647      28.50404639       82       0.05246500      -0.39395300       0.25015500 
I       3.60291916       4.05132885      18.29628009       53       0.57695500       0.19330700      -0.20475400 
I       3.88503251       3.97172822      36.68896070       53      -0.47549700       0.48593700      -0.46241600 
I       3.51469914      13.93981286      18.31257023       53      -0.11855200       0.29026300      -0.12273200 
I       3.23649743      14.64630711      36.49491090       53       0.36372600      -0.24479600       0.42555000 
I       8.44811501       3.69673454      18.35414382       53       0.14918800      -0.07210700       0.00116400 
I       9.29043516       3.83555100      36.86782152       53      -0.90691700       0.18034200      -0.25930100 
I       8.03106928      14.33193528      18.44219655       53       0.41184700       0.21302500      -0.08359800 
I       8.52972607      14.50236369      36.47540388       53       0.35410000      -0.07400200       0.30184600 
I      12.62039470       3.93831347      18.43490761       53       0.69642600      -0.15431000       0.31380500 
I      13.01101053       3.46281752      36.89142519       53       0.56912500       0.35155600      -0.19930300 
I      13.65254500      14.61141233      18.52756574       53       0.42916200       0.30602500      -0.23181700 
I      13.68062418      14.25522090      36.83251935       53       0.08722500      -0.29543400      -0.37747700 
I      17.96663073       3.27272758      18.09229424       53      -0.26474400       0.34937700      -0.02243700 
I      18.26893798       3.95336171      36.83922572       53       0.31291100       0.21409200      -0.12124800 
I      18.39288923      14.25330198      18.39552060       53       0.00863700      -0.23264000       0.26873500 
I      18.42209023      14.38382281      36.96279416       53      -0.58917700      -0.14309200      -0.43398100 
I       0.74774016       7.37425728       0.22631615       53       0.31270000      -0.24893100       0.00306500 
I       0.82979208       6.81508669      18.20197957       53       0.03799200       0.70338100       0.21840600 
I       0.93334967      17.51351133      -0.20775382       53       0.02107800       0.68652100      -0.07252900 
I       1.03925718      18.42976492      18.88667000       53       0.18922700       0.07939100      -0.31720800 
I       5.80279079       7.37117816      -0.01195338       53      -0.41062700      -0.28056900       0.20919300 
I       6.40320531       7.21122506      18.40112975       53       0.02330600      -0.01685400      -0.02749000 
I       5.99390415      17.42482388       0.54057973       53      -0.74150700      -0.08656700      -0.11480900 
I       5.83146335      17.81735962      19.04133377       53       0.06885400      -0.04316500      -0.32691500 
I      10.57306521       7.60657324      -0.17345735       53       0.26031700      -0.03982200       0.18850400 
I      10.87613215       7.53220682      18.44174880       53       0.07936300      -0.24954800       0.13434400 
I      11.32385103      17.72869283      -0.26540400       53      -0.43103400      -0.20816100       0.13386700 
I      10.60333293      17.47931130      18.26876971       53       0.21046300       0.10839600       0.30541900 
I      15.66471205       7.62864965      -0.10483292       53      -0.19204200      -0.19126300       0.20881400 
I      15.89290480       7.43217316      18.40929548       53      -0.68164000      -0.37401100       0.13677900 
I      15.87960326      17.59317494       0.19471502       53       0.29248400       0.54412400      -0.66624000 
I      15.68591855      18.46002182      18.68884535       53      -0.02947500      -0.16167500      -0.05281900 
I       3.59787093       8.63725434       9.16559728       53      -0.40225200       0.34457900      -0.13596000 
I       3.51922385       9.36108281      27.40018270       53       0.18349500      -0.54146600      -0.21534800 
I       3.69072292      19.31480509       9.20646628       53       0.17488300      -0.02129500      -0.18013700 
I       3.37179391      19.92242589      28.13575298       53       0.13431900      -0.19284600      -0.38663300 
I       8.89660244       9.17101650       8.98562053       53      -0.63115200      -0.67969100      -0.19205100 
I       8.52652099       8.81417558      27.67893449       53       0.23161100      -0.02171100      -0.18336600 
I       8.59561580      19.59755907       9.49842122       53      -0.23857800      -0.20576100      -0.23946800 
I       8.24072726      19.66944762      27.80316128       53      -0.03317200      -0.28810400      -0.08297700 
I      12.63983776       9.05342031       8.83125099       53       1.15840800       0.74271700       0.50859900 
I      13.37790756       9.12487293      27.72853310       53      -0.32744100       0.15209200      -0.31933800 
I      13.22439317      19.90523633       9.03262417       53       0.51449400      -0.01319100       0.19811500 
I      13.75446511      19.77721206      27.38795476       53      -0.52927200      -0.44186100      -0.19946300 
I      18.53586826       9.13382787       9.81259820       53       0.28037000      -0.62542000      -0.38495600 
I      18.35091512       9.02322049      27.02993101       53      -0.00666000       0.01674800       0.40661500 
I      18.28026550      19.53724109       9.32147242       53       0.15642400      -0.08573300      -0.07973000 
I      17.52329289      19.92158649      27.32188496       53       0.75571700       0.09898000       0.17171900 
I       1.47643875       1.50253504       8.83612406       53      -0.28171000       0.18177900       0.24371200 
I       1.14935286       2.21248826      27.34576613       53       0.65556000      -0.47373200      -0.09115100 
I       0.93489267      12.73640163       8.95568640       53       0.01502200      -0.08148500       0.17084400 
I       1.33919973      12.40189691      27.49058831       53      -0.06776800       0.33375200       0.02788400 
I       6.34723590       1.74973098       9.15563957       53      -0.08154400      -0.13213700      -0.19712600 
I       6.33044685       1.35927259      27.41446338       53      -0.22997000       0.61440500       0.26224500 
I       6.33375132      11.86338568       9.17908579       53      -0.17351200       0.82109100      -0.43964500 
I       6.73752306      12.34747937      27.90388280       53      -0.26419400       0.36552900       0.21618600 
I      10.73323676       1.49334490       9.24354469       53       0.26394500       0.72976000       0.14419000 
I      11.18105503       1.21753544      27.95189411       53      -0.15689500       0.84653100      -0.49464500 
I      10.94383746      12.32981352       8.66842838       53       0.15344800       0.52074900       0.47222400 
I      11.01634204      12.83867698      27.17595965       53      -0.30460700      -0.18698900       0.15400100 
I      15.59990775       1.82190294       9.35359215       53      -0.50787900      -0.33012100       0.16995800 
I      15.97418621       2.41997934      26.62660309       53       0.14294300      -0.30833700       0.33726800 
I      16.23199721      11.87918772       9.19663650       53      -0.98482300       0.01033800       0.06523800 
I      15.84182912      12.27848001      27.59667690       53       0.00366700       0.20317400      -0.44213300 
I       1.66617147       0.46793345      15.93190705       53      -0.05392800      -0.18725400       0.51351000 
I       1.82451956       0.42261944      34.63359537       53      -0.12632700      -0.19262100      -0.04141500 
I       1.03249669      11.30343768      16.24463845       53       0.15272500      -0.56539000       0.32252900 
I       1.48691505      11.49066400      34.38699675       53      -0.28014600      -0.38482000       0.25583300 
I       6.13615596      -0.08187972      16.02407118       53       0.20891100       0.21460700       0.25401000 
I       6.66671107       0.19371521      34.71588445       53      -0.14535500      -0.25669500       0.09915600 
I       5.76182141      10.61749651      15.93607651       53       0.39853300       0.54839100       0.02906700 
I       5.77139041      11.52728679      34.60734359       53      -0.25486100       0.03954700       0.48888100 
I      10.23240716      -0.27877738      16.22267029       53       0.42102300       0.48913300       0.15070500 
I      10.81186317       0.10480537      34.94267984       53       0.16494300      -0.00185500       0.00290100 
I      11.07014947      11.22021275      16.12078364       53       0.21196000      -0.12679700       0.34581300 
I      10.49294991      10.96164403      34.13413755       53       0.43335500       0.35393700       0.17207200 
I      15.56435661       0.28891812      16.51589466       53      -0.21291900       0.00801500      -0.21139600 
I      16.18306088       0.27772050      34.33387226       53       0.26471000       0.19018900       0.09096500 
I      15.68724113      11.30462643      16.43834972       53       0.00395100      -0.16269400       0.40454200 
I      16.26713210      11.27288950      34.28346476       53      -0.60216600       0.34786800       0.00840400 
I       3.41980523      11.01766658       2.48652149       53       0.12708500      -0.27151100      -0.19165900 
I       3.85887914       9.85655125      20.18156045       53      -0.34000600       0.54479400       0.46323900 
I       3.51285993      21.17043670       1.68675210       53       0.14822600       0.38482000       0.08991500 
I       3.64025441      21.65200135      20.33292762       53      -0.17150800      -0.72405400       0.01078000 
I       8.24205672      10.78903494       1.83758984       53      -0.13384400       0.02425200       0.25979300 
I       8.78959277      10.68860963      20.00923379       53       0.03885500       0.18709200       0.67129900 
I       8.91030646      20.27653506       2.65789952       53       0.02358600       0.85719100      -0.87686800 
I       8.20734006      21.18591794      20.12543359       53      -0.00758500      -0.07009700       0.20752000 
I      12.98894101      10.03346265       2.07333526       53       0.20068500       0.48058700      -0.02581600 
I      13.21075115      10.82929383      20.28055593       53       0.00542000      -0.15969000      -0.02279800 
I      13.59323766      21.27629403       1.88365370       53      -0.17533200      -0.30684800       0.02978200 
I      12.68852907      20.99251172      20.60205432       53       0.25154200       0.21705100      -0.05627300 
I      18.25723061      10.43518557       2.56396605       53       0.07309200      -0.10113000      -0.12372000 
I      18.02177452      10.28330768      20.44965094       53       0.12692500      -0.03002100       0.28907500 
I      18.18075536      21.45346818       1.91092890       53      -0.44342100      -0.60928600      -0.02833000 
I      18.23551831      21.64632037      20.16242048       53      -0.38355400      -0.35700800       0.45453800 
I       1.44458963       5.20126526      11.03233695       53      -0.51231000       0.51653000       0.27871500 
I       1.60603850       6.31852496      29.15318567       53       0.04394200      -0.73031700       0.71166500 
I       1.68339744      16.39959054      11.10826606       53      -0.14356000      -0.32231900      -0.12032800 
I       1.28386701      16.42161086      29.31986580       53      -0.02358600      -0.05890400      -0.10016800 
I       6.12176211       5.45412053      10.85747929       53      -0.25631800       0.38332500       0.37481300 
I       6.78081974       5.86486334      29.48684508       53      -0.53328600      -0.61765800       0.03759800 
I       6.27714227      15.59277528      11.58713537       53       0.00798000       0.36593000      -0.63105200 
I       6.07102987      16.32895470      30.01749072       53       0.10793900      -0.03566900      -0.50066500 
I      10.45023185       5.78250734      11.64342558       53       0.66627900      -0.08900200      -0.24310200 
I      11.56237641       5.70270891      29.01490552       53      -0.20082100      -0.31631100       0.24120100 
I      10.72112396      16.44668471      11.37254135       53       0.47205400      -0.04517800       0.15668100 
I      11.43382960      16.59744471      29.79212124       53       0.02838700      -0.06982500      -0.26339500 
I      15.33053798       5.85932800      11.37543350       53       0.16915400      -0.35428600      -0.36210000 
I      16.01739827       5.78478052      29.47334181       53      -0.27568900       0.31467900      -0.15265500 
I      15.53504342      16.70785136      10.92899882       53       0.03953900      -0.38393500      -0.00767900 
I      15.87444974      16.37433168      29.20483900       53       0.01290000      -0.14397400       0.09028700 
I       3.80642380       5.00540578       7.13838886       53      -0.13087200       0.26472900      -0.23628200 
I       4.27652514       4.56116555      25.11937998       53      -0.21343800       0.28679600       0.52790500 
I       4.01126579      15.61757950       7.14902262       53      -0.18726900       0.03101300       0.34099200 
I       3.51583671      15.67125212      25.31417274       53      -0.06472600       0.39630300       0.17784800 
I       8.37080625       5.43678926       6.93987734       53       0.02262400      -0.95003900       0.03584800 
I       8.44234546       5.37069682      25.82734147       53       0.36275100      -0.50459100      -0.40003700 
I       9.07813695      15.85953926       7.22985726       53      -1.01987200      -0.67027600      -0.00981900 
I       8.32197521      16.00838920      25.69807433       53       0.04775600       0.09910100       0.12624600 
I      13.10089263       4.76249936       7.11662538       53       0.26732500       0.03517100       0.17139700 
I      13.67693985       5.33655780      25.43679256       53      -0.06717000      -0.63321900      -0.16252900 
I      13.39632425      15.42739510       7.28283119       53       0.16261800       0.52256900       0.17858400 
I      13.08542419      15.88816951      25.32191435       53       0.09861000       0.12716700       0.38945900 
I      17.03940586       5.03895534       7.22459943       53       0.68027900      -0.01119500       0.34575800 
I      18.16716745       5.15003705      25.25823777       53       0.24239500       0.33123100       0.09382300 
I      17.76590015      15.70329804       7.26327201       53       0.44995600      -0.32276700      -0.14569200 
I      18.46496082      15.68964617      25.36693510       53      -0.17210400      -0.50636100      -0.23618900 
I       1.64918265       3.04432621       4.17398802       53      -0.64141000      -0.15088800      -0.36214000 
I       1.69777358       2.99938516      21.93952801       53      -0.35446300       0.35017000       0.31912400 