320
Lattice="20.2440000798 -0.111567625975 0.174191502811 -0.0847313165983 22.7499167482 0.16651312534 0.179486439589 0.270621198357 37.8938550917" Properties=species:S:1:pos:R:3:Z:I:1:forces:R:3 energy=-101593.875408 stress="1186.45747 247.293528 -318.188495 247.293528 -528.755686 156.653992 -318.188495 156.653992 905.931144" pbc="T T T"
Cs       4.05632018       0.15039922       5.69673968       55      -0.27374400       0.09690800       0.41908000 
Cs       4.20077313       1.35270225      25.38974888       55      -0.26191200       0.00894600      -0.15348800 
Cs       3.94535150      12.75420516       6.70163423       55       0.16063100      -0.29920600       0.35188400 
Cs       4.49223299      11.79365083      24.60568114       55      -0.37873800      -0.08049900       0.58551500 
Cs       9.17485153       0.23813757       6.92332914       55      -0.36377400      -0.28262800      -0.43683100 
Cs       8.85313532       1.04438056      25.30999505       55       0.22402800      -0.17651200      -0.05242200 
Cs       8.50676180      11.92177823       5.85024764       55       0.08804100      -0.10615700       0.02191300 
Cs       9.55643011      12.84066961      25.28058730       55      -0.43945200       0.15687400      -0.09478100 
Cs      13.80756575       0.06050138       6.41162189       55      -0.13566000       0.38197300      -0.22828500 
Cs      13.69976129       0.79574044      24.69752990       55       0.05278700       0.14213700       0.08571300 
Cs      13.60420073      11.58468780       6.25193753       55       0.09796200       0.36952900      -0.36833800 
Cs      13.69194833      12.94002005      25.38756988       55       0.32865800      -0.19690500      -0.08015600 
Cs      19.02596018       1.80668708       6.71131696       55       0.12348800      -0.40503700      -0.73938100 
Cs      18.47486862       0.72218150      25.86127975       55       0.49056800      -0.33748900      -0.77541100 
Cs      19.08164023      12.59930206       6.58068181       55       0.16772300      -0.26069800       0.30845300 
Cs      19.23317980      12.53196781      25.96480326       55       0.12706300       0.09102100      -0.28238500 
Cs       1.08698662      10.53351957      12.89934745       55      -0.11891300       0.10111200      -0.05211800 
Cs       1.63657928      10.53422330      32.05863854       55       0.31537500       0.16363600      -0.22950600 
Cs       1.11433866      22.20094255      12.86467558       55       0.06108900      -0.01804500      -0.05675400 
Cs       0.86436504      21.73044622      31.19564809       55       0.21226000       0.12991800       0.05942500 
Cs       6.03142612      10.36968473      13.20802665       55       0.04650900      -0.13120200      -0.00520000 
Cs       6.94358017      10.30834298      31.79593303       55      -0.04758000      -0.02723400      -0.00374000 
Cs       6.12744179      22.22835109      12.69912200       55      -0.36570400       0.22699200      -0.03832000 
Cs       6.88195487      21.84279669      31.82278064       55      -0.43191400       0.08217200       0.01449900 
Cs      11.76633886       9.78747797      12.94527184       55      -0.22858900       0.18026900      -0.02583600 
Cs      11.62726509      10.67060131      31.59010547       55       0.08755500      -0.33787300       0.52446300 
Cs      11.24105935      22.96356858      13.21885076       55      -0.19302000      -0.33554400       0.12707800 
Cs      11.78366503      22.25717121      31.76764509       55      -0.13704300       0.05175900       0.05374700 
Cs      15.98894512      10.87950680      13.89769063       55       0.23168300      -0.47971100      -0.42517800 
Cs      16.55795563      10.52048461      32.20851484       55      -0.23518900       0.25358700      -0.33622600 
Cs      15.73575283      21.64786206      12.65221548       55       0.62241900       0.21598600       0.19055700 
Cs      16.72476566      21.62788841      32.26000435       55      -0.23860100      -0.01780000      -0.01949800 
Cs       4.18477531       6.49285818       3.29192712       55      -0.62909700      -0.34065100      -0.02410900 
Cs       4.67460833       6.99429712      22.70899246       55      -0.97567200      -0.50761700      -0.95570400 
Cs       3.46762163      17.77403946       3.25168088       55       0.07408300       0.42205200       0.07283600 
Cs       2.94513445      18.76183488      22.49253597       55       0.49363400      -0.10940700      -0.17384500 
Cs       8.93085295       5.28985450       3.69264823       55       0.28486200       0.51723600      -0.31473700 
Cs       8.97215634       7.20237971      22.23130266       55       0.37044500      -0.50482400      -0.32741500 
Cs       9.16551399      16.68812436       3.84630618       55       0.15700300       0.54757600       0.01480000 
Cs       8.26107119      18.37595173      21.89568030       55       0.31421600      -0.29979900       0.35947700 
Cs      14.38179003       6.47438754       2.61211847       55      -0.49141100      -0.37019000       0.65669100 
Cs      14.03177663       6.81118107      22.57122958       55      -0.70982800       0.53371000       0.02308800 
Cs      14.68293160      17.26335442       3.62537048       55      -0.50880400       0.30211700      -0.06421800 
Cs      13.77785185      17.98216520      22.30220282       55       1.15368000       0.81188200      -0.39832800 
Cs      18.97489393       6.25738657       3.88766402       55       0.04474300      -0.23332800      -0.20134200 
Cs      18.90176854       6.54678250      22.40247274       55       0.16294500      -0.11172600       0.18453200 
Cs      19.02385823      18.41919679       3.70191180       55      -0.14117400      -0.11974300      -0.09215200 
Cs      18.96341952      17.95878591      22.93253351       55      -0.54298700      -0.10095800      -0.47734700 
Cs       1.05256953       4.96858724      15.68340035       55      -0.12813300      -0.04909700       0.06300100 
Cs       1.81631125       4.57573560      34.24898869       55      -0.05985300       0.12055900       0.06229500 
Cs       1.40615193      16.69172726      16.05099574       55      -0.17274600       0.00488100      -0.00890000 
Cs       1.51066889      15.66676250      35.51283174       55      -0.62529000       0.29836900      -0.59146700 
Cs       6.34308770       5.05349732      16.11232208       55      -0.19611100      -0.05046800      -0.23436700 
Cs       6.72923077       4.17846433      34.23958437       55      -0.87644700       0.59234300       0.81201000 
Cs       5.98657736      16.09963334      15.71520593       55       0.38131900       0.23116600       0.09652100 
Cs       5.85009765      15.66359211      34.60270361       55       0.36598400       0.08478300      -0.21002900 
Cs      11.09027179       4.49933503      15.79862635       55       0.06515900       0.37885400       0.01322900 
Cs      11.76735695       5.38288369      34.47025314       55      -0.22345100      -0.22162400       0.07629700 
Cs      11.36676427      16.01027383      16.20799565       55      -0.53552800       0.24769200      -0.45288900 
Cs      11.31020378      16.55519310      34.46765396       55       0.14520300      -0.10761200       0.33359900 
Cs      16.29414984       5.00670894      16.07102794       55       0.27742900      -0.12734600       0.03133500 
Cs      16.99448176       5.18555123      34.40404794       55      -0.01841600      -0.10461500       0.07537000 
Cs      15.90016093      16.45886819      15.47659989       55       0.16057600      -0.12628800       0.76183700 
Cs      16.30745293      16.12576592      35.05385606       55       0.62839700       0.17503300      -0.69079500 
Pb       0.95701924       1.64461209       0.66968828       82       0.67855800       0.66998800       0.07130300 
Pb       1.49357695       2.47260500      20.30476446       82      -0.24230100      -0.48421300       0.59956900 
Pb       2.00397022      12.74651857       1.68700960       82      -0.14832900      -0.46591300      -0.57439300 
Pb       1.05050148      13.40205311      20.51325388       82       0.11018000       0.22990800      -0.21442500 
Pb       6.35747258       2.00561808       1.13837956       82      -0.00133400       0.30024700       0.12495500 
Pb       6.65526192       1.90462492      20.82812797       82       0.47348100       0.14756900      -0.84053300 
Pb       6.35061197      13.53924067       1.02477060       82       1.16299200      -0.73895500       0.15069700 
Pb       6.24311366      13.48426127      20.01035201       82       0.10431400       0.43991400       0.44897400 
Pb      11.62926020       1.53092402       0.79683354       82      -0.07307200       0.08968300       0.37769600 
Pb      11.46658215       2.49348990      20.39432738       82      -0.56772700      -0.56679500      -0.14273000 
Pb      11.63713890      13.24655415       0.76726654       82      -0.68286100       0.26447600       0.26427600 
Pb      11.53491601      13.49191910      20.22530445       82      -1.04604700       0.37439700      -1.42055500 
Pb      16.63266827       1.67727755       1.20397966       82       0.26807600      -0.01799700      -0.15391200 
Pb      16.08325437       2.14264435      20.10725017       82      -0.22162700      -0.60388900       0.70396200 
Pb      16.78505849      13.03491284       1.60927347       82      -0.72588100       1.17526500      -0.47399700 
Pb      16.58146745      13.59243865      20.49442778       82      -0.44965200       0.18531400      -0.45414900 
Pb       3.60043784       9.98860955      17.88483864       82      -0.20634500       0.18115400      -0.26752000 
Pb       4.10295651       9.38829481      37.04523822       82       0.16741800       0.30466800       0.70187700 
Pb       3.85636286      21.06898390      17.88703715       82      -0.71080100       1.09313600       0.22452900 
Pb       4.12323014      21.12492387      36.36819929       82      -0.52499200       0.14474100      -0.26311200 
Pb       8.70039068       9.93348632      18.23473492       82       0.47927400       0.07818700      -0.58603100 
Pb       9.35363321       9.54399615      36.84749278       82      -0.33548600       0.08030700       0.91414700 
Pb       8.37974393      21.38226458      17.61367911       82       1.23257300       0.71516800       0.19559100 
Pb       9.04763435      20.70403598      36.84867423       82       0.45680600      -0.16568500       0.04214000 
Pb      13.99613084       9.40582234      18.38637517       82      -0.61435600       0.89557500      -0.66290000 
Pb      14.45658281       9.49673109      37.17019319       82      -0.52068800      -0.38325300      -0.44185900 
Pb      13.76854924      20.91918465      17.80508789       82      -0.18585400       0.52033600       2.32576200 
Pb      14.09034969      20.39533418      37.09725990       82       0.70596700       0.03728800      -0.21773300 
Pb      19.03241704       9.68945692      18.55536420       82       0.01127400      -0.13626800      -1.08772300 
Pb      19.33172788      10.35271607      36.60796007       82       0.08353600      -0.22592300       0.85272300 
Pb      19.17327942      21.57785260      18.44724331       82      -0.38460000      -0.23593800       0.01167500 
Pb      19.08030982      20.58638955      36.75579401       82      -0.50077000       0.38260700      -0.19139500 
Pb       1.65677175       7.61310818       8.36737162       82      -0.53093000       0.06926500       0.31162600 
Pb       1.58452986       8.25278154      27.40670680       82      -0.46110100      -0.31011600       0.59961400 
Pb       1.02359840      18.82354340       8.74338199       82      -0.10595600       0.32112600      -0.28142200 
Pb       0.83031985      18.66519561      27.40466444       82       0.04349600       0.18574100       0.14921300 
Pb       6.33100406       7.51856058       8.08368259       82      -0.46805900       0.59294100       0.11367100 
Pb       6.37003496       7.78475084      27.25650792       82       0.30111300      -0.53565600       0.63491100 
Pb       6.12468953      18.51970197       8.85407431       82       0.10331900       0.30837800      -0.27262900 
Pb       6.14443305      19.14179951      27.13878547       82      -0.01577900       0.11512600       0.14170900 
Pb      11.38238916       7.50969870       8.19405438       82      -0.54265100       0.46068900      -0.33281400 
Pb      11.63066869       7.90733058      27.23188656       82       0.26300000      -0.28546700      -0.24589600 
Pb      11.66645420      18.42167372       8.61370740       82      -0.77078100       0.07469100       0.31445600 
Pb      11.20845655      19.03126333      27.04578299       82       0.08594000      -0.39304100       0.13588500 
Pb      16.51958223       8.25942538       8.46305649       82       0.37633800      -0.67899600       0.74981300 
Pb      16.70748057       8.20066740      27.24968840       82      -0.11615900      -0.36186200       0.02898800 
Pb      16.32093889      18.74902286       8.90199586       82       0.34853200      -0.33809300       0.05712200 
Pb      16.08358210      18.75194874      27.74284283       82      -0.25253500      -0.49436900       0.41538300 
Pb       3.79570224       3.87854838      10.41038814       82       0.09095500       0.48062500       0.15687800 
Pb       4.55628796       4.12738062      29.66611920       82      -0.61824600      -0.68440600      -0.43302200 
Pb       3.69577855      15.48283176      11.26592213       82      -0.02391500      -0.36146600       0.14117600 
Pb       4.44457548      15.34950908      29.30759116       82      -0.46063900      -0.44816700       0.44660800 
Pb       8.70478977       3.97452091      10.62159387       82      -0.21628000       0.01912200      -0.52208500 
Pb       9.06688269       3.66655982      29.03258628       82       0.61809900       0.08128900       0.46017900 
Pb       8.85113611      14.78501683      11.21912553       82      -0.16102500       0.27003400      -0.13664700 
Pb       9.46247221      15.19388478      30.16616300       82      -0.79951300       0.36085700      -0.29870400 
Pb      14.37553967       4.48001478      11.31187425       82       0.47531900      -0.21350800       0.01004700 
Pb      14.70969291       4.18618791      30.02765530       82      -0.14568900      -0.13316900      -0.09115300 
Pb      13.78053322      14.67691033      11.14574638       82       0.40062300       0.46871900       0.25140900 
Pb      14.06592969      14.92322865      29.74816298       82       0.71635500       0.72578600       0.10794600 
Pb      19.39975354       3.40073016      10.55476712       82       0.30532300       0.85898500       0.49435900 
Pb      19.62297714       3.88352073      29.62371039       82      -0.30544500       0.01005700       0.28965500 
Pb      18.80923453      14.98578986      11.38997713       82      -0.09354600      -0.08689500      -0.37884500 
Pb      19.41420931      15.15602506      30.41390522       82      -0.34497900       0.06619700       0.04606800 
I       3.69939377       4.39098299      19.55962077       53       0.43684400       0.36885900      -0.31526100 
I       3.86143281       4.30245358      37.42806400       53       0.40506700      -0.47670500       0.31134600 
I       4.29492417      16.03916072      19.26157665       53      -0.34706700      -0.27246600       0.03487300 
I       3.99621433      15.38501412      38.05275353       53      -0.39104400       0.23204600       0.24632000 
I       8.66029134       4.17417105      19.06091251       53       0.03925500       0.03741100       0.20986800 
I       9.25346912       4.06822608      38.02278999       53       0.06043800      -0.31163800      -0.23249500 
I       8.72947379      15.31125074      18.77795393       53      -0.36543500      -0.03788500       0.34062400 
I       8.95317511      16.02919136      37.74005023       53      -0.32374600      -0.56445600       0.18586400 
I      13.72742256       4.39222300      19.41603080       53       0.19984300       0.18495900      -0.41596900 
I      14.73861576       3.72765398      37.58683403       53      -0.41152800       0.30323200      -0.11047200 
I      13.70117286      15.75267115      18.86242225       53       0.53807200      -0.25912400       0.41382900 
I      14.13231057      15.33403726      37.55443362       53      -0.47651900      -0.14205600       0.70067200 
I      18.57037885       3.34328102      18.82368312       53       0.61081200       0.61314000      -0.33646500 
I      19.28372826       3.88567097      37.24749680       53       0.02602600      -0.16247400       0.42987300 
I      18.76102431      15.55104337      19.13055932       53       0.07870200      -0.43497700       0.33969800 
I      19.13376361      15.65399671      38.46871530       53       0.28139800      -0.63613200       0.18224100 
I       0.97080930       7.80217564       0.05325038       53      -0.11700800       0.18331800      -0.07366100 
I       1.16333583       7.97799549      19.34761166       53       0.02979700      -0.00900700       0.07003500 
I       1.24858082      19.58472189       0.39020314       53       0.56426300      -0.45342800       0.05756200 
I       0.55398148      19.02631153      19.21714705       53       0.52822500       0.39138000       0.09033700 
I       6.28860861       7.34010662       0.35269580       53       0.43878500       0.03456500      -0.12038500 
I       5.90213987       7.96311747      18.61899076       53       0.21980800      -0.14451100       0.32829600 
I       5.78994145      18.65081175      -0.24692343       53       0.34024100      -0.00501700      -0.01183800 
I       6.30971953      19.76076673      19.11575528       53      -0.17104800      -0.84783000       0.32893600 
I      11.42010711       7.06640031       0.38887684       53      -0.01647700       0.44050000      -0.38476900 
I      11.40508630       7.84009392      19.33180493       53      -0.48444100      -0.05307100       0.02804800 
I      11.65024680      18.49380876       0.44709752       53      -0.36565100      -0.13280500       0.10431500 
I      10.77035549      19.25369691      18.95952280       53       0.06020600       0.03302700      -0.17948600 
I      16.86482773       7.71673032       0.41738259       53       0.47565100       0.19184200      -0.43631400 
I      16.13429083       7.69600158      19.63175478       53       0.98348400      -0.24676200       0.05841800 
I      16.53120151      18.15900931       0.21086361       53       0.03402100       0.73948100       0.10834000 
I      16.54341458      19.61166813      19.47121978       53      -0.05481500      -0.23584700      -0.01538500 
I       3.89078817       9.66726216       9.75947768       53      -0.17834700      -0.10652500      -0.31004900 
I       4.19984132       9.71812910      28.58871976       53       0.42378100       0.42659500       0.10252100 
I       3.77638199      20.78769578       9.44514398       53      -0.42964700      -0.06957000       0.10006700 
I       3.63740172      21.16135764      28.16964000       53       0.10940500      -0.45917100       0.05067200 
I       8.65472827       9.34462750       9.56842847       53      -0.03980400       0.05829300      -0.14927900 
I       9.08798333       9.74184639      28.02036162       53      -0.20744700       0.19752500       0.45107400 
I       8.23621868      20.38022399      10.28110703       53       0.43590500       0.18764300      -0.27277200 
I       8.73130554      20.90693048      28.49613234       53      -0.06082300      -0.12441400      -0.26754700 
I      13.59495359       9.70412227       9.29709841       53      -0.04652400      -0.23511900       0.50066900 
I      14.11229994       9.63210538      28.77059683       53      -0.14474100       0.05612400      -0.08758500 
I      13.72718729      20.61906529       9.71893556       53      -0.03831500       0.35194500       0.21746700 
I      14.01057223      20.78697253      29.09230174       53      -0.15973300       0.07823700      -0.21129600 
I      19.09744799       9.75087059      10.01061528       53      -0.23286100      -0.30148400      -0.48812700 
I      18.88796307      10.00806644      28.89081471       53       0.69792700      -0.26775100       0.03350200 
I      18.63535021      21.01287031       9.71167326       53       0.28057100      -0.35135500       0.30728300 
I      18.49177051      20.40706543      28.90243090       53       0.48448600       0.37553600       0.05800800 
I       1.65669367       2.00121283       9.07740065       53      -0.14269600      -0.76321200      -0.12889800 
I       1.36113264       2.15955753      27.98751637       53       0.05096600      -0.15838200      -0.00893200 
I       1.10151636      13.41484561      10.22423629       53      -0.07668100      -0.00031400      -0.18018400 
I       1.45876022      13.50101932      29.22610112       53      -0.15277100      -0.44428300      -0.42477400 
I       6.28142644       2.11461221       9.02470298       53      -0.04627700       0.04831700       0.33386400 
I       6.44739508       1.57047065      28.62666373       53       0.25527000       0.31469200      -0.19592700 
I       6.20980611      12.99850475      10.33225752       53      -0.15114400       0.40109600      -0.29608900 
I       6.65549308      13.55872940      28.11542392       53       0.28278800      -0.30695600      -0.19531000 
I      10.95985547       1.74322489       9.65331389       53       0.28650700       0.40821600       0.19106800 
I      11.90820494       2.15803398      28.11436678       53      -0.25041100      -0.17966800       0.15734200 
I      11.39987458      13.18913480      10.07053621       53      -0.84958400      -0.84084600      -0.57230500 
I      11.47720387      13.13443073      28.99413994       53       0.00630000      -0.29946300      -0.70888600 
I      16.89304068       1.90331608       9.72099950       53      -1.43211000      -0.29555500       0.02072000 
I      16.85490460       2.10660816      28.56996763       53      -0.26946600       0.36648900       0.69695700 
I      16.35605149      12.73123270      10.03335351       53       0.00840700       0.41739300       0.20998400 
I      16.52587164      12.97636341      28.48702698       53      -0.43455000       0.57516300       0.34387900 
I       1.72598193       0.92825050      17.20131099       53      -0.11489700      -0.13836900      -0.00763400 
I       1.49314238       0.32823985      35.56768786       53      -0.16573800       0.03705900      -0.04154600 
I       0.93535767      12.16519224      17.13677934       53      -0.08271000      -0.20234100       0.34130200 
I       2.02040055      11.92475958      36.22252484       53      -0.15093700       0.24385300      -0.26448200 
I       6.21436033       0.83595587      16.61759404       53      -0.41073000      -0.18438700       0.26458400 
I       7.09603408       0.39449847      36.15071341       53      -0.20216600       0.06412000      -0.19225500 
I       6.21064956      12.26781478      16.95569846       53      -0.12535900      -0.59602300       0.31653500 
I       6.66920813      11.70223355      35.92835381       53      -0.02064800       0.11453800       0.22181000 
I      11.52062872       1.09378559      17.17441407       53      -0.02259800      -0.54098500      -0.05196700 
I      12.26826475      -0.35210199      35.59306534       53      -1.01497200       0.89873500       0.24578100 
I      11.12927392      11.81023012      17.14139520       53      -0.01192200      -0.21086500       0.15381400 
I      11.81051059      11.59430170      36.08749984       53      -0.03406800      -0.20714400      -0.63661800 
I      16.16637892       0.11481301      17.06219922       53       0.38133200       0.81207800      -0.21427600 
I      16.97188325       0.33166810      35.62724203       53       0.09113900      -0.39430100       0.46761600 
I      15.75991702      12.11186173      17.24416875       53       0.34128000      -0.04195600       0.64615400 
I      16.17967688      11.90097243      36.21699053       53       0.59606600       0.17911800      -0.36114200 
I       4.40844375      10.60865548       2.18826669       53      -0.23335900       0.85695100       0.29704300 
I       3.79505296      10.99925723      21.02541008       53      -0.18576400       0.41271500       0.01171400 
I       3.92278792      22.98846526       2.19249833       53      -0.40489800      -0.62399400      -0.53183500 
I       3.90790169      23.09621219      21.47590914       53      -0.59333900      -0.43627000       0.00786700 
I       8.78326455      11.28134771       1.90108366       53      -0.00371000       0.20554000      -0.20348900 
I       8.77914593      11.45864385      21.24392125       53      -0.07388700      -0.00724100      -0.02505400 
I       9.54867160      21.90965117       1.92691523       53      -0.16048000       0.23874000      -0.11930200 
I       8.93815738      22.43737268      21.28704818       53      -0.22941600       0.46686500       0.07927000 
I      13.84228796      11.25188962       1.69966751       53       0.16722900      -0.38609300       0.94243600 
I      13.61222224      11.61592936      21.05177381       53       1.11981500      -0.86563800       0.68131400 
I      14.12420995      22.38865186       1.89684484       53      -0.06908700      -0.26943000       0.24608500 
I      13.20107358      22.64118357      21.10921165       53       0.37117700       0.13051400       0.02981900 
I      18.95735510      11.15363228       2.06903507       53       0.97309200      -0.80045800       0.47244000 
I      18.72135954      11.25263547      21.30302442       53       0.20138300       0.43382100       0.82615800 
I      19.21825350      22.40059578       2.57625385       53      -0.46160400      -0.18030400       0.08387300 
I      18.61940170      23.18983826      21.87029050       53      -0.06477300      -0.16322300      -0.24689900 
I       0.89833215       6.11127652      11.40379903       53       0.55025500       0.07800600       0.00572200 
I       1.97945366       6.06239030      30.06152276       53      -0.16606700       0.12138400       0.41531800 
I       1.17463971      17.66383512      11.83095681       53      -0.19328400      -0.26724800       0.44114100 
I       1.60729172      17.33844924      30.60518353       53      -0.20434800       0.14677300       0.14542600 
I       5.99541356       6.14122876      11.27960739       53       0.31867600       0.06195500       0.02517700 
I       6.80956505       6.13106524      30.37872379       53       0.33827200       0.14615000       0.24840000 
I       5.74065046      17.76961366      12.10622777       53       0.09144000      -0.30492600       0.16289200 
I       6.63027997      17.30521873      30.27508213       53       0.27655000       0.49976500       0.26901900 
I      11.15578867       5.97220892      11.71708177       53       0.43062900       0.04298100      -0.11499000 
I      11.79177592       5.80316749      30.10865736       53      -0.27734000       0.30662700       0.15496500 
I      11.31220916      17.06150576      11.70680729       53       0.24375500      -0.03728500       0.44957500 
I      11.59778440      17.39834551      30.54062516       53       0.12423100       0.00602600      -0.07792000 
I      17.04777529       6.03701796      12.25466168       53      -0.71732400      -0.14531900      -0.33546800 
I      17.04408507       6.46568696      30.56970519       53      -0.13480300      -0.27757300      -0.05386900 
I      15.92427683      17.05055323      12.00844198       53       0.32710800       0.32840300      -0.33688900 
I      15.99313463      17.36450682      30.97774819       53       0.24563400      -0.28325500      -0.23591000 
I       3.34007263       5.29453611       7.08109340       53       0.43906200       0.07205800       0.25722300 
I       4.34554146       5.61335007      26.02946642       53      -0.27554200      -0.00953400       0.77132400 
I       3.32602265      16.45943734       8.15761137       53       0.00594900       0.10482900      -0.51633500 
I       3.34523914      16.70580908      26.58159765       53       0.21297500       0.25230400      -0.43755600 
I       8.48719396       5.56574598       7.37685579       53       0.79958100      -0.69385600       0.22198300 
I       9.55916388       5.32929120      26.31702237       53      -0.44571200       0.41476600       0.16301500 
I       8.85391199      16.73295360       8.17783158       53      -0.13036100      -0.55640800      -0.23448900 
I       8.87435000      16.94527090      26.05514696       53       0.07784100       0.27420900       0.20783600 
I      13.84492618       5.89929310       7.38784119       53       0.49237800      -0.39665700       0.00845500 
I      14.23033676       6.14028669      26.20216519       53       0.09127400      -0.26387100       0.40662600 
I      13.92131135      16.62399235       7.63669089       53       0.36472300      -0.51251300      -0.01985500 
I      13.71994759      16.82199565      26.38809103       53      -0.30819000      -0.26835700       0.17316400 
I      18.79453631       5.34894431       7.86459199       53      -0.08991000       0.68922400      -0.13565200 
I      19.57254477       6.30487046      26.50058635       53      -0.66575000      -0.76623800       0.07983200 
I      18.41795473      16.53094467       7.40433932       53       0.30863700       0.23032300       0.46746700 
I      18.64042324      16.71226389      26.52310986       53       0.23434100      -0.22480500       0.36566600 
I       1.56112694       3.34732568       3.61450425       53      -0.27569300      -0.06633700      -0.14703400 
I       1.68731163       3.60342947      23.37897352       53      -0.23798700       0.08195600      -0.28412300 
I       1.79144539      14.38059112       4.23099659       53      -0.43692000       0.32792900       0.30698800 