320
Lattice="19.6346699861 0.0339269179667 -0.0439113170552 0.0449693727941 22.2283393301 0.170172635223 -0.137874882627 0.315103226669 36.8917143883" Properties=species:S:1:pos:R:3:Z:I:1:forces:R:3 energy=-101594.365584 stress="-1126.420209 -17.876488 281.326605 -17.876488 -1476.062504 -746.708829 281.326605 -746.708829 -1116.39352" pbc="T T T"
Cs       3.92730552       1.16525402       6.23039829       55      -0.12364200       0.22850200      -0.45274100 
Cs       3.91448260       1.97648219      24.49180010       55      -0.14594600      -0.61609700      -0.18916300 
Cs       2.76200341      11.93262938       6.48889954       55       0.91194200      -0.15595300      -0.50493700 
Cs       3.53173996      11.69378933      24.65283097       55       0.14163100       0.33519400      -0.47808700 
Cs       8.02349717       1.66779943       6.34321148       55       0.58813500      -0.46158500      -0.07531800 
Cs       8.23894277       1.08319258      25.41358006       55      -0.12773800       0.00798800      -0.53282900 
Cs       7.79532886      12.61262658       6.84697025       55       0.28497500      -0.25902000       0.13195100 
Cs       8.56480490      11.98795889      24.60617532       55      -0.17054700       0.01085700       0.06061400 
Cs      13.36420385       0.56293074       6.23497118       55       0.37519000       0.23766900      -0.03556600 
Cs      13.16429043       1.41981562      23.74971327       55      -0.05159100      -0.03243200       0.26879000 
Cs      13.81753464      11.52455953       6.43117238       55      -0.19981700       0.11101200      -0.32144900 
Cs      13.31737085      12.23068549      24.53450006       55       0.05537700      -0.14890200       0.12492400 
Cs      19.23191546       0.65473110       6.23762132       55      -0.40784700       0.02101600      -0.15293100 
Cs      18.74068803       1.15095724      25.14203747       55      -0.10319500       0.24092000      -0.03677400 
Cs      18.70544355      11.97660783       6.06276258       55      -0.69221600      -0.07123100      -0.27105100 
Cs      18.92323471      12.46908869      24.70798413       55      -0.33300500       0.16972100      -0.04633900 
Cs       0.52695384      10.58597992      12.55161804       55       0.22009200      -0.05016900      -0.04998800 
Cs       1.10581654      10.50153385      31.09791338       55      -0.10411700      -0.03363600      -0.41704200 
Cs       0.65680914      21.74314463      12.40265562       55       0.38412600      -0.19872900       0.22831500 
Cs       2.46783786      21.65070602      31.46606267       55      -0.27314200      -0.03303700      -0.12042600 
Cs       5.80263918      11.07385383      12.99542032       55       0.06801700      -0.25417200      -0.02220500 
Cs       6.26060799      10.77763430      30.53183853       55      -0.18477700      -0.14515100       0.01487200 
Cs       6.12364487      21.62794179      12.67142181       55       0.10098700      -0.09226000      -0.04867700 
Cs       6.83575346      22.26418197      31.31852702       55      -0.38827500       0.11293900      -0.35394400 
Cs      10.97188371      10.30358224      12.49611420       55       0.00708800       0.02872700      -0.00703500 
Cs      10.99707666      10.69150696      30.85114993       55       0.17695900      -0.08013200       0.00692500 
Cs      10.60974410      21.42525198      12.75396118       55       0.21637000      -0.33595600      -0.14820400 
Cs      11.00690676      21.54841127      31.21210425       55       0.13585900      -0.13231600       0.07244600 
Cs      15.83622483      10.76520515      11.72199914       55      -0.19707600       0.16026900       0.19021700 
Cs      15.63060934      10.75061881      30.86385261       55       0.10607100      -0.06757400       0.14595200 
Cs      15.75181784      20.94300300      12.18517807       55      -0.11924200       0.42454300       0.02782900 
Cs      16.52764021      21.03964076      31.26830644       55      -0.05048500       0.24729100       0.03295600 
Cs       4.07630702       5.93788996       2.75555989       55      -0.13578700       0.79726900       0.04011200 
Cs       3.45027768       6.47293052      21.54294164       55       0.08537500       0.09530100      -0.04645600 
Cs       3.54152697      16.80314450       3.57322256       55       0.33938400       0.11005500      -0.26975900 
Cs       3.20984253      17.94095119      21.47696445       55       0.31465900       0.18502100       0.06502700 
Cs       8.74284783       6.52075443       3.41593195       55      -0.03092000       0.05505500      -0.38838900 
Cs       8.25407818       6.64642060      21.20658713       55       0.15792500       0.31242200       0.06431300 
Cs       9.61473185      17.14363205       3.03852267       55      -0.15594200       0.19610800       0.36526900 
Cs       8.14242625      18.21127141      21.69984750       55      -0.20038400      -0.38965900       0.23919800 
Cs      13.88024047       6.59010518       2.80453104       55      -0.07467300      -0.09716100       0.15999000 
Cs      13.35577146       6.66746649      21.59422128       55      -0.21671100      -0.07985300      -0.08286300 
Cs      14.31481783      17.46898719       2.53538510       55      -0.36694700      -0.22768600       0.31089600 
Cs      13.42964299      17.41330401      21.73217932       55      -0.01275400       0.08373200       0.14189200 
Cs      18.64062662       5.26297064       2.77241163       55      -0.15675000       0.44430400       0.54355600 
Cs      18.01419049       7.39205432      21.34174373       55       0.10965700      -0.18639200       0.06636900 
Cs      18.57160151      17.43803305       2.97396624       55       0.03510500       0.13731600       0.22166300 
Cs      18.62072696      17.72048985      21.95445319       55      -0.10359000       0.22111200       0.22703000 
Cs       0.89428154       5.11881054      15.45254136       55       0.12899200      -0.27878400      -0.31561600 
Cs       1.05141484       4.91598046      33.78797000       55       0.26039800       0.06353400       0.06627500 
Cs       0.55607642      15.85967440      15.05477553       55       0.35092300       0.69957000       0.62013400 
Cs       1.19852767      15.83385423      34.15711122       55       0.05208200      -0.42659200       0.05210100 
Cs       6.39350219       4.64793065      14.88113115       55      -0.16203900       0.13612300       0.22892300 
Cs       6.40487028       5.53493705      33.64358447       55      -0.10825700      -0.20161900       0.21182500 
Cs       6.27339283      16.31762417      15.39263897       55      -0.42794800      -0.22199000      -0.14758600 
Cs       5.75263402      15.84299599      33.83895105       55       0.64341000       0.09800900      -0.24337700 
Cs      10.83300488       4.45525028      15.12060844       55       0.14988800       0.21218100      -0.02941100 
Cs      11.49516441       4.95039532      33.79076443       55      -0.09342200      -0.02788400       0.08575100 
Cs      11.13734720      16.07110018      15.17323669       55       0.13043900      -0.09453200      -0.07801900 
Cs      10.49690886      16.32664670      33.30511684       55       0.14954300       0.06976200       0.64657600 
Cs      15.62233726       4.97469153      15.10337796       55       0.06212200      -0.09154700      -0.21370800 
Cs      15.92175101       4.46664242      33.49173844       55       0.61929800       0.83311000       0.58755900 
Cs      15.72304293      16.00600871      15.29671560       55       0.25553800       0.28286200       0.28551700 
Cs      16.23988612      16.55295239      33.53487024       55      -0.19940200      -0.25524400       0.27508200 
Pb       0.95683507       1.39694919       1.05901761       82       0.45713400      -0.01608200       0.02653400 
Pb       1.32593020       2.17030678      19.57136499       82       0.25804800      -0.47788100      -0.44500100 
Pb       1.41903811      12.57442435       0.95528807       82      -0.08726500      -0.41195900       0.37076500 
Pb       0.86935010      13.08910434      19.43281780       82       0.41528500       0.03898100       0.09010700 
Pb       5.94080363       1.68392476       1.25447838       82       0.17077100       0.03197100      -1.05750800 
Pb       6.29320432       2.22917616      19.35889016       82      -0.22389000      -0.31332200       0.19722900 
Pb       6.19550349      12.70297111       1.03326858       82       0.37022700      -0.55246100      -0.14542700 
Pb       5.82063815      13.37237873      19.90789986       82      -0.13123900      -0.09677900      -0.27681800 
Pb      11.32644761       1.86624600       1.29182193       82      -0.58654700      -0.29691400      -0.10890100 
Pb      11.19020389       2.19375333      19.23105980       82      -0.40485500       0.18553100      -0.06793100 
Pb      11.09401501      12.54826152       1.38539574       82       0.22139500       0.31123800       0.40987800 
Pb      10.53443077      13.01289828      20.17503989       82      -0.33628800       0.44557900      -0.38258400 
Pb      16.09958152       1.34136219       1.60463170       82      -0.61782500       0.00586700      -0.61361800 
Pb      16.10856297       1.99175686      19.55877753       82      -0.29003600      -0.86272900      -0.58262900 
Pb      16.20987582      12.66778274       0.90066594       82      -0.80661800      -0.08978900      -0.23456500 
Pb      15.65649363      13.35744772      19.43754899       82       0.03093600      -0.25420400       0.26750000 
Pb       3.40373726       9.69912081      17.22830456       82      -0.21092900      -0.49750200      -0.05564700 
Pb       4.14886299       9.87896223      35.56200885       82       0.19810500      -0.26128600       0.56896600 
Pb       3.47891532      20.75322427      17.22995677       82       0.22000500       0.57873600       0.00071200 
Pb       4.11398523      20.34800596      36.52383963       82       0.07418800      -0.24846400      -0.30283600 
Pb       8.37832258       9.60344792      17.59724539       82      -0.29304600      -0.53055400      -0.67943800 
Pb       8.70409153       9.86486384      35.62691095       82       0.15529000      -0.72644200       0.58483400 
Pb       8.48220241      20.62467050      18.04590812       82      -0.21286500       0.67877900      -0.81791200 
Pb       8.62414520      20.64423752      36.28899234       82      -0.06390200       0.28161300      -0.63154900 
Pb      13.18190465       9.85127844      17.60843012       82      -0.08511300      -0.57331000      -0.91543200 
Pb      13.27290546       9.30082094      35.74211178       82       0.76792600      -0.35100300       0.03970200 
Pb      13.37707285      20.60476482      17.78840080       82       0.33159000      -0.14145800      -0.80750900 
Pb      13.88024649      20.56271512      35.94226567       82      -1.40356100      -0.43111700       0.06951200 
Pb      18.42105400       9.37675748      16.87395208       82      -0.38634100       0.21692100      -0.19470700 
Pb      18.38426653       8.93598108      35.75355802       82      -0.53497500       0.26163700      -0.00393500 
Pb      18.23019117      21.07152270      17.20612347       82       0.03314200       0.11759800      -0.16575500 
Pb      18.56429631      20.83602615      35.57092016       82       0.65958800      -0.37352500       0.19657800 
Pb       0.79092672       7.61717071       8.27916592       82       0.49008700       0.31448900      -0.13275300 
Pb       0.93711776       7.71380145      26.89757437       82       0.80749300      -0.16907200       0.24034100 
Pb       0.83888190      18.48364161       7.96126726       82       0.73319900      -0.07390000       0.25609200 
Pb       1.56629422      18.94200217      27.03189635       82       0.28314000       0.34263800      -0.74066400 
Pb       5.74252638       7.33843113       8.21359352       82       0.16451700       0.71237400      -0.05502300 
Pb       5.95187413       7.54443338      26.55292674       82       0.22313900       0.01234700       0.45080200 
Pb       5.72829774      18.95494332       7.71912179       82       0.40325300      -0.48032800      -0.13834500 
Pb       6.27791361      18.95980376      26.72001940       82       0.24634600      -0.00922800       0.03349600 
Pb      10.79847379       7.69119253       7.87663683       82       0.48232400       0.12630900       0.23547900 
Pb      10.98546410       7.28616157      26.72567037       82      -0.03714500       0.62745400      -0.60202700 
Pb      11.10871657      18.14755661       7.55891652       82      -0.21833700       0.67248500       0.08172200 
Pb      11.25431446      19.02636609      26.77293120       82      -0.70682400       0.10046100      -0.07284500 
Pb      15.79861376       7.19147861       7.95474660       82      -0.19727000       0.10345100      -0.56796300 
Pb      16.22166673       7.21247240      26.67318640       82      -0.63819100       0.19719800       0.06436300 
Pb      15.80216666      18.43227881       8.15936816       82      -0.13874100       0.48290200      -0.41481400 
Pb      16.02759766      19.15246108      26.80351562       82       0.01928000       0.13461100      -0.15639900 
Pb       3.58854633       3.84261597      10.72354521       82      -0.05111300       0.75258700      -0.28247500 
Pb       3.65836699       4.64937145      28.95800968       82      -0.54661600      -0.72454200       0.35372700 
Pb       2.93371503      15.09476222      10.81626135       82       0.16390700       0.31362200       0.41254200 
Pb       3.51968153      15.37997236      29.23413918       82      -0.03143900      -0.17933700      -0.29455600 
Pb       8.80510078       3.54118331       9.68152162       82       0.05874900       0.65035300       1.02272700 
Pb       8.42664547       4.17913982      29.59822658       82       0.04123200       0.18481300      -1.19158300 
Pb       7.91833485      15.72597262      10.30343596       82       0.51814600      -0.02167500       0.06324300 
Pb       8.30160953      14.81325827      28.90058110       82       0.16060700       0.16005000       0.11075600 
Pb      13.45319074       3.54145684      10.41975796       82       0.09036500       1.53381400      -1.95945600 
Pb      13.38685987       3.56386237      28.93043510       82       0.46970600       0.13632500       0.24050300 
Pb      13.13153579      15.18357978      10.07962110       82      -0.35246300      -0.03646100       0.27716400 
Pb      13.23126255      15.42314825      29.02861786       82      -0.05845300      -0.30539700      -0.00466400 
Pb      18.50618140       3.93280420      10.49447514       82      -1.37650900       0.83653700       0.71331300 
Pb      18.37460375       3.58218998      29.21284681       82       0.41435300      -0.06734500       0.26052500 
Pb      18.28198580      15.43134117      10.04630837       82       0.01054900      -0.12813900      -0.02699100 
Pb      18.05420624      15.26654799      28.68554028       82       0.21318300      -0.46408100       0.38655200 
I       3.74481996       3.93449849      18.11767455       53      -0.02395500      -0.21753000       0.27287400 
I       3.80815902       4.15308119      36.62637184       53      -0.02816400      -0.46267100       0.00951300 
I       3.43263440      15.04907846      18.54356203       53      -0.02914500       0.03041900      -0.06702600 
I       3.89862980      14.93292678      36.72304768       53      -0.60828000      -0.00097900       0.40571600 
I       8.73379925       4.05738726      18.35782716       53      -0.44059300       0.17759900      -0.41954700 
I       8.55974106       3.65762955      37.01367335       53      -0.00961900       0.40332500      -0.04771400 
I       8.21792794      14.99200056      18.49359394       53       0.21293800      -0.32058900       0.33420200 
I       8.57983010      15.09814078      37.40217118       53       0.14872200      -0.65151200      -0.43478200 
I      13.72595170       3.87698475      18.17523339       53       0.01282600       0.14931900       0.13244800 
I      13.41546845       3.55262253      36.71436180       53       0.55122700       0.28335800       0.10234700 
I      12.90820687      15.28257713      18.61138881       53       0.19479700      -0.37373800       0.14825200 
I      13.50457057      14.89237199      36.73575236       53      -0.16811300       0.03269900       0.10431400 
I      18.06154550       3.40617399      17.88057989       53       0.43909400       0.58127900      -0.09042200 
I      18.27369169       3.44817159      36.64013559       53      -0.17710200      -0.26916300      -0.00969700 
I      18.09707754      15.27492927      19.15903786       53       0.19204900      -0.00602900      -0.59301200 
I      18.44175723      14.97281929      37.47264510       53       0.10859900       0.29356400      -0.76904300 
I       0.93536335       6.83343796       0.13719155       53       0.64839200       0.03191100      -0.09510200 
I       0.84547871       7.30477574      18.28037868       53       0.00945000       0.33814100       0.20895600 
I       1.30830796      18.39928571       0.16722491       53       0.30921700       0.17547000       0.16141900 
I       0.99454133      19.33417514      18.31032486       53       0.05823100      -0.87915000       0.15011800 
I       6.21909533       7.33145959      -0.11792312       53       0.45298600       0.12228900      -0.02209600 
I       5.22316530       7.31065917      17.98163123       53       0.34555200       0.55196600       0.08836400 
I       6.72507742      17.87435981       0.31714519       53      -0.43121500       0.60619000       0.07749200 
I       6.28565665      18.60471585      18.48694402       53      -0.86736600      -0.15057600       0.17995000 
I      11.14566436       7.01465105      -0.29725755       53      -0.11887400       0.20446900       0.22229400 
I      10.77814629       7.54484819      18.25481401       53       0.31691600       0.14046800       0.18373600 
I      11.31014193      18.67000370       0.02849837       53       0.13447800      -0.56449500       0.11594700 
I      10.63208049      19.08428763      19.32383305       53       0.80710700      -0.48527700      -0.05464900 
I      16.55799219       6.28203462       0.06018794       53      -0.54659100       0.80728900      -0.42412200 
I      16.10354823       7.58911620      17.98474027       53      -0.32089500       0.08608400       0.27803800 
I      16.60397954      18.30947321      -0.12918500       53       0.09250300       0.04669000      -0.24184200 
I      16.45497603      18.92839073      18.96134676       53      -0.57937300       0.17459400      -0.15097800 
I       3.17177156       9.91057265       9.58792977       53       0.29095200      -0.71896800      -0.14411500 
I       3.68590750       9.88959389      27.63608826       53      -0.19706500      -0.57090700       0.36701900 
I       3.38580241      20.80136380       8.69638756       53      -0.15561500      -0.22881800       0.37173000 
I       4.09392726      20.94271845      27.80223608       53      -0.18476200      -0.09075000       0.09380400 
I       8.35888882       8.99957664       9.91258155       53       0.17326900       0.04287800      -0.42193300 
I       8.66534124       9.44335888      27.49189510       53      -0.25721400       0.09657500       0.03396800 
I       8.24716976      19.58068209       9.64610881       53       0.14747100       0.24906000      -0.24871600 
I       8.53140801      20.84340549      28.21640178       53       0.45217200      -0.09039000       0.06877900 
I      13.44058525       9.27329345       9.29234246       53      -0.14225400      -0.24682300      -0.06027900 
I      13.56031989       9.13180655      28.02184677       53       0.09468700      -0.07346600      -0.21144100 
I      13.03755819      20.16849017       9.33302651       53       0.57464900       0.03356000      -0.43033500 
I      13.68656017      20.82111718      28.24837390       53      -0.05987900      -0.05169100      -0.11638000 
I      18.33132967       9.89351350       9.09717527       53      -0.07929700      -0.48567500      -0.07161800 
I      18.25323594       9.45908744      27.61769653       53      -0.18540500       0.49213000       0.35799000 
I      18.29040416      20.42448455       9.41219533       53      -0.02308100      -0.05519400      -0.41077900 
I      19.08840262      20.77103187      28.34917675       53      -0.43690900       0.29090700      -0.17164600 
I       0.88862354       2.23564372       9.49665744       53       1.18205100      -1.14196000      -0.62172100 
I       1.75073557       2.08878037      28.12505530       53      -0.38469900       0.16633000      -0.06682000 
I       1.10203218      13.07296298       9.30384381       53      -0.79554600       0.38401100       0.38860100 
I       1.18044453      13.57328307      27.89178507       53      -0.11189800      -0.17535600      -0.07862900 
I       5.67963118       1.88854733       9.51113657       53       0.35578400      -0.18050900      -0.35779300 
I       6.00987282       2.45421239      28.19521160       53       0.10256400      -0.04967000      -0.08666100 
I       5.54305983      13.70460322      10.34884418       53       0.88069700      -1.15915200      -0.85895600 
I       5.79169592      13.41102582      27.55030559       53       0.22994100      -0.15336500       0.20792900 
I      11.09068954       1.58583418       9.13371125       53      -0.12097800      -0.16844400      -0.20825100 
I      10.73098366       2.54630231      27.56370563       53       0.23555400      -0.07465900       0.29205300 
I      10.60058430      13.12907501       9.60190793       53       0.32381800       0.21582700      -0.15323000 
I      10.91392009      12.86689460      27.81788949       53       0.12567300       0.52006600       0.05037000 
I      15.82504812       1.98388757       9.27533342       53       0.43144000      -0.35817800      -0.17053500 
I      15.99506044       1.79752148      27.94824376       53      -0.05456100       0.11008300       0.08549500 
I      15.94008663      13.51941541       8.94547252       53       0.34409100       0.07664100       0.03728900 
I      15.97634408      13.00408315      27.67325748       53      -0.01622000       0.37663100      -0.05097500 
I       1.01615533       0.98542863      16.22479180       53       0.45236800      -0.56686200       0.19192400 
I       1.39892803       0.65539840      34.95218099       53       0.09905300      -0.30738300       0.22898200 
I       0.64844188      12.33516048      16.06629685       53      -0.16924900      -0.64963400       0.70422800 
I       1.56112517      11.11133566      34.53880082       53      -0.86911900       0.73282500       0.74093600 
I       5.79686396       0.71568654      16.48987584       53       0.38247400      -0.11911400      -0.08342800 
I       6.93417268       0.62380602      34.61999057       53      -0.60531300       0.14507100       0.72820800 
I       5.76576053      11.58347900      16.86523414       53       0.21621700       0.22751300      -0.17522000 
I       6.53559226      11.67992539      34.58275422       53      -0.58802600       0.47973400       0.12248400 
I      10.45388527       0.29704414      16.15361751       53       0.56097300       0.24840600       0.40726700 
I      11.28385085       0.53858344      34.71479476       53       0.04778700      -0.42346100       0.56127500 
I      10.31150764      11.65651792      16.44492851       53       0.62163900       0.27883300       0.32745500 
I      11.39508998      11.35362842      34.83192835       53      -0.36424200       0.78604900      -0.10818400 
I      15.38049738       0.27156163      16.25346551       53      -0.31673300       0.15171800       0.24582200 
I      15.82191403       0.28912676      35.14470405       53       0.93678900       1.15834900      -0.53200700 
I      15.77808287      11.51314735      16.49337965       53      -0.16638600       0.36541600       0.08685500 
I      15.95230738      11.81691556      34.55843697       53      -0.02747800      -0.34178500       0.35306100 
I       3.91872385      10.37966406       2.02967353       53      -0.27545600       0.46819400      -0.31836000 
I       3.24942243      10.71761969      20.63447254       53      -0.07772600       0.26305400      -0.29199200 
I       3.50452107      21.77104283       2.18214778       53       0.16113700       0.16023000       0.58719200 
I       3.82667300      22.05231432      20.74692002       53      -0.08685600       0.53722300      -0.38435700 
I       8.66950733      10.46936234       1.87202223       53       0.06059900       0.21760700       0.13466500 
I       7.95269260      10.79314143      20.43235083       53       0.20936000       0.53899700       0.80882400 
I       8.57089473      22.15580240       2.06866229       53       0.13826500      -0.54687200       0.21344800 
I       8.97281163      22.64588660      20.75065628       53      -0.45964900      -0.29728000      -0.12101700 
I      13.58607793      10.44032292       1.97435405       53      -0.05281300       0.02650000      -0.32181200 
I      13.24764538      11.15370999      20.52822411       53       0.12346200       0.03702900       0.10188600 
I      13.53643648      21.45281754       2.13507833       53       0.42647600       0.37897100      -0.01578100 
I      13.26827847      22.33880496      20.43320950       53       0.31879700      -0.36355000       0.29274600 
I      18.41022797      10.88303408       2.07199176       53       0.67413600      -0.52339200      -0.07899200 
I      18.12186169      11.00308634      19.97834272       53      -0.12777900       0.06613600       0.02969600 
I      18.37773183      21.60363457       2.43817423       53       0.43739800      -0.09833500      -0.15668900 
I      18.94713915      22.15503991      20.26797546       53      -0.53425100       0.20707400       0.36488800 
I       0.97135128       6.09469463      11.74972902       53      -0.08279500      -0.31051400      -0.48918200 
I       1.05783030       6.43521223      30.19040214       53       0.03516900      -0.23248700      -0.45697500 
I       1.38362831      17.51736118      11.83362903       53      -0.64926600       0.33875300      -0.42734000 
I       1.04207769      17.53478203      29.73411661       53       0.35261000      -0.53311900       0.44759700 
I       6.04319156       5.73143183      11.33716744       53      -0.00767400       0.09637300      -0.38259100 
I       6.10378328       6.29878015      29.89500520       53       0.21158900       0.60181600       0.23564400 
I       5.46779660      17.27742500      11.11897250       53      -0.34993200       0.70071700       0.26184600 
I       6.09448622      17.08941070      29.73988481       53       0.28293000       0.15102100       0.30226600 
I      10.86878339       5.51021301      11.35390295       53      -0.24899400       0.13620700      -0.61172700 
I      10.55573316       6.64416521      29.58020056       53       0.26201300      -0.46794200       0.79049600 
I      11.34457884      17.43477572      11.38068499       53      -0.19749300      -0.44268300      -0.26929800 
I      10.79113252      17.19216334      29.90390449       53       0.22700800       0.11962900      -0.39066300 
I      15.80015676       6.00832381      10.73200164       53      -0.08625800      -0.35395700       0.98431600 
I      16.05246999       5.69071171      29.53981509       53      -0.15479000       0.01869700       0.46826800 
I      15.85310664      17.31745578      11.09086288       53       0.05168600      -0.28621000       0.10782600 
I      16.00666699      17.36717338      29.95868693       53      -0.30689500       0.13178500      -0.48067200 
I       3.47253593       5.45228045       7.49550732       53      -0.17040400      -0.24139600      -0.08410600 
I       3.70703956       5.25773045      25.75711954       53      -0.09370100       0.74201600      -0.05138900 
I       3.44104675      16.31556917       7.18046321       53      -0.01494200       0.17131600       0.44650900 
I       4.49408273      16.73652607      25.87951735       53      -0.91152300      -0.27447700      -0.03592400 
I       8.50139470       5.73396475       7.09010164       53      -0.33194100      -0.39417600      -0.08796500 
I       8.37039918       5.57161131      26.05700119       53      -0.04845800      -0.32893600      -0.14507100 
I       8.46286985      16.48777776       6.72240423       53      -0.09825600      -0.06320600       0.21342500 
I       9.09663021      16.59532372      26.35085313       53      -0.19484000       0.17323600      -0.28465200 
I      13.57257269       5.23340018       6.81812721       53      -0.05207200       0.32883800       0.32299000 
I      13.60602669       5.34765417      26.13846948       53      -0.03164300      -0.42094700      -0.15708100 
I      13.71332617      16.34584700       7.00805423       53      -0.18018300       0.05711600      -0.35629000 
I      13.38222286      17.03035596      25.88943662       53       0.61475300      -0.08051000      -0.12273100 
I      18.58966761       5.22767005       7.29543559       53      -0.25221700       0.01792600       0.18743000 
I      18.77783421       5.26722590      26.28328084       53      -0.09734800      -0.28545900      -0.32734300 
I      18.74499741      16.45391998       6.56881381       53      -0.58097300      -0.33600000       0.40306700 
I      18.63546960      17.17588972      26.13230149       53      -0.26451100      -0.02674500      -0.57160000 
I       1.85815829       3.27455126       3.59068048       53      -0.20957300      -0.61610500       0.26267700 
I       0.90226805       3.70030948      22.17111114       53      -0.01362300       0.12389800       0.29523300 