320
Lattice="19.7837259672 -0.127429452449 0.300222497531 -0.141246612817 21.3523405226 -0.0549246540276 0.525703284076 -0.043007378065 37.0573129269" Properties=species:S:1:pos:R:3:Z:I:1:forces:R:3 energy=-101592.797303 stress="905.537403 443.756654 -771.743723 443.756654 1731.188203 -162.010947 -771.743723 -162.010947 307.916441" pbc="T T T"
Cs       3.67269627       1.09299028       5.58503879       55       0.23098100      -0.10379700       0.30677200 
Cs       3.82360634       1.24510630      24.37428910       55       0.03300900       0.04480400       0.04291000 
Cs       3.92083947      11.49929145       6.03449417       55      -0.31823500      -0.11917300       0.30407900 
Cs       4.29683763      10.85236143      24.71456426       55      -0.15901100      -0.00361600      -0.03322500 
Cs       9.12045225      -0.30386320       6.24199217       55      -0.69101600       0.49569000       0.28022600 
Cs       8.53065596       0.58888065      25.41245116       55       0.55502100       0.38388800       0.08279000 
Cs       8.82288621      11.01338632       6.19447716       55      -0.53658200       0.86381900       0.14072800 
Cs       8.48410531      12.17207124      24.59869816       55       0.61906700      -1.02218700       0.29863000 
Cs      13.78687754       0.38753665       6.04237407       55       0.10567100       0.30931700      -0.18229600 
Cs      13.47948201       1.18954536      24.76900575       55       0.14535600      -0.10655000      -0.14441700 
Cs      13.51399111      10.95368263       5.75700964       55       0.76151500      -0.15839800       0.59460200 
Cs      13.96895725      10.98624412      24.62872647       55      -0.23642400       0.30721800      -0.36903400 
Cs      18.86452491       0.92391249       6.86469792       55      -0.08748900      -0.00477200       0.01595800 
Cs      18.68966396       1.19256569      24.70511654       55       0.03335700      -0.21183100      -0.21724300 
Cs      18.27276609      11.43882025       5.76977993       55       0.36273200      -0.32590700       0.50437500 
Cs      18.68856042      11.59349331      24.82729074       55       0.28874300      -0.16729500      -0.11511200 
Cs       0.74709798      10.49071729      12.20491210       55      -0.08023300      -0.35083100       0.01121400 
Cs       1.23387501      10.39979822      30.85480873       55       0.38779800      -0.56095600       0.00344100 
Cs       1.92830711      20.05934044      11.85008110       55      -0.39880000       0.17157100       0.20255500 
Cs       1.99070902      20.68285745      30.64353780       55       0.01341400      -0.29374000       0.39454500 
Cs       7.24317955       9.93178740      13.13511976       55      -0.90072300       0.02508700      -0.45076000 
Cs       6.14489426       9.82268771      31.36827162       55       0.20777300       0.27258900       0.04171300 
Cs       6.07797180      20.32431615      12.27549017       55       0.14300000       0.21570800       0.12300500 
Cs       6.35599518      20.56966669      31.50453837       55       0.21025100       0.07033500       0.09226200 
Cs      11.13652388       9.68357461      12.80551417       55       0.12687600      -0.08362000      -0.28329000 
Cs      11.58701720       9.65380677      31.08194483       55      -0.26851200       0.00050000      -0.07768900 
Cs      11.31719186      19.97906411      12.33814162       55      -0.39451100       0.18721800       0.11567300 
Cs      11.32057307      20.11735700      31.93916353       55      -0.11703800       0.14126600      -0.47062500 
Cs      15.41807793       9.94483904      12.41392523       55       0.68695800      -0.53204800      -0.11457200 
Cs      15.86501207       9.74200774      30.62175723       55       0.39630300       0.00037200       0.05716800 
Cs      15.49936733      20.02473391      12.50789147       55       0.62007900       0.01201100       0.05741300 
Cs      17.15504948      20.38501999      31.10565908       55      -0.00478100      -0.65627200       0.80583500 
Cs       3.34543795       7.25754849       2.74813259       55       0.24483800      -0.54922800       0.02485500 
Cs       4.30248061       5.90710449      21.77290792       55      -0.04814200       0.08750300      -0.07750400 
Cs       3.80229205      16.73121719       3.44674225       55      -0.71383400      -0.02400100      -0.37160600 
Cs       3.79211360      17.13775566      22.42392802       55       0.16256000      -0.25791900      -0.23653300 
Cs       8.35394384       6.32616470       3.09607191       55       0.23057300       0.32356600       0.10588600 
Cs       8.91638717       6.22774552      21.58538804       55      -0.16317700      -0.03748400       0.20163700 
Cs       8.99295420      15.80692790       3.72479247       55       0.20779800       0.35725200      -0.07987900 
Cs       8.42390552      16.96687443      22.41940548       55       0.24205400      -0.01323600      -0.10675600 
Cs      13.50737979       6.12577412       3.56693604       55      -0.24272900       0.28726200      -0.12718700 
Cs      13.67793592       6.62094802      21.57912965       55       0.07293200      -0.19758600       0.54492000 
Cs      14.20561465      16.32831046       3.30367628       55      -0.32492700       0.41987900      -0.61944800 
Cs      13.92895032      16.94318503      22.25998519       55      -0.46137600      -0.18749100      -0.31914400 
Cs      18.58652440       5.37053279       4.30308408       55       0.08657700       0.11631600      -0.27892200 
Cs      18.48549350       5.26149971      21.60330422       55       0.15473600       0.31795500      -0.02020800 
Cs      18.60439683      16.95483786       3.48236981       55       0.05189900      -0.16061900      -0.11784800 
Cs      18.63862656      16.58288205      22.18370648       55       0.20392300       0.05721800      -0.23224200 
Cs       1.65675289       4.39690516      14.74111263       55      -0.55706400       0.18263700       0.65165800 
Cs       1.50409305       4.68478786      33.91052574       55       0.09502900      -0.11194600      -0.21256300 
Cs       1.17651858      15.53724870      15.61751111       55      -0.11160100      -0.25072700      -0.21487700 
Cs       1.41825725      15.03273445      33.95188377       55       0.16922100      -0.09488000       0.03358500 
Cs       6.22260659       4.65488680      15.36900504       55       0.21152300       0.05274600      -0.27662800 
Cs       6.97662010       4.36505550      34.26191189       55       0.02085500      -0.00257300      -0.00312700 
Cs       6.02432666      14.82269134      15.53747438       55       0.08671200      -0.06993200      -0.19689200 
Cs       6.40978646      15.51050914      33.92050535       55      -0.01011400      -0.39812400       0.10845800 
Cs      11.37775651       4.45254961      14.80195267       55      -0.15023300      -0.26730100       0.00580600 
Cs      11.50153234       3.94222833      34.50307095       55       0.12801000      -0.11534700      -0.15028600 
Cs      11.86294086      14.77700662      15.55411701       55      -0.35444700      -0.07530800      -0.03653300 
Cs      11.81708316      15.00125960      34.21068660       55      -0.20003500       0.05181500      -0.32037800 
Cs      16.02940724       4.81965082      15.56492179       55       0.26372800      -0.26555800       0.10655300 
Cs      16.89259104       4.57890733      34.69368970       55      -0.16890000      -0.02957700      -0.04093900 
Cs      16.45734651      15.73906991      16.00647044       55       0.03626000       0.07155100      -0.10154900 
Cs      16.08057886      14.91955462      33.64846199       55       0.48678500      -0.02687400       0.16547500 
Pb       1.18961496       1.38861666       0.89345171       82       0.17897700       0.29516300      -0.01410600 
Pb       1.74831916       2.27076451      19.13413948       82      -0.20798400      -0.51743800      -0.22756900 
Pb       1.20386856      12.14311068       1.44949150       82       0.00148800       0.31216900      -0.17329600 
Pb       1.34982363      11.98959883      19.64974186       82      -0.14707100      -0.65912600      -1.12714300 
Pb       5.78581014       2.09086603       1.26871417       82       0.28442800      -1.28792800      -1.21896200 
Pb       6.51875393       1.60341893      19.47802353       82      -0.19849300       0.12269800       0.14500800 
Pb       6.16997452      12.96233467       1.38272016       82      -0.18745100      -0.60798300      -0.95284300 
Pb       6.09324941      12.32877044      19.62289494       82      -0.11869400      -0.38829800       0.02074400 
Pb      11.10696284       1.20094666       1.79560948       82      -0.09492400      -0.47226100      -0.79921600 
Pb      11.17830444       2.34020126      19.81049933       82       0.04467800      -0.41352300       0.11706700 
Pb      11.15045637      12.12932732       1.09642120       82       0.41232600      -0.18238200       0.62820200 
Pb      11.10705530      12.27867553      19.89847163       82      -0.09227700       0.62643200       0.16813500 
Pb      15.86737226       1.18196173       1.12923522       82      -0.06768800       0.22835100       0.30723400 
Pb      15.83737277       1.02574172      19.62291780       82       1.14370900       0.11887600      -0.33617900 
Pb      16.34483478      11.97181388       1.32589861       82      -0.26726900      -0.08372300      -0.53472200 
Pb      16.15019655      12.54561575      19.88067475       82       0.09085900       0.14434400       0.14403600 
Pb       3.47903134       8.56514219      16.90671540       82       1.50284200      -0.27615700       0.68870400 
Pb       4.01520139       8.57729409      36.13490960       82       0.29343600       0.77409200       0.04736400 
Pb       3.83075949      19.17239069      17.36176804       82      -0.56559700       1.10152500      -0.25491100 
Pb       4.39763986      19.42960780      36.17900362       82       0.25643000      -0.22859600       0.00603300 
Pb       9.08994872       8.73229722      17.48743282       82      -0.88806700       0.57593500       0.28914100 
Pb       9.25559060       9.13705313      35.55311648       82      -0.58278700       0.00524800       0.85127600 
Pb       8.55324977      19.15268001      17.81460166       82       0.16275800       0.27610300      -0.41176100 
Pb       9.63599896      19.08750234      36.52256059       82      -0.32400000      -0.20831300       0.11156000 
Pb      13.99657070       9.31908909      17.82789489       82      -1.03664400       0.09548900      -0.94704500 
Pb      13.79731349       8.56765250      35.64182746       82       0.96763800       0.22940200       0.07637300 
Pb      13.41566041      19.21143227      17.96362378       82       0.46820800       0.61115100      -0.13418100 
Pb      14.55806061      19.20491838      35.73562270       82      -0.71296100       0.80926100       0.75337300 
Pb      18.13330702       9.03237258      17.73879021       82       0.90854600      -0.18040700      -0.58071400 
Pb      18.93103975       8.86781137      36.18776735       82      -0.38073000      -0.24268100      -0.31658100 
Pb      18.82401492      20.05727453      17.43376183       82       0.03791700       1.06038900       0.28625700 
Pb      19.82516552      19.66839175      36.23242507       82      -0.32447500      -0.59459400      -0.94127800 
Pb       1.32852723       6.82412828       8.55314140       82      -0.11202300       1.06882800       0.11154900 
Pb       1.40784119       7.36840689      26.78881551       82       0.62264200       0.12947300       0.00977700 
Pb       1.36134224      17.42125401       7.49054629       82      -0.26736400       0.10172900       0.74683000 
Pb       1.86915022      17.99769643      27.07472673       82       0.15818200      -0.20642500      -0.36770700 
Pb       6.04220705       6.70084855       8.29850519       82       0.03329400       0.76766300      -0.07856700 
Pb       6.82713171       6.96674488      26.98193761       82      -0.82044200      -0.01771300      -0.59107200 
Pb       6.17944710      17.33034886       7.82663992       82      -0.13557500      -0.28914000       0.27572700 
Pb       6.67351845      17.37071669      26.90831834       82       0.04754000       0.35825400       0.37422400 
Pb      10.40222204       7.18110772       8.14383909       82       0.90380300      -0.58619300       0.49522100 
Pb      11.23002186       6.92155627      26.81428251       82      -0.08638100       0.49017200      -0.46541400 
Pb      11.14619629      17.93889645       8.35675340       82       0.10449400      -0.26649300      -1.08019800 
Pb      11.40100847      17.61818384      26.94606947       82      -0.09784000       0.46053500      -0.34889000 
Pb      15.96332487       7.39635537       7.92595884       82      -0.25891100       0.06930700       0.49850500 
Pb      16.25333313       6.41214367      26.63501534       82       0.60377100       1.16350600       0.28243500 
Pb      15.83133709      17.66960996       7.98014283       82      -0.21385000       0.50323200      -0.16782000 
Pb      16.06293707      17.56639285      26.68545822       82       0.03328500       0.01175900      -0.09731100 
Pb       4.33094010       3.23269259      10.30657564       82       0.16095100       0.65526600       0.44055400 
Pb       4.03038853       3.58642402      29.35137184       82       0.42686200       0.85369700      -0.08707600 
Pb       3.76772926      14.24792013      10.82292067       82      -0.08725300      -0.11160100      -0.01970500 
Pb       4.08790005      14.25671866      28.72408886       82      -0.05167300      -0.51628300       0.55400700 
Pb       8.46016438       3.57184034      10.39065273       82       1.04545300      -0.43821700       0.46865700 
Pb       9.48120362       4.09760030      28.82160234       82      -0.30520500      -0.93839100       0.54688400 
Pb       8.73485326      14.51786776      10.67933375       82      -0.28602800       0.16145800      -0.06685600 
Pb       9.00257094      14.41620754      29.21674052       82      -0.16535700      -0.15165600       0.25789400 
Pb      13.96074033       3.24934913      10.85282173       82      -1.13702100       0.42098900       0.20835400 
Pb      14.71354989       3.17191418      29.71967402       82      -0.91561000      -0.63156500       0.17745900 
Pb      13.71076585      14.01276793      10.06679651       82      -0.25312600       0.23375300      -0.55280600 
Pb      14.15274497      14.13119505      28.95864754       82      -0.43971700       0.01765800      -0.03244100 
Pb      18.25505173       3.52440885      10.87115646       82       0.15108000       0.00599700       1.29909500 
Pb      19.39209925       3.41594941      29.30260217       82      -0.29515500      -0.52010500       0.02585500 
Pb      18.51000210      14.84554364      10.35764187       82      -0.33022500      -0.81698400       0.23558100 
Pb      19.01890767      14.03969241      28.76504027       82       0.36087700      -0.18631400       0.23650600 
I       4.25198405       4.09594299      18.23990535       53      -0.01676000      -0.21756000       0.31511100 
I       4.16780654       3.24856771      36.52433620       53      -0.26823300       0.25387400       0.21211500 
I       3.48658117      14.01492034      18.49595628       53       0.34693000       0.15355100       0.00893400 
I       3.68643191      14.32236459      37.71514716       53       0.51274500       0.16313900      -0.42255100 
I       8.93904461       3.58038634      17.93939752       53       0.03772100      -0.02422200       0.30789100 
I       9.17860800       3.38151686      37.59433499       53       0.18846500      -0.06574800      -0.22272800 
I       8.29628916      14.21981855      18.63635983       53       0.29205600       0.03894500       0.09965700 
I       9.59898750      13.92406391      36.88558863       53      -0.61392900       0.27489600       0.19789700 
I      13.88341474       3.29801441      18.70610676       53      -0.09084800       0.65491600      -0.20363100 
I      14.25065712       3.32748797      37.68745020       53      -0.16844600      -0.13275000      -0.19682100 
I      14.04036348      14.54916863      18.80597844       53       0.06253300      -0.13553300       0.04886700 
I      14.49035075      13.77253346      37.02646839       53       0.03841600       0.04088600       0.18139400 
I      18.87888986       3.22222682      18.51159876       53      -0.55058600       0.38020500      -0.41681200 
I      18.85027230       3.16261061      37.87537273       53       0.30492100       0.13655400      -0.24861700 
I      18.52877527      14.14235675      18.76926027       53       0.24120900       0.10280600       0.09256500 
I      19.08695455      13.86398939      37.23462155       53       0.08312700       0.25430500       0.34032800 
I       0.98687512       6.89975084      -0.29800249       53      -0.26329100      -0.27412400       0.38806400 
I       1.17817290       7.27281914      18.25098055       53      -0.92836800      -1.03547700       0.43590100 
I       1.46040565      17.83881599       0.26924772       53      -0.62233200      -0.19219100       0.04032700 
I       0.98924128      18.12214731      18.42116586       53       0.36245000      -0.34304900       0.16410000 
I       6.24255488       7.26333762       0.07982696       53       0.04922900      -0.05786600      -0.10081500 
I       6.65514594       7.40645528      18.93617570       53       0.14159100      -0.04353700      -0.22153900 
I       6.27572680      17.36428631       0.24480572       53      -0.19292100      -0.16241700       0.11867300 
I       6.04526217      17.65142635      18.82823622       53       0.25637600      -0.44724800       0.33219100 
I      10.94478668       7.21141838      -0.02282446       53      -0.35527300      -0.11087000      -0.06129100 
I      11.32697561       7.41786155      18.96123310       53       0.42371900      -0.29861500      -0.06256500 
I      11.60532011      16.99310000       0.21124706       53       0.09383000       0.65970800      -0.09800600 
I      11.41948537      17.31307294      19.23281318       53      -0.58483700      -0.00760300      -0.01953000 
I      15.50863809       7.22775579       0.33272533       53       0.09630000      -0.17234700      -0.27672600 
I      15.78570407       7.11735272      18.69514191       53       0.56352900      -0.47306500       0.05800800 
I      16.43562659      17.96295271      -0.36601258       53       0.43994800      -0.61047000       0.28580700 
I      16.58069683      18.70551124      19.10160781       53      -0.35504100      -0.66631100       0.25133600 
I       3.79594916       9.31047648       9.65600392       53       0.01412100      -0.67275500      -0.33537000 
I       4.18039191       8.54816949      28.60143348       53      -0.34081200       0.25743900      -0.47078900 
I       3.63814343      19.30958004       8.54344215       53      -0.01949700      -0.01939700      -0.05524700 
I       4.50222994      19.32097139      28.29372776       53      -0.36724100       0.15445500       0.04357800 
I       8.44056704       9.07777494       9.29415000       53      -0.26391600      -0.24081600       0.17719300 
I       8.83430938       9.07511351      27.97303702       53       0.72290500      -0.04975800      -0.03315000 
I       8.51804275      19.16800336       9.47094563       53      -0.32420000       0.17529300      -0.04550300 
I       9.30675128      19.53614051      28.42050702       53      -0.13698200      -0.39666300      -0.35801000 
I      13.04095668       9.39243398       9.35174404       53       0.15890700      -0.12324000      -0.27498300 
I      13.76513674       8.77217988      27.33180167       53      -0.07924300      -0.36638900       0.53673800 
I      13.58027729      19.77868645       8.90545811       53      -0.22706700       0.06487800       0.61925900 
I      13.59069435      19.64398455      27.66482228       53       0.46202900      -0.27954100       0.02917200 
I      18.42886978       8.80812856       9.08060538       53       0.60446000       0.39080600       0.37681700 
I      18.88266378       9.16614890      28.19340671       53      -0.20453700      -0.15981100      -0.14285300 
I      18.96318965      18.94949180       9.44271281       53      -0.23041300       0.26373800      -0.06348100 
I      19.30831743      19.51500616      27.99559802       53      -0.59931500       0.35413400       0.18052300 
I       2.10392563       1.59626279       9.57429397       53      -0.83744500      -0.47799700      -0.43690400 
I       2.24771039       1.63114968      27.87281141       53      -0.65634700       0.08859100      -0.13172100 
I       0.95664996      12.87218908       9.40171070       53      -0.19294800      -0.12136900      -0.16123200 
I       2.07713636      12.02459209      27.37134234       53      -0.20462800       0.58454400       0.27028300 
I       6.50794914       1.57522587       8.89539300       53      -0.19257800      -0.45363800       0.19395500 
I       6.32081202       1.98931816      28.32313770       53       0.32698200      -0.18590900      -0.08409200 
I       6.96724993      12.42302897       9.47412602       53      -1.04929200      -0.26574600       0.43863700 
I       6.61421840      12.41760470      28.29705231       53       0.32265200      -0.05329900      -0.25045900 
I      11.20658100       1.82067086       9.13243117       53       0.12254800       0.02036800       0.31161800 
I      11.70559146       1.79372053      27.96577053       53      -0.25722900       0.39697700       0.24628200 
I      10.82571333      12.89413369       9.16796925       53       0.46186900      -0.42679900       0.00132500 
I      11.38111188      12.61796148      28.23302492       53       0.29022600      -0.42673700      -0.22099200 
I      16.05594200       1.58294372       9.67644632       53       0.39110200      -0.51897500      -0.42041600 
I      16.69006595       1.09324578      28.64015294       53      -0.12527500       0.78744400      -0.83407500 
I      16.09472509      12.45115342       8.90179057       53       0.04421600      -0.00396600       0.14973500 
I      16.15240960      12.34364840      27.35623771       53       0.27438400      -0.21684500       0.46306200 
I       1.99730443       0.61901733      16.13358971       53      -0.01159200      -0.33498900       0.37418400 
I       2.42991040       0.11099560      34.67273530       53      -0.09471600       0.21997400       0.33237900 
I       1.40174386      10.39229313      16.51087235       53      -1.18364800       1.65644500      -0.66391300 
I       1.33021634      11.01360703      35.34315092       53       0.61891100      -0.06031300      -0.26023800 
I       6.71035891      -0.12765712      16.58749009       53      -0.06460000      -0.00758500       0.21988300 
I       7.06817942      -0.37777278      35.83428048       53       0.55966800       0.62907600      -0.39896500 
I       6.24861343      10.79092686      16.57964896       53       0.10532400       0.19141000       0.36353900 
I       5.80716321      11.17924991      35.58154913       53       0.46727000       0.00856200      -0.47803000 
I      11.79289965       0.37890813      17.43827045       53      -0.50821900      -0.57207500      -0.54949800 
I      11.65901695       0.04318832      35.70030235       53       0.11087200      -0.12649400      -0.27713800 
I      11.24079980      11.21873092      16.87101726       53       0.19287500      -0.16308400      -0.26025500 
I      11.72039385      11.07677148      35.19168609       53       0.08754300      -0.26626700      -0.81168600 
I      15.94086229       0.13316589      16.51953069       53      -0.01937300      -0.09095700       0.09078500 
I      16.97038887       0.57111857      35.16297507       53      -0.08585300      -0.36034800       0.23834100 
I      16.09624917      11.33413274      16.62376187       53       0.05833700      -0.16262100       0.14504400 
I      16.66487235      10.84219789      35.13908385       53      -0.15605400      -0.13293200       0.03331700 
I       4.01104272      10.66393485       2.07446599       53      -0.08150500       0.03565000       0.33289800 
I       3.56215004       9.88492756      20.10337381       53       0.21658400       0.33913300       0.31024600 
I       3.85732109      20.79177918       2.25422627       53      -0.27110700       0.32886200      -0.28339500 
I       3.62561970      21.34269396      19.96073634       53       0.59141200      -0.30768100       0.28299900 
I       8.63931523      10.46094646       2.18648858       53      -0.27735400       0.02602100      -0.36838700 
I       8.92156090      10.71551805      21.16460092       53      -0.22755100      -0.34107800      -0.35310100 
I       8.63209845      20.40227902       2.42096573       53       0.18878500       0.28743200      -0.38301700 
I       8.64163068      20.89935976      20.54787220       53      -0.10046200       0.02292400      -0.19894100 
I      13.79797959      10.27849692       2.09586379       53      -0.32840000      -0.31189500      -0.20083400 
I      13.69314096      10.48541928      20.69508391       53      -0.08821100      -0.01889200       0.28680900 
I      13.45972461      20.45220293       2.20833476       53       0.01422700       0.14881100      -0.23541800 
I      13.47559674      21.08096227      20.90193271       53      -0.73595500      -0.60475100       0.26989500 
I      18.87084692       9.70030572       2.14035748       53      -0.35587000       0.03841200       0.65927100 
I      18.36398639      10.06971841      20.76924403       53      -0.06129100       0.01848500      -0.15076200 
I      18.54841635      20.68921525       2.03769711       53      -0.08231600       0.00779600       0.37026400 
I      19.04746757      21.33413106      20.78946671       53       0.07129100       0.03847900      -0.08934600 
I       1.10700031       5.39722960      11.42829384       53      -0.10096800       0.04797100      -0.41521200 
I       1.25265016       5.71069760      29.96822782       53       0.32605000       0.33806000       0.10528400 
I       1.12663642      16.42626635      11.11239704       53       0.71681700       0.01689900       0.32050000 
I       1.66590733      15.98632033      29.91504000       53      -0.41120300       0.27140000      -0.59889700 
I       6.62153161       5.82843476      11.30764968       53      -0.32933900       0.12745500       0.17076400 
I       6.66247506       6.05256743      29.87105236       53       0.38443600      -0.64481600       0.30799800 
I       5.74442030      16.66918511      11.42087126       53      -0.13477800      -0.54334400      -0.40843000 
I       6.62141927      16.41800568      29.95750853       53      -0.16958100      -0.08297800       0.02532100 
I      11.40635817       6.11872337      11.05455247       53      -0.29121300      -0.50653100       0.19564600 
I      11.74513212       5.62745960      30.16899917       53       0.05378900       0.13764600      -0.25955400 
I      11.29147631      16.48099813      10.93126280       53       0.52238500      -0.18548000       0.77098900 
I      11.90799725      16.38621766      29.73838257       53      -0.05904200      -0.06466200       0.40463100 
I      15.83854591       5.55248723      12.01033351       53       0.31553600      -0.38681600      -0.58065200 
I      16.50774266       5.44761879      30.41283954       53       0.57768600      -0.13248000      -0.31244200 
I      15.59705579      16.48094445      10.93467384       53       0.09022800       0.00632400       0.24683000 
I      16.77221035      15.93709632      29.66082334       53      -0.12539300       0.30900800       0.19745500 
I       3.48700171       4.84204182       7.66408597       53       0.34438000      -0.06800100      -0.55975000 
I       4.00615829       5.41309179      26.26081268       53      -0.06452100      -0.48471500       0.01185200 
I       3.57693056      14.97378733       7.62193558       53       0.59919200       0.44079400      -0.21180500 
I       4.02316579      15.82422072      26.12775515       53       0.28981700       0.04207300      -1.11524100 
I       8.55064799       4.34660545       7.45914799       53      -0.11040400       1.06415000      -0.74825100 
I       8.76078256       4.61942428      25.60424504       53       0.20088400       0.40909200       0.43526800 
I       8.38930595      15.11248485       7.51455184       53       0.06392600       0.92116500      -0.60008200 
I       8.90857488      15.27328904      25.90335007       53       0.12767200       0.79908800       0.21696900 
I      13.61335178       5.68277496       7.46012826       53      -0.52016500      -0.63048900      -0.05894900 
I      14.03971925       4.73008086      25.99327396       53      -0.54865200      -0.38567200      -0.12004800 
I      13.33979428      16.13529473       6.64653234       53       0.38817900      -0.44346600       0.97215200 
I      14.11807183      15.27554385      25.81387456       53      -0.19806300       0.59279500       0.24607200 
I      18.61890396       4.93450982       8.11216441       53      -0.23260400      -0.23222200      -0.49223600 
I      19.10467984       4.98107041      26.26352879       53      -0.12622200      -0.36983200      -0.15538500 
I      17.93449620      15.78168359       7.13580278       53       0.72950200      -0.68536200      -0.31012300 
I      18.89463077      15.55760659      25.92066875       53       0.05050000       0.21000100       0.12170800 
I       1.20852234       2.89192630       3.48238671       53       0.30369900      -0.08042900       0.29707900 
I       1.70867411       3.35734926      22.00866359       53      -0.10722900       0.04954900       0.44980500 
I       1.26531705      13.57785745       4.25281519       53      -0.08128900       0.18006700      -0.04830000 