320
Lattice="20.820808535 0.166138670734 0.0671820243674 0.206439990264 22.5039295949 -0.146729214513 -0.0421369280263 -0.297684379995 38.5277342401" Properties=species:S:1:pos:R:3:Z:I:1:forces:R:3 energy=-101592.995596 stress="-1541.759878 -588.800464 33.001341 -588.800464 -796.100378 667.807471 33.001341 667.807471 -687.474617" pbc="T T T"
Cs       3.98088737       0.38715341       6.25684037       55       0.10987100      -0.10755400      -0.13033600 
Cs       3.62476893       0.73376450      25.23659695       55       0.04808000       0.13080500       0.23552600 
Cs       4.19429373      12.40829894       6.74442660       55       0.18528000      -0.06892300      -0.03005500 
Cs       4.15597865      11.97496133      25.57258602       55       0.38725700      -0.27933300      -0.40069800 
Cs       8.99153759       0.76854133       6.90717973       55       0.18390600      -0.19216800      -0.31398500 
Cs       9.16163212       0.73684774      25.23284471       55      -0.17033000       0.08172700       0.27715800 
Cs       9.38986983      12.16613263       6.68892931       55      -0.12037900      -0.24719600      -0.39359200 
Cs       8.65559631      11.95046993      25.39278573       55       0.65701700       0.79954800       0.02727300 
Cs      14.35523964       1.47796818       6.61654899       55       0.01722400      -0.16500500      -0.02476600 
Cs      14.00996552       0.87578679      25.82782079       55       0.04426500       0.11017000      -0.13886300 
Cs      14.92182145      12.50508028       6.15600033       55      -0.15201400      -0.08729400      -0.16058400 
Cs      14.85746607      12.20973015      25.49512999       55      -0.41166900       0.03738600       0.54320600 
Cs      19.33795267       0.42006763       6.34409774       55      -0.02746900       0.48055900      -0.03695000 
Cs      19.31048399       0.65631366      25.47261236       55       0.17805300      -0.02049200       0.08130200 
Cs      20.16771835      12.01116239       6.62686871       55      -0.19998600       0.14839500      -0.31568000 
Cs      19.92558321      12.09034496      25.13751772       55      -0.49708000      -0.27662900       0.38749700 
Cs       0.95428684      10.02638136      13.59503801       55       0.29275600       0.20712200      -0.46576000 
Cs       1.98425954       9.73437625      32.07397993       55      -0.26033500       0.08578000       0.13187900 
Cs       1.57986990      20.98455271      12.85901926       55      -0.21213400       0.24768900       0.19746100 
Cs       2.41270947      21.52721343      32.27955562       55      -0.18498200       0.25494800      -0.12447000 
Cs       6.93815550      10.31292016      13.20435155       55      -0.31180600      -0.02777200      -0.06825700 
Cs       6.25267779       9.55919874      32.30844438       55       0.18433200       0.16984900      -0.11921900 
Cs       6.62092973      20.85139162      12.97675479       55      -0.29739900       0.39107100      -0.41468000 
Cs       6.78771871      21.57964410      31.90786827       55       0.21839800       0.14292900      -0.03992500 
Cs      11.12008199      10.00550508      13.15459897       55       0.40405000      -0.05540600      -0.06387600 
Cs      11.38190188      10.19279948      32.58249439       55       0.56042700       0.26153100      -0.26212900 
Cs      11.73195149      21.82905000      12.77878748       55       0.02330000      -0.01083400      -0.01477300 
Cs      12.35707123      20.58459574      32.02800557       55      -0.17541900       0.44813300      -0.13395400 
Cs      17.08814073      10.98222852      12.59299731       55      -0.18102700      -0.50685100       0.05706900 
Cs      17.02267797      10.24745428      32.16504772       55      -0.12879700      -0.14299600       0.10123800 
Cs      16.75694481      22.24556484      12.90648122       55       0.13478600      -0.30226700      -0.00208500 
Cs      17.11034671      22.05823513      31.32424969       55      -0.02155000      -0.64738100       0.48003700 
Cs       3.92353681       5.76901832       3.12353250       55      -0.10068800       0.05873300       0.20375400 
Cs       3.10065336       6.38507222      22.20227689       55       0.33998500      -0.17832700       0.16509600 
Cs       3.65120917      17.56325376       3.68307002       55       0.27031100       0.34375000       0.17345800 
Cs       4.03415118      17.93322496      21.85061711       55       0.01220800       0.14999600       0.14122800 
Cs       9.56610591       5.91130966       2.60568729       55      -0.32560000       0.19115000       0.09861400 
Cs       8.57951257       6.13307756      22.76255925       55       0.39672600      -0.12326800       0.17841600 
Cs      10.08577010      18.04863768       3.16127934       55      -0.02848400      -0.32813800      -0.12515200 
Cs       9.54742467      18.06448084      22.57049248       55      -0.24554500      -0.28712500       0.20083300 
Cs      13.96688015       6.55504105       2.86805777       55       0.16753300       0.13939500       0.31262900 
Cs      14.02849094       6.02782561      22.88284614       55       0.12962700       0.23087000       0.00080800 
Cs      14.45581062      18.11476218       3.60709535       55       0.10200600      -0.29636700      -0.14120800 
Cs      14.60142725      18.73756118      22.19652802       55      -0.04578700      -0.22632700       0.04403900 
Cs      19.13278421       7.22030109       2.85600425       55       0.27611800      -0.40276600      -0.24018100 
Cs      19.21210597       6.36897039      23.31207104       55      -0.03952700       0.05027100      -0.39391600 
Cs      19.66393991      17.66114561       2.75751715       55      -0.18547200       0.17474400       0.15573000 
Cs      20.02373788      17.99539984      22.90773230       55      -0.14040800      -0.75666400      -0.64747600 
Cs       1.44032106       4.56242206      15.95816424       55      -0.33694400       0.07226800      -0.18033300 
Cs       0.78342150       4.96201959      35.21543013       55       0.63008200      -0.68547500       0.16260900 
Cs       1.13102467      15.55007429      16.07747775       55       0.13331800       0.10829000      -0.01070100 
Cs       1.19088399      16.41376809      34.64752901       55       0.14816900      -0.30259500       0.14188800 
Cs       6.08478142       4.41330770      15.45985731       55      -0.01128100       0.04483500       0.03312600 
Cs       7.00954062       5.03070583      35.38794097       55      -0.16302200      -0.51052200      -0.17473900 
Cs       6.83019533      16.17093589      15.31278632       55      -0.03616900      -0.38250600       0.00862000 
Cs       7.15928036      15.95421981      34.94355231       55      -0.11690500      -0.59688400       0.04032900 
Cs      12.14169732       5.28109343      15.79092545       55       0.09501800      -0.25637800       0.26037500 
Cs      11.82274710       4.33677414      35.07691077       55      -0.13471100       0.06631100      -0.16162400 
Cs      11.86005141      16.33176303      15.58733289       55       0.26886100       0.16310300       0.22460000 
Cs      12.06722689      15.93800891      34.98323552       55      -0.10695000       0.11953600       0.41885000 
Cs      17.20614324       4.81509611      16.00079461       55      -0.62636200       0.19579200       0.38073000 
Cs      16.83375677       4.23435509      35.22407006       55       0.12471100       0.39175800      -0.09869600 
Cs      17.65858594      16.23722452      16.93415530       55      -0.37542300      -0.08461500      -0.25230700 
Cs      17.53930982      15.27368588      34.40570240       55      -0.16422400       0.09077300       0.27543200 
Pb       1.03318268       1.31580406       0.61432425       82       0.59705100       0.78320700       0.36148000 
Pb       1.21018334       1.73986183      20.38104993       82       0.53277400      -0.10080300       0.19834500 
Pb       1.48727711      13.42411658       1.39309907       82      -0.64858600      -0.84945100      -0.34839500 
Pb       1.42957855      12.41141335      20.70445672       82      -0.61209300       0.84759900      -0.37205800 
Pb       6.60875675       0.88232309       0.87711856       82      -0.79287200       0.58744900       0.14429600 
Pb       6.37654968       1.85538674      20.19806874       82      -0.03527500       0.51742000       0.41360100 
Pb       6.29261136      13.47148193       1.04544189       82       1.00137100      -0.19265600       0.20514500 
Pb       6.38797782      13.63149255      20.03255337       82      -0.01461400      -0.09321600       0.43351600 
Pb      11.64527794       1.22387197       1.31302727       82      -0.18332800       0.18427900      -0.36927800 
Pb      11.25091402       1.96262907      19.77044364       82       0.14181300       0.42703000       0.82077300 
Pb      11.83483594      12.78620471       1.18307720       82       0.63634300       1.43178000      -0.42106500 
Pb      11.57378686      13.70520777      20.15688754       82      -0.11705400       0.19894500       0.74781400 
Pb      16.05472431       2.42381973       1.01978908       82       1.29152900      -0.67116500       0.22462400 
Pb      17.05032117       2.28285290      20.55516056       82      -0.34053800      -0.38016800       0.10625300 
Pb      16.69400224      12.98961132       0.88218596       82       0.77634600      -0.03906400       0.01683500 
Pb      17.08470844      13.47052413      20.95880225       82       0.29377200       0.22594500      -0.37958500 
Pb       3.97191917       9.16271770      18.02168633       82      -0.08895600       0.22298200      -0.06925100 
Pb       4.15548937       8.95715240      37.52542240       82      -0.05543100       0.40329200       0.46507100 
Pb       4.03282044      20.85006504      17.65591096       82      -0.30310800       0.09310000       0.05850600 
Pb       4.41158947      20.19850193      36.83706714       82      -1.04357600       0.78400900      -0.24055800 
Pb       9.29242156       9.27231713      18.54981178       82       0.06739400       0.09163600      -0.07611800 
Pb       8.76837144       9.33439436      37.39912693       82      -0.00650200       0.07927400      -0.16836300 
Pb       8.76714562      20.48254755      18.37546429       82       0.72971600       0.38536100      -0.63588200 
Pb       9.64743365      20.39035159      37.07493374       82      -0.16562500       0.55263300      -0.20713400 
Pb      14.53914642      10.01296594      18.52799536       82       0.22857000      -0.26363200      -0.09762500 
Pb      14.36406967       9.28241557      37.25576559       82       0.18492000      -0.11488500      -0.62487700 
Pb      14.30177533      20.88237258      18.05435435       82      -0.11732900       0.52930800       0.86364800 
Pb      14.89408890      20.70550386      36.86598290       82       0.39149300       0.34971200      -0.09949900 
Pb      19.40288356       9.54170488      17.78806957       82      -0.20892900      -0.00607100       0.88757100 
Pb      19.77923836       9.49094673      37.54291106       82       0.23553700       0.56847300       0.58383200 
Pb      19.41728794      21.16720770      17.54593131       82      -0.01154300       0.27445800      -0.62907800 
Pb      20.01210301      20.97204315      37.16492634       82      -0.13358400      -0.16516200      -0.61496100 
Pb       1.19928292       7.66439473       8.21391379       82       0.37423900       0.10892500       0.22104100 
Pb       1.40533023       7.07361759      27.65699271       82       0.04165200      -0.59436400      -0.18395500 
Pb       1.58419869      18.68905001       9.14333109       82      -0.30399300      -0.09201700      -0.36387700 
Pb       1.30217464      18.14309412      27.55547847       82       0.25398700       0.33736700      -0.42593200 
Pb       6.28179716       7.02598007       8.19624333       82       0.56355300       1.04088400       0.30009500 
Pb       6.83524923       7.62180487      28.05530625       82      -0.09432100      -1.06009400       0.59128500 
Pb       6.79323696      17.87416553       8.38848774       82       0.37075600       0.83075600      -0.39717600 
Pb       6.48153048      18.52764216      27.57301700       82      -0.08984800      -0.28977000       0.15703100 
Pb      11.69762343       7.23032474       8.23759491       82       0.14197200       0.90662900      -0.12751200 
Pb      11.87830880       7.40704595      27.90053235       82       0.10528800      -0.03044100      -0.63945700 
Pb      12.05948762      18.16314350       8.31409729       82      -0.29462300       0.54459500      -0.14223400 
Pb      11.51873834      18.22292699      27.83348122       82       0.13602900      -0.01377100      -0.32983100 
Pb      17.38019259       7.46582074       8.65678473       82       0.05124900       0.12422300      -0.50962900 
Pb      17.30838259       7.80423755      28.03994406       82      -0.25209900      -0.32515200      -0.88418800 
Pb      17.08000255      19.12699378       8.62015982       82       0.26295700      -0.50549900      -0.14305200 
Pb      16.96269190      18.17569150      27.31958356       82      -0.09968300       0.12070400       0.27078300 
Pb       3.62912473       3.50201170      10.60706006       82       0.19139400      -0.03956900       0.68744300 
Pb       3.75568823       3.43000017      30.15308057       82       0.44330000       0.17268600      -0.17484100 
Pb       3.71348689      14.76298989      11.29190928       82       0.47663800      -0.54195300       0.06908000 
Pb       3.62936366      14.99290946      30.10591883       82       1.41416600      -0.52367900       0.06843200 
Pb       9.37297018       4.01912661      11.05530381       82      -0.34181500      -0.20237800      -0.11971800 
Pb       9.45947544       3.74326281      30.22798835       82      -0.63711000      -1.48208600      -0.43455000 
Pb       9.47878205      15.06101500      10.77287773       82      -0.34077900       0.26679800      -0.04769500 
Pb       8.91029608      14.56744512      29.79749297       82      -0.47548700      -0.53941600       0.75294600 
Pb      14.50686796       4.44900493      10.59640792       82       0.02071100      -0.08208100       0.15953100 
Pb      14.13988131       4.22156296      30.13556074       82      -0.06652600      -0.04083700      -0.92499500 
Pb      14.28518422      14.47679286      10.51951597       82       0.54150600       0.88299500      -0.53462800 
Pb      14.02373207      14.75454422      30.44171676       82      -0.20486000       0.06953600      -0.58336400 
Pb      19.50736469       4.07757521      11.34072275       82      -0.29056600       0.42153900       0.29357100 
Pb      19.17617604       3.71692541      29.94610766       82       0.40660800       0.06092800      -0.17113300 
Pb      19.55340138      15.05964375      10.99630879       82      -0.25137500       0.38482600      -0.37912700 
Pb      19.63274288      14.19161805      29.71183540       82      -0.08192400       0.26475200       0.07910300 
I       3.61247233       3.94275616      18.79246530       53       0.72490600      -0.21986000       0.69822400 
I       3.31621114       3.24357215      38.63332276       53       0.25302200      -0.13871500      -0.21466800 
I       3.74099712      15.25354613      19.08691685       53       0.12834600      -0.36718700       0.00533600 
I       3.87421119      15.07432758      39.05209186       53      -0.04645700       0.60385100      -0.41364600 
I       8.97368222       4.08678858      18.83410255       53       0.12925600      -0.23506800       0.29277900 
I       9.12826705       2.81876124      38.35581242       53       0.01818800      -0.11039800      -0.01238800 
I       8.81889794      15.55532453      18.83367040       53       0.38643700      -0.43919600       0.28490300 
I       9.84713788      15.09856655      38.17224637       53      -0.12784600      -0.13071100       0.23938900 
I      14.15448515       3.69255451      19.43714306       53       0.11371400       0.33555600      -0.15326800 
I      13.84866156       3.90757003      38.32933062       53      -0.33880500      -0.14198800       0.05850900 
I      14.22460602      15.56365593      19.11406661       53       0.10012800      -0.15954000       0.23595000 
I      15.07524071      15.16465261      38.70431728       53      -0.58294500       0.26341100      -0.45507200 
I      20.00906340       4.04013690      19.73550579       53      -0.76516200       0.58921100      -0.52948200 
I      19.44159236       3.71052623      39.02625206       53      -0.20315400      -0.04875000      -0.28062600 
I      19.95637406      15.13685046      19.74138244       53       0.12219200       0.00198600       0.13731700 
I      19.56634621      14.85792835      38.34410483       53       0.24820800      -0.40844700       0.06256500 
I       1.76338816       7.52662852       0.37279058       53      -0.26191400       0.16449100      -0.25983900 
I       1.15592952       7.50474873      19.10329293       53       0.14622600       0.17719300      -0.23595300 
I       1.32247853      18.59155707      -0.35251994       53       0.19357900       0.29764200      -0.03864600 
I       0.75831096      19.09841044      18.70412132       53       0.98551400      -0.72399500      -0.36832300 
I       6.53998947       7.21987102       0.16588831       53       0.18902500      -0.03883600       0.20019600 
I       6.84011925       7.68309467      19.74007663       53      -0.45554400      -0.05221500      -0.21933900 
I       6.58525639      19.01583714      -0.32750808       53       1.02383900      -0.61181300       0.44915700 
I       6.39754127      18.42292313      18.33939308       53      -0.42271900       0.33339300       0.67158200 
I      11.96508000       7.81405655      -0.38345519       53      -0.47229000      -0.39602800       0.17365200 
I      11.89138037       7.63125716      19.79891583       53      -0.10268200       0.25880800      -0.28675700 
I      12.17958649      19.26914073      -0.30936704       53      -0.06782500      -0.60596400      -0.10158300 
I      11.66343769      18.95915143      19.36574443       53      -0.34669000      -0.11234500      -0.15771100 
I      16.47186037       7.40772950      -0.28791317       53       0.31259000       0.16853700       0.28099800 
I      16.94858462       7.40327812      19.25680361       53      -0.06028200       0.36546500       0.03045500 
I      17.51838160      19.22028362      -0.70801923       53       0.15745300      -0.27537400       0.05205600 
I      17.32395046      19.42914824      19.07393878       53      -0.40634000      -0.29640800       0.30501900 
I       4.01352422       9.30729758       9.85264886       53      -0.04144200      -0.47026300      -0.29008000 
I       3.70394422       8.94387306      28.67720874       53       0.30430600       0.46977700       0.22104900 
I       4.11999678      20.72498499       9.54674735       53      -0.08173900      -0.24811900       0.12706000 
I       4.09441253      20.23419605      29.01705706       53      -0.06048800      -0.14866300      -0.28388400 
I       9.08971408       9.05298321       9.06496713       53       0.04049700       0.09084200       0.32936800 
I       9.33361108       9.27142789      29.51374343       53      -0.11207200       0.03134700      -0.39960800 
I       9.41984936      19.57383304       9.67683247       53      -0.30113200       0.59422800       0.25365600 
I       9.16774874      20.38352857      28.78866560       53       0.17159900      -0.10573100      -0.07879900 
I      14.35689553       9.00491666      10.65664330       53      -0.28295000       0.34735500      -0.48405400 
I      14.46876273       9.31528616      28.68831277       53      -0.18316300       0.08355900       0.41441700 
I      14.04620087      20.28345830       9.69780536       53       0.06501800       0.52319600       0.37702100 
I      14.32808468      20.15115529      28.14809641       53       0.21335700       0.08347100       0.58975500 
I      19.84513327       9.85432449      10.03401674       53      -0.04138200      -0.69473900      -0.30889300 
I      19.62624917       9.43649657      29.35809276       53       0.76357600       0.10743100      -0.04340400 
I      19.32832274      20.85385053      10.21400091       53       0.65367400       0.20070100      -0.08029600 
I      19.40726741      20.33282131      28.44759874       53       0.15598400      -0.03675400      -0.00912500 
I       0.82276087       1.86181604      10.46220489       53       0.57972700      -0.72219700      -0.59061900 
I       1.43016652       1.60859868      28.86499658       53      -0.20885700      -0.10643100      -0.02266900 
I       1.46021669      12.85623001       9.69320647       53       0.14127000       0.34758400       0.43173300 
I       1.98829227      13.04465361      28.18783988       53      -1.18436900      -0.14314500       0.50096100 
I       6.48110560       1.64436552       9.54216508       53      -0.32287700       0.31223900       0.23941900 
I       6.56656892       1.73413373      28.73282965       53      -0.17521900      -0.08909100       0.13423300 
I       6.54746072      13.05035989      10.19774741       53       0.25665600      -0.22987700      -0.18185200 
I       6.04713430      12.51907225      28.92604225       53       0.44255000       0.28062000       0.02811800 
I      11.53369226       1.93794133       9.68036033       53       0.42794100      -0.03445000      -0.04883100 
I      11.97847672       1.74544137      29.13531513       53       0.22316300       0.08239800      -0.19293000 
I      11.61074939      12.98150951       9.80527520       53       0.23574500      -0.97191300      -0.29936700 
I      11.87338995      12.84514156      28.97392805       53       0.20427900       0.07423300       0.15229800 
I      17.26141823       2.33642316       9.68840501       53      -0.60409200      -0.14847100       0.08824000 
I      16.68262812       1.92250124      28.79712582       53      -0.07224200       0.34744800      -0.43596300 
I      17.51096749      13.17600402       9.03731250       53      -0.34274100       0.19932100       0.58047900 
I      17.02726543      12.44363882      28.65859191       53       0.21272100       0.57409000       0.38491100 
I       1.57840931       0.66110266      16.95953490       53      -0.10797200      -0.37769000       0.13995300 
I       0.91013874       1.00311589      35.72968826       53      -0.06308000      -0.39852600       0.61910100 
I       1.11391414      11.45095276      17.15257298       53       0.36731300      -0.00451700       0.17589500 
I       1.72054794      10.76634870      36.37164533       53      -0.49170100       0.47378500      -0.02556000 
I       6.83368995       0.88048748      17.19943034       53      -0.26163200      -0.97630300      -0.38256000 
I       6.21575577       0.30105330      36.01903813       53      -0.02039100      -0.44258200       0.02399200 
I       6.46045786      11.56994839      17.32186865       53       0.07201200      -0.11211700       0.10014300 
I       6.64632491      11.50839785      35.98536973       53      -0.13809800      -0.36125200       0.61109700 
I      11.27305560       0.29389681      17.11803715       53       0.11711600      -0.33803000      -0.30458400 
I      12.21515075       0.26959136      36.21538279       53      -0.41365600      -0.10393900       0.12691200 
I      11.92684283      12.24623248      17.33999723       53       0.05746100      -0.52224200      -0.23788100 
I      11.16967666      11.20606056      36.54990712       53       0.54388100       0.48606900      -0.25711200 
I      15.90165098       0.65762362      17.03786667       53       0.57055000       0.38609100       0.00523500 
I      17.13906926       0.69988210      36.04312647       53      -0.33491200      -0.76155400       0.47131500 
I      17.15841950      11.79137866      16.91129902       53      -0.28939600       0.02597700       0.41068300 
I      17.15901786      11.33749200      35.91970231       53       0.03056200       0.06729300       0.48799700 
I       4.35478014      11.26869044       2.09658902       53      -0.28705400      -0.12787900       0.10624400 
I       4.00642279      10.78320368      21.14393380       53       0.63886900      -0.36568400       0.20595900 
I       3.83748552      21.70875584       1.94181097       53       0.34652700      -0.04045000      -0.49258100 
I       4.20844776      22.26437801      20.92279440       53       0.19616400      -0.36426500      -0.09258700 
I       9.64444182      11.05237328       1.93053345       53      -1.24670100      -0.73288200       0.51461500 
I       9.19753400      11.07887377      21.35535913       53       0.05327800       0.25384600      -0.36461700 
I       9.21601475      21.88442056       2.15359157       53       0.53068700      -0.22223000       0.14297600 
I       9.37634637      22.19697056      21.18634394       53      -0.38481000       0.15444800      -0.02812400 
I      14.42958957      10.77992306       2.05868947       53       0.02292300      -0.05532200      -0.01399900 
I      14.80241548      11.67843005      21.99560628       53      -0.48081500      -0.54734000      -0.81925300 
I      14.47493960      21.67732922       1.56206855       53       0.33555500       0.74009600       0.62320600 
I      15.11632011      22.64596435      21.35269350       53      -0.27142500      -0.42916000      -0.04897600 
I      20.10864022      11.03403485       2.40932705       53      -0.00826100       0.30504900      -0.21370000 
I      19.49195368      10.92497145      21.34189281       53      -0.22201100      -0.01517300       0.04566300 
I      19.34751612      22.47395318       1.44551728       53      -0.64879600      -0.09998200       0.96902700 
I      20.13906956      22.00693470      20.67350173       53      -0.58502000       0.89895800       0.78293300 
I       1.36684998       5.75324061      12.32687667       53       0.11900200       0.05296000      -0.50681500 
I       1.23416467       5.70709796      30.76127158       53      -0.04682600      -0.06189200       0.19802500 
I       1.54436069      16.98215641      12.08669555       53      -0.44039800      -0.07310300       0.32124200 
I       1.22135281      16.89131613      30.53709256       53      -0.73170600       0.33824300       0.29958600 
I       6.86324252       6.03768513      11.64282111       53      -0.41740400       0.01058900      -0.05123600 
I       6.82125414       5.20537432      31.14159158       53      -0.50472500       0.67420600       0.29006300 
I       6.82219116      16.80831795      11.48403111       53      -0.57301600       0.52407800       0.48109200 
I       6.66184915      16.75856122      30.88616879       53       0.01092900       0.08758200      -0.22253800 
I      11.59786065       6.12366578      12.02337797       53       0.18229500      -0.00254400      -0.40098100 
I      11.35954319       5.91304139      31.11935132       53       0.81072300       0.72176800       0.52273700 
I      12.28351185      16.94242645      11.52827478       53      -0.03586600      -0.13019300      -0.00842100 
I      11.23698334      16.86924520      31.16799546       53       0.33623400      -0.26932900      -0.27135600 
I      16.93190936       6.45214828      11.69622932       53       0.22538300      -0.56392900       0.67342900 
I      17.05424067       6.12790004      30.71966653       53      -0.13494500      -0.41494200       0.89692300 
I      17.22202588      17.46034749      11.42336253       53      -0.04462400      -0.72716600       0.30839500 
I      17.36303946      16.91534421      30.70318968       53       0.05561000      -0.45564400      -0.11414300 
I       3.78518885       5.46312616       7.40887533       53      -0.84634500      -0.76103400      -0.13569500 
I       4.31633729       5.30718255      26.50709047       53      -0.32584900       0.18391900       0.37306000 
I       4.00438357      16.26422261       8.24089111       53      -0.58873600      -0.04475400      -0.37782100 
I       4.07391750      16.31550538      26.46757138       53      -0.30457600       0.35920100       0.59778400 
I       9.92172882       5.24445398       6.85791645       53      -0.64440200      -0.57083100       0.06152800 
I       9.16346669       5.19985711      27.12389336       53       0.02708400       0.26569900      -0.01610900 
I       9.17840815      16.00564594       7.43991757       53       0.10872200      -0.15100900      -0.07449000 
I       9.07932788      15.85065700      26.93569414       53       0.04062300       0.64408800      -0.62233000 
I      14.64101801       5.53617029       7.50204986       53       0.21400500       0.18953800      -0.47763800 
I      14.25949505       5.09925807      26.68631109       53      -0.16771300       0.30250300       0.35118800 
I      14.80258065      16.98085892       7.48209813       53       0.46037700      -1.07089500      -0.35209800 
I      14.32452462      16.06151721      26.85680765       53      -0.13624000       0.06180700       0.26743700 
I      19.47827024       5.02477725       7.55758870       53       0.13380300       0.69868700       0.39935000 
I      19.28846188       5.20771168      26.92559258       53       0.15138600       0.17255600      -0.11143600 
I      19.48432453      16.82375805       7.45834638       53      -0.02288000      -0.05925200       0.57669100 
I      19.67807628      16.26186655      26.63453177       53       0.25848300      -0.21179900       0.12497900 
I       1.36587971       2.03523689       4.17006100       53      -0.24310100       0.27745100      -0.18602300 
I       0.88926765       3.32625972      23.43635223       53       0.29997800      -0.49165700      -0.07661400 
I       1.33387239      14.39722490       4.33531459       53       0.06052300       0.29345200       0.09764100 