320
Lattice="19.2494499842 0.127988584316 0.129930073839 0.144643432036 21.5047466649 0.0279176540142 0.227061681596 0.0987115921273 36.3599291445" Properties=species:S:1:pos:R:3:Z:I:1:forces:R:3 energy=-101598.258786 stress="1218.162274 -1256.487294 -1220.825087 -1256.487294 408.174429 -1630.695014 -1220.825087 -1630.695014 383.668435" pbc="T T T"
Cs       4.01907736       0.30666669       6.40792212       55      -0.25772300       0.21625100      -0.01785100 
Cs       3.88633996       0.53960505      24.37924749       55      -0.27258100       0.22936500      -0.21948300 
Cs       3.53003969      11.51769501       6.43149285       55       0.53601300       0.25175300      -0.32784700 
Cs       3.53156846      11.63355692      23.97007291       55       0.31803600      -0.01640300       0.18902800 
Cs       8.20600443       0.88029854       5.81784130       55      -0.00575000      -0.12232000       0.30940100 
Cs       8.51665949       1.46742526      23.89292259       55      -0.32345100      -0.59495800       0.47857400 
Cs       8.42397135      12.48218878       5.49386472       55      -0.00410400      -0.16729500       0.18558800 
Cs       9.03299819      11.36957049      24.51272465       55      -0.29227400       0.21839900      -0.19389300 
Cs      13.11183620       1.01942680       5.77366971       55       0.14909200       0.24335900       0.09822600 
Cs      13.22968294       0.68465924      24.48613777       55       0.17475700      -0.12510100      -0.28387200 
Cs      13.49746271      12.48160072       5.98715968       55      -0.49213300      -0.71715000       0.27263200 
Cs      13.68787643      12.25406130      24.24715824       55      -0.16481700      -0.22039600      -0.04766000 
Cs      17.76171641       1.01324279       6.72856242       55       0.10986900      -0.04592900      -0.59978500 
Cs      18.11110178       1.01383086      24.17063440       55       0.17708800      -0.10646000      -0.32441300 
Cs      18.09833287      11.62638493       6.33770147       55      -0.03109900      -0.07143700      -0.05447800 
Cs      18.17188784      11.89449173      24.15916867       55      -0.09177700      -0.20008200       0.20618000 
Cs       1.64454899       9.73916157      12.81623924       55      -0.67239100       0.30643000      -0.58084700 
Cs       1.70461992       9.90524807      30.27176571       55      -0.07611200       0.05497200      -0.10872500 
Cs       1.72785377      20.51081632      12.38245473       55       0.01626200       0.15417700      -0.16637300 
Cs       0.49120670      20.90388669      30.35709571       55       0.48737800       0.34754200      -0.02537700 
Cs       5.52144549       9.74225061      12.01631404       55       0.56638600      -0.18889200      -0.24796600 
Cs       6.78652933      10.18403749      30.87040840       55      -0.42055700       0.21352900      -0.17128400 
Cs       6.56335949      19.99431805      12.64739861       55      -0.19830100       0.06572900      -0.55881400 
Cs       6.44355747      20.85226139      30.50860774       55      -0.60327500       0.07590000       0.66049700 
Cs      10.55851841       9.74542240      12.21608061       55       0.39399600      -0.04828300      -0.11573900 
Cs      10.80936851       9.93863853      30.16842646       55       0.26033200      -0.06390100       0.10845300 
Cs      10.85804759      21.23893203      12.69648451       55       0.46089400      -0.44460800      -0.71718400 
Cs      10.88886517      20.26358817      30.55564675       55       0.04764500       0.19949800       0.02388900 
Cs      16.49072832       9.97369370      12.67840432       55      -0.63925300       0.06408400       0.03417400 
Cs      16.23686995       9.68601046      30.38359394       55      -0.27147600       0.44938300       0.13106900 
Cs      16.32982504      21.22505988      12.39766848       55      -0.42973000      -0.42606500       0.02192000 
Cs      15.12596560      20.25416933      30.49983606       55       0.52227100       0.32933400       0.15685400 
Cs       3.15022879       6.23546447       3.29273077       55       0.26811400       0.51825100       0.20892900 
Cs       3.79957183       6.54722868      21.66726736       55       0.05961500      -0.16176300      -0.19441400 
Cs       3.55354344      17.85689766       3.12566220       55      -0.07138300      -0.15707800      -0.00325800 
Cs       3.67432556      16.80492456      21.16060066       55      -0.24314300       0.10850700       0.32245200 
Cs       8.17595517       6.29612345       2.69142162       55       0.02859600       0.33100700       0.59208400 
Cs       8.58120146       6.27469024      21.58303765       55       0.05979700       0.18778800       0.01952800 
Cs       8.44658857      17.26928335       3.32140690       55       0.28767700      -0.14692900      -0.12898900 
Cs       8.66171861      17.01877998      21.24689597       55      -0.02110800      -0.00807900       0.15659000 
Cs      12.65362497       5.61500441       3.02517953       55       0.16140200       0.44171100       0.34135900 
Cs      13.28943471       6.33559154      21.29168814       55      -0.05438900       0.27484900       0.08117400 
Cs      13.53103540      17.30615885       2.49290801       55      -0.24963800      -0.08603800       0.66492600 
Cs      13.29727553      17.41071559      21.17835184       55       0.13442100      -0.24692600       0.09067900 
Cs      17.56280189       6.77054528       3.20616851       55       0.03202100       0.00378500       0.06933200 
Cs      18.02349539       6.43787682      21.21949546       55       0.05737300      -0.15476300       0.07717400 
Cs      18.30284234      17.22380364       3.18113699       55      -0.17085900       0.04508600      -0.00328700 
Cs      18.61766999      16.65959358      21.60807804       55      -0.43929800       0.52120600      -0.53304600 
Cs       1.35479129       4.92319978      15.45725897       55      -0.33379700      -1.08555700      -0.14725700 
Cs       1.56264099       4.46812291      32.96971413       55      -0.21409100       0.06016200       0.07392900 
Cs       1.30795224      14.52094486      14.67840252       55       0.04812300       0.26976400       0.02147500 
Cs       1.44702632      15.35467720      32.99845428       55      -0.05167200       0.10947600       0.08981000 
Cs       6.42708682       4.68307959      14.91928709       55      -0.31897500       0.05273400       0.02926000 
Cs       6.45154604       4.59804313      33.74837357       55      -0.19476200      -0.01105800      -0.21267200 
Cs       6.21768373      15.11530464      15.52946248       55       0.14153100      -0.08316900      -0.32327700 
Cs       6.78132641      15.00098923      33.25193342       55      -0.33604700      -0.06976700       0.18935400 
Cs      11.02696506       4.63278407      15.57685019       55      -0.00708700      -0.11058900      -0.17739100 
Cs      11.18851354       4.38329528      33.16378329       55      -0.02719900       0.14729300      -0.01424400 
Cs      10.96171978      15.33993232      15.04701957       55       0.02838200      -0.08233000       0.34298100 
Cs      11.50848204      15.02761453      33.45245648       55       0.12736000      -0.08660800       0.15234500 
Cs      15.37139312       4.93176755      14.79462987       55       0.51073900      -0.18811400       0.25006700 
Cs      15.89647000       5.00486448      33.39177484       55       0.07466100       0.32908800       0.41825500 
Cs      15.64824303      16.24620210      15.59525937       55       0.41587400      -0.11101800      -0.76842900 
Cs      16.27341546      15.52134881      33.50320215       55      -0.11526100      -0.32035200      -0.10617200 
Pb       1.32400523       2.01805277       1.31695539       82      -0.64542100       0.36401500      -0.36093100 
Pb       1.68436775       1.94420327      19.22042319       82      -0.21035000      -0.20881600      -0.19354200 
Pb       1.27636634      13.13401015       1.90790599       82       0.05225500      -0.22069600      -0.33654600 
Pb       1.54939729      12.33099984      19.45551186       82      -0.15489000      -0.22285600      -0.44055100 
Pb       5.97862343       2.12584632       1.21375010       82      -0.26915900       0.03934400      -0.08140800 
Pb       6.13427257       1.92180867      19.21365999       82      -0.29788600       0.62100500      -0.20331200 
Pb       5.80292700      12.84951643       1.13306846       82       0.07194700      -0.13040000      -0.06726800 
Pb       6.12045461      12.26477840      19.25872796       82       0.62923900       0.38304800       0.55332500 
Pb      10.79886615       1.53818768       1.15199478       82       0.30332500       0.58105100       0.28833600 
Pb      10.77444731       1.75936874      19.56001246       82       0.41713600       0.38378100      -0.31964900 
Pb      10.94327219      12.75122249       1.24457753       82      -0.09665100      -0.33072300      -0.16459700 
Pb      11.34920701      13.25511241      19.31685050       82       0.06886300      -0.40402500       0.08356100 
Pb      15.72256238       2.21018438       1.01969571       82       0.53621700       0.27818000       0.40435300 
Pb      15.56570657       2.10123146      19.36056603       82      -0.21172800      -0.73428500       0.37765300 
Pb      15.77903401      12.31413912       1.35991639       82      -0.10700900      -0.03880500      -0.11554900 
Pb      16.08340953      12.64431252      19.34012277       82      -0.39165600       0.62662300       0.63990600 
Pb       4.12801256       8.84674522      17.21128295       82      -0.52835200       0.45558100       0.19459700 
Pb       3.46738011       9.50428763      35.31313434       82       0.13388800       0.31114600       0.53882600 
Pb       4.03129762      19.81748983      17.38503986       82      -0.36819900       0.75905600      -0.55372800 
Pb       4.39989792      19.76929538      35.02990835       82      -0.96489200       0.04506300       0.19230800 
Pb       8.73021251       9.36968655      17.01144743       82       0.28827700       0.08767100       0.12796000 
Pb       8.25705939       9.30840995      35.26610715       82      -0.05018700       0.16185000       0.69082300 
Pb       8.13818724      19.52378216      17.30542500       82       0.83651600       0.23044900      -0.76343100 
Pb       8.90433585      19.27924018      35.23396569       82      -0.57970300       0.37721700       0.89381800 
Pb      13.50365853       9.19255396      17.03776146       82      -0.53278900       0.21802800      -0.30662500 
Pb      13.14556748       9.62905616      35.06369972       82       0.72073400      -0.09026500       0.35372100 
Pb      13.06071819      20.05411120      17.17107018       82      -0.47870400       0.13087700      -0.30828200 
Pb      13.93546511      20.04993862      35.05806142       82      -0.05661400       0.23519400       0.35839900 
Pb      18.46877321       9.25278446      17.42314369       82      -0.48227100      -0.60369400      -0.36880500 
Pb      18.49646135       9.55162510      35.24181932       82      -0.53901700       0.05930900      -0.00409600 
Pb      18.32977103      19.93200028      17.34335251       82      -0.09061300       0.77530500      -0.27974800 
Pb      18.19990005      19.94461159      35.21009158       82       1.32294000       0.02031200       0.00463400 
Pb       1.00398353       7.07824133       8.18615907       82       0.73527700      -0.34618900      -0.33790000 
Pb       1.33408798       7.07971395      25.77402204       82       0.81904000       0.36277100       0.67682700 
Pb       1.55021683      17.78731432       8.14148511       82      -0.04476900      -0.56177800       0.83609200 
Pb       1.34419534      17.69392976      25.93541193       82      -0.35481100       0.27278200       0.32757600 
Pb       6.36716168       7.34116984       8.03613246       82       0.19851500      -0.01203600      -0.73791700 
Pb       6.06365693       7.07481146      26.40470078       82      -0.47754100       0.08686200      -0.25086000 
Pb       6.66258428      17.69451684       8.56004799       82      -0.29196000      -0.72436500      -0.15520600 
Pb       5.69538562      18.19191345      26.41396792       82       0.50396800      -0.30500900       0.20068100 
Pb      10.88136320       7.01795074       8.14244946       82       0.59999000      -0.53394600      -0.36637500 
Pb      11.50375490       7.32458591      26.16626301       82      -0.11150100      -0.16609600       0.18796100 
Pb      11.44366033      17.90336536       8.36039865       82       0.33682400      -0.40940600      -0.51341100 
Pb      11.10674442      18.06301667      26.45629061       82       0.08920800      -0.04182000      -0.47063800 
Pb      15.23496876       7.04559850       8.30591283       82      -0.44034200       0.49360100      -1.20355500 
Pb      15.90998950       7.69681014      26.36270314       82      -0.06006300      -0.27136900      -0.35964900 
Pb      15.96507619      18.19308859       7.93972879       82       0.13957500      -0.52445100      -0.23481600 
Pb      16.19280276      17.74873867      26.00008687       82      -0.25626800       0.33165300      -0.00026000 
Pb       3.63903793       3.50078437       9.92244960       82      -0.06560700      -0.00790900       0.21866900 
Pb       4.31178720       3.82496584      28.43506442       82      -0.38036100      -0.01439100       0.01875900 
Pb       3.74354740      14.25295725       9.72155617       82       0.19733000      -0.02492700       0.82129200 
Pb       4.53360262      14.25111821      28.60858098       82      -1.15739000      -0.09719300      -0.38614600 
Pb       8.42857635       3.55489982      10.56092779       82       0.24712300      -0.00317500      -0.18117100 
Pb       8.66113744       3.20356311      28.23769837       82       0.10190300       0.12899100       0.47315400 
Pb       9.05352518      14.05473521      10.43266635       82      -0.50237200      -0.07904900      -0.32442800 
Pb       8.99546273      14.96290116      28.53232802       82       0.11162000      -0.53910300       0.21327900 
Pb      13.12989766       3.86521210      10.49040572       82      -0.67109400       0.56027500      -1.41977700 
Pb      13.78634177       3.95563666      28.34494916       82      -0.51485500      -0.16877700       0.50934100 
Pb      13.45544635      14.42062078      10.53453299       82      -0.13513000      -0.44371200       0.17342100 
Pb      13.67577537      14.46043166      28.18370112       82       0.04918800      -0.24965500       0.34607400 
Pb      18.01874165       3.60890593      10.07748606       82       0.32317800       0.24808000       0.47299500 
Pb      18.31309057       4.17092233      27.94054606       82       0.37781700      -0.41925800       0.97731800 
Pb      17.77617268      14.53192891      10.22485704       82       1.00617500      -0.67741300      -0.06226200 
Pb      18.42049207      14.43193973      28.49067613       82       0.23147400       0.36559800      -0.06993300 
I       4.00632027       4.09357895      18.09822747       53      -0.41127100      -0.48215800       0.21121100 
I       3.70702946       4.30661088      36.67765277       53       0.35811400      -0.55002800      -0.38286700 
I       3.77898968      14.08759376      18.19037681       53      -0.02574200       0.18833900      -0.02094100 
I       3.58486239      14.46485936      36.15965431       53      -0.12410200       0.09825900       0.15592200 
I       8.55045875       3.89785198      18.45999858       53      -0.08375700      -0.02769000      -0.14864700 
I       9.04165461       4.20573222      36.31888304       53      -0.22418200      -0.63989800      -0.01630100 
I       8.71556120      14.38576952      18.33106929       53      -0.72837400       0.23245900      -0.27801800 
I       8.86530511      14.78691218      36.59301427       53      -0.25580400      -0.20344000      -0.17190100 
I      12.94174851       3.78702455      18.67238236       53       0.33850700       0.29018200      -0.41304900 
I      13.23291186       3.76715260      36.40201938       53       0.17521900       0.08044200      -0.33294800 
I      13.87614871      14.91218209      18.16526944       53      -0.22429400      -0.47353600       0.51835200 
I      13.84019520      14.44517851      36.51707356       53      -0.19492300       0.02290000      -0.19502600 
I      17.92713604       3.44345675      18.35456220       53       0.52463800       0.63678800      -0.38908900 
I      18.21944891       4.28762447      36.37074475       53       0.18443800      -0.11538300       0.07057600 
I      18.47486856      14.60630342      18.33512170       53       0.13551100      -0.24593400       0.08662800 
I      18.24589592      14.49648564      36.53246856       53      -0.01057300       0.04824600       0.16584600 
I       1.17448887       7.61612159       0.37167852       53      -0.20305300      -0.22043200      -0.12166300 
I       1.26842702       7.06547439      18.33397414       53       0.02828800       0.25722300       0.26103200 
I       1.27800346      17.95469909      -0.63102251       53      -0.03523600      -0.24444500       0.48208900 
I       1.41926627      18.52025666      18.47749661       53       0.10234500      -0.57953300       0.38594000 
I       5.76266596       7.38106444       0.14687353       53      -0.02870000       0.12405100      -0.10956300 
I       6.15572746       7.01017887      18.17021132       53       0.65879900       0.18939700       0.08635900 
I       5.87884111      17.65493744       0.26340231       53       0.41573600      -0.03029100      -0.14993200 
I       5.95429325      17.79663958      18.65735380       53       0.13499000      -0.38331200       0.15529300 
I      10.69949360       7.82536117      -0.04096041       53      -0.18604200      -0.55891200       0.31656700 
I      10.68530231       7.37345806      18.35347473       53       0.34656500       0.14124300      -0.02506500 
I      10.97925426      17.62893370      -0.10591904       53       0.57407900      -0.05231300       0.21749300 
I      11.07811755      17.88282852      18.34325901       53      -0.48025800      -0.03175100      -0.06950400 
I      15.93787563       7.83010014      -0.04967396       53      -0.48760600      -0.15636900       0.23204200 
I      15.78168768       7.63778728      18.33237642       53       0.07292600      -0.46607000       0.17368800 
I      15.78262444      18.05352593      -0.02732368       53       0.03462900      -0.25051900      -0.06463500 
I      15.49919652      18.60321865      18.24148595       53       0.52970500      -0.29636500       0.40828100 
I       3.64880743       8.78700920       8.83402359       53      -0.33812400       0.02655900       0.56889800 
I       3.59350404       9.44306028      26.84396894       53       0.11292800      -0.56849000       0.22145300 
I       3.97286184      19.43482924       9.51155418       53       0.05459100       0.05311600      -0.16520100 
I       3.58212993      20.03702196      27.65721369       53      -0.04007800      -0.29528100      -0.28420200 
I       9.07300903       9.10750273       8.72453579       53      -1.19836900       0.33485500       0.50771500 
I       8.31530506       8.79745640      27.24168568       53       0.87492200       0.40590400       0.37783800 
I       8.99478404      19.34935641       9.31114045       53      -0.32756300       0.84681600       0.54022900 
I       8.32162303      20.03418114      27.87010870       53       0.57252300      -0.80523300      -0.81467500 
I      12.90045714       9.38363061       9.23200530       53       0.51704500      -0.79011200      -0.05437900 
I      13.53575073       9.28983529      27.62020226       53      -0.30561600       0.22884400      -0.39356200 
I      13.78600292      19.94235587       8.86247119       53      -0.47904500       0.46878800       0.60252700 
I      13.71525232      19.69133142      27.42095185       53      -0.42534500      -0.07101100      -0.59271300 
I      18.48311225       8.87612465       9.95391533       53      -0.23749800       0.26338400      -0.15359400 
I      18.40112939       9.21617984      27.13325876       53       0.41858500       0.09233400       0.20073500 
I      18.18194891      19.98260607       9.32226929       53       0.21706000      -0.20595500       0.25390500 
I      17.88902828      20.24129995      27.36535196       53      -0.03269300      -0.45450200      -0.29813200 
I       1.29770893       1.68563942       8.81734017       53      -0.40118900      -0.00968800       0.15529400 
I       1.40823495       1.99275135      27.08931175       53      -0.22065600       0.35002200       0.11045000 
I       1.31554680      12.64966713       9.03244953       53      -0.22362900      -0.17242400       0.01700900 
I       1.26428596      12.50054576      27.34723040       53       0.40583700      -0.12546100      -0.42001400 
I       6.26258031       1.85129744       9.29779924       53      -0.00471900      -0.67222400      -0.63595000 
I       6.14566343       1.50045915      27.19468114       53       0.19474300       0.42114700       0.11112900 
I       6.76051376      11.85885737       8.73778638       53      -0.45954600       0.62997700       0.34824700 
I       6.66452971      12.42524433      27.62405962       53       0.37075400       0.01985100       0.04108800 
I      10.88581454       1.61051924       9.23850156       53      -0.06953800       0.29858400       0.19990600 
I      11.20431929       1.63136046      27.36226981       53      -0.08465500       0.13995500       0.12660400 
I      11.04190695      12.48249611       8.84711263       53       0.65189200       0.14667600       0.05204200 
I      11.10126964      12.96318469      27.11912164       53      -0.14370000      -0.13866400       0.06287500 
I      15.42097449       2.05148559       9.30035046       53       0.03788300      -0.16499600       0.16279300 
I      16.10890993       2.77383691      26.38369014       53      -0.15798100      -0.49504000       0.59117600 
I      15.90992449      12.18386823       9.53401872       53      -0.26154400       0.21880600      -0.18591300 
I      16.07950193      12.58257591      27.34175168       53      -0.14471400      -0.09083300      -0.23030200 
I       1.66191208       0.57578610      15.93299876       53      -0.05423100      -0.23230100       0.60215300 
I       1.62310987       0.33009952      34.60751470       53      -0.19478900       0.21595100      -0.21583600 
I       1.36096840      11.05246053      16.56573719       53       0.38340700       0.14462600      -0.55127000 
I       1.38883187      11.53203997      34.17666064       53       0.17489400      -0.00022800      -0.01758100 
I       6.11851607       0.05894504      15.72566128       53      -0.11775000       0.11232000       0.95098400 
I       6.53141406       0.21374706      34.56341895       53       0.26404300       0.33401900      -0.18157400 
I       5.83076782      10.83908877      15.60386654       53       0.21838200       0.10291700       0.51277800 
I       5.88463307      11.36894598      34.46478320       53       0.35993200       0.14145100      -0.16020100 
I      10.06396262       0.01583924      15.97103462       53       0.37396900       0.22717100       1.01425600 
I      10.90439807      -0.02525512      34.94560082       53       0.21720100       0.18779800      -1.01097600 
I      11.24916465      11.35228227      16.06292391       53      -0.37678000      -0.41633000       0.48672900 
I      10.66994474      11.30305945      34.55046485       53      -0.05719000       0.56811900      -0.33666500 
I      15.14488109       0.45224492      16.27197830       53       0.36789900       0.51961500      -0.08012100 
I      16.35283233       0.54673468      34.03621441       53      -0.93248300       0.43017400      -0.07360200 
I      15.79174087      11.41517924      16.67421927       53       0.07985100      -0.33384700      -0.82458400 
I      15.88940045      11.37686265      34.03164881       53       0.10179700       0.05295100       0.28919500 
I       3.39984563      10.88379819       2.39268440       53       0.21183500       0.17079300      -0.17610100 
I       4.06583072      10.17389072      20.40595028       53      -0.13793800       0.32309400      -0.14117300 
I       3.56897784      21.46824942       1.73857284       53       0.76941000      -0.28152300       0.26652000 
I       3.98416306      21.40039480      20.37573455       53       0.01360100       0.08587700      -0.00429300 
I       8.21266420      11.05507184       2.20839262       53       0.21588900      -0.24419300      -0.31113800 
I       9.10788689      10.75369475      20.11388958       53      -0.37928800       0.13355000      -0.04814200 
I       9.02356852      20.98663590       2.12188453       53      -0.66135200      -0.29905000       0.14716400 
I       8.50370540      21.60596023      19.96052569       53      -0.27848000      -1.25223300       0.59265400 
I      13.13714845      10.33199948       2.07041881       53       0.08078500       0.41363400      -0.08036400 
I      13.30189728      10.97747038      20.05288878       53       0.40599000      -0.32314700       0.07879800 
I      13.87170919      21.64556031       2.11850884       53      -0.57777200      -0.46997200      -0.16401800 
I      13.10424951      21.32110796      20.43282971       53       0.23949300      -0.13313800      -0.07619700 
I      18.23136972      10.79435275       2.51563752       53       0.23784700      -0.04318700      -0.07238000 
I      18.28867075      10.50748413      20.28716087       53       0.00834200      -0.01174600       0.15179700 
I      18.09418098      21.67614049       1.87592411       53       0.11746900      -0.39096900      -0.13251100 
I      18.22164454      21.48643205      20.35064491       53      -0.05083700       0.12664200      -0.22674400 
I       1.44873830       5.46693111      11.18387307       53      -0.17848300      -0.04406400      -0.25885000 
I       2.14351968       6.09360177      28.99368838       53      -0.23449600      -0.20095800      -0.06786300 
I       1.65994990      16.32008508      11.13712464       53       0.02646700      -0.22981400      -0.10139200 
I       1.57127082      16.35089182      29.28215669       53      -0.07071600       0.04749200      -0.39613700 
I       5.83919867       5.48547425      10.88021170       53       0.32503800       0.40160000       0.36628600 
I       6.72799800       5.78835351      29.38987242       53      -0.25752800      -0.46146800       0.08123300 
I       6.74801672      15.66471072      11.53038216       53      -0.73477100       0.77727300      -0.29189300 
I       6.30100230      16.30596865      29.61549399       53       0.36263800       0.70648900       0.15444900 
I      10.42284169       5.69639823      11.62143418       53       0.40926000      -0.00665800      -0.15612300 
I      11.27441977       5.92559545      29.00253393       53      -0.01618200      -0.40324300       0.15618700 
I      11.12742114      16.26455316      11.46267530       53       0.10306600       0.16924300      -0.23059400 
I      11.63974782      16.69193598      29.49286790       53      -0.30326100      -0.13445300      -0.19768100 
I      15.26058539       6.08386575      11.07264966       53       0.32021300      -0.60832600       1.05729600 
I      15.53134585       6.29413567      29.05184639       53       0.46342600      -0.53586300       0.73679300 
I      16.04685713      16.64270725      11.03491817       53      -0.96413200       0.68890700       0.34440300 
I      15.85464178      16.58278507      28.90102782       53       0.03999200      -0.03401100       0.53430400 
I       3.58468903       5.05509991       7.08800985       53       0.14266500       0.09544600       0.15639400 
I       4.30014516       4.84417692      24.84221936       53      -0.33767700       0.12449900       0.50662100 
I       3.99216641      15.87177437       7.19567830       53       0.05009000       0.27913200      -0.28568100 
I       3.58986141      15.73983484      25.43525428       53       0.29270000       0.21411100      -0.14905400 
I       8.29511397       5.17604357       6.83737547       53       0.05693800      -0.00188600       0.33541700 
I       8.59448653       4.92585049      25.70048184       53       0.09610500       0.22978200      -0.37689600 
I       8.95948952      15.75343709       7.30584675       53      -0.09544900       0.28899900       0.21852200 
I       8.39102119      15.96128777      25.69983370       53       0.07851300       0.34631100      -0.12757400 
I      13.29902691       4.92672519       6.77828071       53       0.05323600       0.00483200       0.61658100 
I      13.85784197       5.32302152      25.47606398       53      -0.70606400       0.43524700      -0.43419400 
I      13.71910969      15.92521507       7.07981836       53      -0.05875700       0.18915000       0.38706200 
I      13.34813645      16.09105729      25.14186773       53      -0.04200600       0.08893000       0.44580200 
I      17.41674593       5.02411685       7.26057192       53       0.59503300       0.17621200       0.23256100 
I      18.27209667       5.47825203      25.17367329       53      -0.25069200       0.00700100      -0.52206800 
I      18.06797234      15.86625329       7.39971102       53       0.37069400       0.03790200      -0.32285400 
I      18.45966071      15.70710040      24.94279561       53       0.12353500       0.20637000       0.75421800 
I       1.69416582       3.14756921       4.07628284       53      -0.49155400      -0.42496300       0.10905800 
I       1.50999520       3.04340746      21.99728512       53      -0.01382400       0.20851000       0.06601700 