320
Lattice="19.8243149893 -0.0696916226209 -0.0111196280991 -0.0813698970456 21.2241642403 -0.0584486185666 -0.0538748251518 -0.0522896908781 36.8392538667" Properties=species:S:1:pos:R:3:Z:I:1:forces:R:3 energy=-101594.482862 stress="-2560.090602 -98.40183 50.187744 -98.40183 -1253.312243 -1215.322024 50.187744 -1215.322024 -1703.590434" pbc="T T T"
Cs       3.69976360       1.00481523       5.76476224       55       0.13112900      -0.14535800       0.08422200 
Cs       3.38162834       0.99001703      24.20087368       55       0.25067100       0.13711100       0.13978700 
Cs       4.22668158      11.54312248       6.00880876       55      -0.46036400       0.18302400       0.34758100 
Cs       3.96461723      10.79431926      24.28889897       55      -0.37207900       0.03135400       0.22520900 
Cs       8.68317210      -0.45220249       6.23576525       55       0.15592900       0.51386600      -0.94252200 
Cs       8.40540841       0.56583668      24.84903469       55      -0.14721400       0.48404900       0.12767900 
Cs       8.67116219      11.12367779       5.54050818       55      -0.22989100       0.43905100       0.34094800 
Cs       8.38986205      11.92464930      24.41145867       55       0.16821000      -0.23516600       0.03770200 
Cs      13.69828920       0.65735104       5.52144511       55       0.15325100      -0.00766000       0.25850800 
Cs      13.36604071       1.02436095      24.49306150       55      -0.14477600       0.05758500       0.22174400 
Cs      13.52764051      10.99368000       5.49964606       55       0.14701400       0.16597200       0.25110600 
Cs      13.52817152      10.97476104      24.09654697       55      -0.16973700       0.23531700       0.04274200 
Cs      18.96566276       1.38265064       6.26850922       55      -0.57709100      -0.50636600       0.57437400 
Cs      17.97913579       1.03966055      23.70961234       55       0.45273600      -0.23600700       0.61833000 
Cs      18.64565020      11.41186724       5.59507095       55      -0.26856900      -0.30859700       0.41588100 
Cs      17.98763787      11.25618554      24.19986693       55       0.53226700       0.37669200       0.04259500 
Cs       0.77474474      10.42897641      12.21406955       55       0.08650800      -0.30353100      -0.04047000 
Cs       0.70813159      10.25361476      30.86199382       55       0.27170300      -0.30172800      -0.09955900 
Cs       2.05209845      19.85241904      11.85447503       55      -0.49609500       0.12907900      -0.04729800 
Cs       0.99157354      20.64341881      30.45903117       55       0.21580600      -0.25057800       0.11967700 
Cs       6.75633578       9.60865561      12.54156757       55      -0.57389100       0.44090400      -0.32051100 
Cs       5.65457369       9.84932163      31.39436995       55       0.25693100       0.00007800      -0.09026700 
Cs       6.01482753      20.13384552      12.03863585       55       0.19855300      -0.08821800       0.16960800 
Cs       5.79193357      20.43239461      31.24209836       55       0.20032900       0.23361800      -0.11219800 
Cs      10.89407810       9.70829403      12.43554419       55      -0.09024900      -0.37151500      -0.18057200 
Cs      10.98941415       9.65697851      30.69906254       55      -0.01436800       0.03806500      -0.01493700 
Cs      11.35761341      20.11796950      11.85978612       55      -0.61347400       0.08998600       0.46098900 
Cs      10.96031816      20.13020050      31.21295400       55      -0.07877800       0.00087500      -0.08006400 
Cs      15.67202516       9.68191921      12.33057692       55       0.09179700       0.14102200      -0.19422700 
Cs      15.54679363       9.72742717      30.30928138       55       0.26985600      -0.11995000       0.00717900 
Cs      15.66732010      20.03222025      12.44097076       55       0.39844000      -0.03383500      -0.17379800 
Cs      16.22994604      20.25147709      30.60080692       55       0.11174000      -0.16545900       0.06860200 
Cs       3.33004041       7.29420461       2.99549022       55       0.11662100      -0.55032600      -0.08820200 
Cs       3.97282124       5.99578421      21.76526552       55       0.01538200       0.03046200      -0.11332300 
Cs       3.56960197      16.85243695       3.03933014       55      -0.09649300       0.34294200       0.72487000 
Cs       3.38708550      17.13159035      22.21580490       55       0.32540400      -0.35132000      -0.47058700 
Cs       8.25512662       6.36460922       3.11768374       55       0.04500300       0.07949700      -0.11084100 
Cs       8.67066671       6.23525694      21.63386124       55       0.01544500      -0.16481100      -0.14921600 
Cs       8.70837435      15.79158140       3.55145287       55       0.67022100       0.89267500      -0.26604600 
Cs       8.48723134      16.78141090      22.16845913       55      -0.07218100       0.13135700      -0.39037800 
Cs      13.08565948       5.98419970       3.48659068       55       0.21655600      -0.09313800      -0.16819700 
Cs      13.54595049       6.61880317      21.70912748       55      -0.03697700      -0.12293400      -0.01846300 
Cs      13.85795348      16.67362966       3.04484258       55       0.14895600      -0.30663500      -0.23877100 
Cs      13.48963282      16.97640412      21.70565815       55      -0.22578600      -0.18612100      -0.10070600 
Cs      18.80464233       5.64017226       4.14989535       55      -0.74900500      -0.04524200      -0.62460100 
Cs      18.57135715       5.07332390      21.19936469       55      -0.73747100       0.75543000      -0.16574300 
Cs      18.57859192      16.89211861       3.16926279       55       0.17974800      -0.23237600      -0.05598500 
Cs      18.37696797      16.62408089      21.40298930       55       0.44299800      -0.26327100       0.31474400 
Cs       1.23878342       4.30797449      14.76142079       55      -0.16485500       0.06542800       0.03302400 
Cs       1.09597230       4.82903359      33.59919105       55       0.12943600      -0.36914600      -0.09869700 
Cs       1.30547652      15.11821221      15.23087321       55      -0.51364700      -0.42592700      -0.03774700 
Cs       0.97249863      14.99921561      33.69212571       55       0.04193600      -0.10073300      -0.00551300 
Cs       5.71843605       4.66651982      15.11778484       55       0.48303200       0.08492600      -0.08342700 
Cs       6.59138805       4.01143199      34.03058840       55      -0.14975600       0.19521900      -0.09108400 
Cs       5.81169840      14.47150507      15.23235570       55       0.23227500       0.33858300      -0.03897100 
Cs       5.97877708      15.35946254      33.70521738       55       0.30172100      -0.39121500       0.09036600 
Cs      11.29345100       4.18366779      14.53613136       55       0.01625700       0.22366300       0.30014200 
Cs      11.04041777       3.82496848      33.94244763       55       0.07588900       0.15811000       0.02716500 
Cs      11.41997354      14.46373435      15.51001773       55       0.02552500       1.02570400      -0.38972700 
Cs      11.75770485      14.57786205      33.85275232       55      -0.56099800       0.27664400      -0.03634800 
Cs      16.06915854       4.66904459      15.43890481       55       0.00005800      -0.02756300      -0.27860800 
Cs      16.39448219       4.74781865      34.24284933       55      -0.12704100       0.00690900      -0.05564300 
Cs      16.33623985      16.05412740      15.51974568       55      -0.17368700      -0.12575300       0.04812600 
Cs      15.69025618      14.55450353      33.10377539       55       0.53184300       0.50301500       0.26524500 
Pb       1.11742787       1.59690138       1.07226832       82       0.01512600       0.04850500      -0.21554700 
Pb       1.27439071       2.13881003      18.94481913       82       0.44670100      -0.07641300       0.05530800 
Pb       1.11720382      12.39867255       1.69198970       82       0.00797400      -0.01338700      -0.09838000 
Pb       1.05171586      11.93205975      19.45869972       82       0.19246000       0.11631100       0.33385800 
Pb       5.99598951       2.05337563       1.16564813       82      -0.22027100       0.99790000      -0.10793100 
Pb       6.26640492       1.74068076      19.19679231       82      -0.13884800      -0.37420100       0.05222200 
Pb       5.92790177      13.00832052       1.16830219       82       0.27386900      -0.30621400       0.15680000 
Pb       6.02684929      12.02030811      19.15212627       82      -0.12569400       0.45387600       0.73385700 
Pb      10.92193244       1.01415430       1.61482445       82       0.19388700       0.78257400      -0.14098500 
Pb      10.89923127       2.31584860      19.69530026       82       0.23337800      -0.89837900      -0.39286100 
Pb      11.35687217      12.22291018       0.91523541       82      -0.09840000      -0.32512200       0.57079700 
Pb      11.05683961      12.32853184      19.55319386       82       0.03144600       0.75345200       0.22626900 
Pb      15.95884267       1.44828369       0.76032061       82      -0.19332700       0.69490700       1.39560700 
Pb      15.72324987       1.06982153      19.38764702       82      -0.04813300       0.29187800      -0.03936200 
Pb      16.38781692      11.87409477       0.95085553       82      -0.24729500      -0.20465500       0.45976400 
Pb      16.04705253      12.42220873      19.64202159       82      -0.20065100       0.09510000      -0.14526100 
Pb       3.51676449       8.45040016      17.06185135       82      -0.40355800       0.31414200      -0.29877000 
Pb       3.21659573       8.52787434      35.87776037       82       0.24985500       0.60721100      -0.14832300 
Pb       3.58722499      19.15798416      17.40209460       82       0.56337700       0.52552100      -0.82008400 
Pb       3.86426520      19.43843942      35.64910821       82       0.48537500      -0.57023300       0.21498300 
Pb       8.89481220       8.98860161      17.23322253       82      -0.21137600      -0.37971000       0.06841800 
Pb       8.46709836       9.26934212      35.29901067       82      -0.15273800      -0.04864200       0.62559000 
Pb       8.38557350      18.87521436      17.47603233       82      -0.00391800       0.26811500      -0.22762900 
Pb       8.97671903      18.70174283      36.24371714       82      -0.40414000       0.42391400       0.45575800 
Pb      13.63224457       9.36721873      17.35418920       82      -0.37052500      -0.88397500      -0.45776500 
Pb      13.20421982       8.72636750      35.08692149       82       0.99842200      -0.28843200       0.27543500 
Pb      13.17881227      19.39131572      17.78897001       82      -0.34916100      -0.12786900      -0.77182700 
Pb      14.13577935      19.29121736      35.51199014       82      -0.37232200      -0.16259600      -0.29763000 
Pb      18.00582052       9.08464338      17.40405381       82       0.63621200      -0.64333500      -0.45261900 
Pb      18.50085816       8.98179422      35.49051286       82      -0.44228100       0.02877000       0.25056200 
Pb      18.77043955      20.19680970      17.25485872       82      -0.17523400      -0.41737800      -0.62771000 
Pb      19.31347339      19.34498262      35.59504980       82      -0.16975000       0.20871200      -0.28262600 
Pb       1.17490527       6.83096639       8.46770537       82       0.31267900       0.28489200       0.29874800 
Pb       1.09355018       7.32626854      26.41980208       82       0.00618100      -0.25384300       1.09946000 
Pb       1.25939412      17.14339595       7.71437771       82      -0.14380900       0.71948200       0.05821600 
Pb       1.40499748      17.80817817      26.81236858       82      -0.44032800      -0.24550600      -0.54562800 
Pb       6.23983863       6.76229237       8.06743330       82      -0.37937600      -0.08905300      -0.14449400 
Pb       6.01398364       7.00894459      26.54875858       82       0.31044100      -0.49737000       0.44424600 
Pb       6.23799884      17.00098851       8.08178143       82      -0.20760000       0.27905000      -0.13913900 
Pb       6.07604175      17.34123077      26.82026464       82       0.10348400       0.21365300      -0.23730100 
Pb      10.44704260       7.00665572       7.93387044       82       0.59800300      -0.40538500       0.34892700 
Pb      10.86326767       6.92550593      26.68689622       82       0.57746600      -0.22552100      -0.80959300 
Pb      11.29873840      17.86400431       8.07575476       82      -0.63209200      -0.25056700       0.29522600 
Pb      11.11649238      17.44012203      26.61703088       82      -0.37155800       0.24476200      -0.28205400 
Pb      15.70270136       7.36791927       7.78673622       82      -0.33722300      -0.09424400       0.12770900 
Pb      15.94861234       6.71360526      26.19676796       82      -0.62310500      -0.10836400       1.06411400 
Pb      15.72840205      17.70522044       7.37466152       82       0.91661100       0.06907300       0.98014600 
Pb      15.72961212      17.56873998      26.15970287       82       0.69941500      -0.55265000       0.55829600 
Pb       4.23382850       3.10845423      10.09322701       82      -0.85635200       0.82635800      -0.41144100 
Pb       3.86459881       3.70283813      29.01307188       82       0.15015400      -0.22843700       0.67467400 
Pb       3.71903690      14.00352921      10.43396968       82       0.19904600      -0.00144000      -0.06593400 
Pb       3.82561497      13.91235339      28.41840570       82      -0.31150700       0.24017700       0.37045600 
Pb       8.47651639       3.43264281      10.45015167       82       0.24888900       0.25182200      -0.35115600 
Pb       9.00208611       3.72956728      28.61389539       82      -0.66568400      -0.06971200      -0.04990800 
Pb       8.85904008      14.15457099      10.61788573       82      -0.19299800       0.44679800      -0.62363700 
Pb       8.74653503      14.66626240      28.83959344       82       0.10501000      -0.79002700       0.35331200 
Pb      13.28382890       3.48001326      10.61522574       82       0.25500000       0.47580000      -1.50071700 
Pb      14.26018673       3.16535325      29.39831676       82      -0.24478700       0.50587000      -0.49002100 
Pb      13.86971071      13.89235563       9.71417067       82      -0.89999500       0.49944100       0.70122800 
Pb      13.71740853      14.00141405      28.52212441       82       0.00053400      -0.13112900       0.00217600 
Pb      18.06448925       3.73385682      10.49275092       82       0.86900800      -1.38051600       0.15126300 
Pb      18.78765889       3.64026382      28.54000109       82       0.22850000      -0.20939700       0.64351000 
Pb      18.31493355      14.38512709      10.22872243       82       0.10492300       0.39231300      -0.50356200 
Pb      18.76327783      13.99180553      28.37610453       82       0.03726400       0.09684500       0.04648600 
I       3.78751253       4.09915921      18.15934858       53      -0.05904200      -0.20405400       0.18213600 
I       3.71844371       3.51847892      36.08330175       53      -0.05445500      -0.26427300       0.71682200 
I       3.18535891      13.89531468      18.25598156       53       0.28165100      -0.12173900       0.18573700 
I       3.20205019      14.38592755      37.44931342       53      -0.11868300      -0.33239800      -0.57246800 
I       8.70665005       3.39348526      17.94472771       53      -0.33307900       0.33996800      -0.04781200 
I       8.52102352       3.30010348      37.33518671       53       1.00800400       0.29922800      -0.26029800 
I       7.84386521      14.34588071      18.34690569       53       0.20328300      -0.40991200       0.15641600 
I       8.87671048      13.77114813      36.49060427       53      -0.02629800       0.28224200       0.00147300 
I      13.21232809       3.70716122      18.33861384       53       0.23804300      -0.16842000       0.04103600 
I      13.45823710       3.42038122      37.36499336       53       0.08844300      -0.32706800      -0.36799500 
I      13.84146749      14.51062314      18.61559286       53       0.19300300      -0.23935800      -0.08042100 
I      14.00615465      13.54934383      36.68315071       53      -0.36586400       0.55067200       0.03350800 
I      18.47846789       3.36013625      17.89326810       53      -0.18880200      -0.00837800      -0.00345200 
I      18.61517338       3.53773840      37.40072797       53      -0.28403000      -0.28440600      -0.33624500 
I      18.58493541      13.73981755      18.51883354       53      -0.15942600       0.53581700      -0.27957500 
I      18.37853238      13.80062314      36.85354278       53       0.67407800       0.44789800       0.07712200 
I       0.82628134       6.86702276      -0.28249837       53      -0.02705300       0.05118000       0.39800600 
I       0.68976141       7.15972975      18.14013154       53       0.10918000      -0.16288100      -0.01159200 
I       1.18813710      17.49831107       0.30398947       53       0.02625200       0.15672200      -0.42867300 
I       1.08961992      18.25766934      18.61700132       53      -0.84168900      -0.71256900       0.20834700 
I       5.90890089       7.24314867      -0.08643917       53       0.38634100      -0.03934000       0.06082300 
I       6.75525402       7.33862785      18.75627994       53      -0.33721800       0.00666200      -0.25781000 
I       6.05011898      17.13408057       0.48681290       53       0.48255500       0.15602700      -0.41569100 
I       5.91687097      17.69182477      18.83066972       53      -0.13834600      -0.36981900       0.15044100 
I      11.13885698       7.36740307      -0.26508558       53      -0.47685700      -0.14354400       0.03261000 
I      11.21729843       7.46168598      18.70759085       53      -0.10170200       0.03416900      -0.28186500 
I      11.66547491      17.28616759      -0.22886141       53       0.51938500      -0.09745100       0.05447400 
I      10.86943252      16.95256592      18.61787877       53       0.09493400       0.50942000      -0.02954900 
I      15.52690740       7.30325744       0.12055311       53       0.17126200       0.08852900      -0.39766900 
I      15.64418760       6.89932654      18.44937485       53       0.18982100       0.58745800      -0.11969400 
I      16.73965258      17.87251823      -0.51719299       53      -0.56474300      -0.40241200       0.23987900 
I      16.51456153      18.33808086      19.01534971       53      -0.37387400       0.22947100      -0.46577200 
I       3.62762519       9.18468154       9.67195142       53      -0.08428300      -0.51255800      -0.43626900 
I       3.84325280       8.53503607      28.22127856       53      -0.30593700       0.15878100      -0.35872400 
I       3.79779221      19.06548871       8.43220566       53      -0.37372900       0.11234300       0.33551600 
I       3.74710740      19.16153245      28.12472552       53       0.21366000       0.35842300       0.12059700 
I       8.20582757       8.83427408       9.17176556       53       0.50277400       0.33852300      -0.24278200 
I       9.00335738       8.79734125      27.81972536       53      -0.75117400       0.21095900       0.00359600 
I       8.31883303      19.60099661       9.20833616       53       0.23000700      -0.73036100       0.65866400 
I       8.66087954      19.11911086      27.78268099       53       0.16528700       0.01692800       0.11723100 
I      13.11068210       9.50117541       8.90895700       53       0.01335900      -0.79340600      -0.10440100 
I      13.26131328       9.02301166      27.15655492       53       0.11657900      -0.44246200       0.18973000 
I      13.39377069      19.77628029       9.10707214       53       0.22117200      -0.08326900      -0.66634500 
I      13.52928289      19.41262522      27.00307918       53      -0.03373800       0.23433200       0.45852800 
I      18.90194253       8.89750969       8.92623359       53      -0.51792400       0.14888700       0.20122900 
I      18.57089819       9.09057036      27.46153140       53       0.07967700      -0.24258300      -0.12260900 
I      19.04309153      18.91829626       9.10715604       53      -0.14258400       0.06217400      -0.03609100 
I      18.68866992      19.44804794      27.33177938       53      -0.34585400       0.05967000       0.12084400 
I       1.71585258       1.50970715       9.32478629       53       0.19644200       0.03437100      -0.12627400 
I       1.66178134       1.77089010      27.63817912       53      -0.38893900       0.16042900       0.02780200 
I       0.81411746      12.76251515       9.15983263       53      -0.18087000      -0.17412200      -0.05743900 
I       1.61594865      12.05332548      27.38532257       53      -0.01258300       0.09599700      -0.01494200 
I       6.41834093       1.65254986       8.69913004       53       0.10318800      -0.26489500       0.21689600 
I       6.17668099       1.80983249      28.01285117       53      -0.13142000      -0.09820200      -0.20811000 
I       6.43397513      12.54863454       9.28866773       53      -0.07648000      -0.33927700       0.19309600 
I       6.48579994      12.42120199      28.29296295       53       0.12429400      -0.27188200      -0.43595500 
I      10.93775023       1.98423377       9.02558084       53       0.24586400      -0.19348200       0.38191700 
I      11.13405519       1.68100627      27.98090469       53       0.28104300      -0.41972800      -0.18355300 
I      11.03976536      12.80165198       8.84998725       53      -0.11362600      -0.29355800      -0.09063100 
I      10.91646442      12.46041284      27.53022713       53       0.20704400       0.24031100       0.17808000 
I      15.74918350       1.45352075       9.51348932       53       0.23043100       0.45631200      -0.23760500 
I      16.22396280       1.40647405      27.71922429       53      -0.03490500       0.13591700      -0.01918200 
I      15.87997780      12.08662811       8.70458029       53       0.86443500      -0.14456700      -0.07779100 
I      15.85083147      12.09379082      27.07109486       53      -0.04627800       0.23667900       0.35838000 
I       1.72377628       0.33659823      16.14443564       53      -0.18091200       0.16025800       0.05784800 
I       1.99455294       0.07574395      34.49966378       53      -0.43806700       0.30312100       0.07902200 
I       1.05080387      10.61845720      16.08915137       53       0.11755200      -0.02446200       0.49427700 
I       1.01639283      10.83269017      34.94089963       53       0.24087500       0.24023500       0.00244400 
I       6.42080253      -0.04369384      16.57424391       53      -0.08866500      -0.12878100      -0.25781000 
I       6.62510620      -0.31594213      35.26504083       53      -0.10250900       0.23331900      -0.06892400 
I       6.10473702      10.71796830      16.40125010       53      -0.06609100      -0.12909100      -0.18421000 
I       5.39924567      11.44257700      35.31557266       53       0.15418800      -0.40678900      -0.46720000 
I      11.18059063       0.28591144      16.99377151       53       0.10604800      -0.53005200      -0.12969300 
I      10.99018106       0.25510989      34.97648816       53       0.05231700      -0.41879700       0.37191100 
I      11.08913845      11.29455842      16.44088832       53       0.13551000      -0.85409700       0.17698400 
I      11.09752801      10.80997913      34.25227525       53      -0.34922700       0.24474700       0.09757800 
I      15.98039102       0.24279302      16.24283537       53      -0.19865400      -0.03118600       0.45202800 
I      16.31763180       0.47349224      34.87996177       53       0.05028600      -0.21471900      -0.71032800 
I      15.91638654      11.08570563      16.26813534       53       0.00635700       0.37123600      -0.01292700 
I      16.34779968      11.40160434      34.60466363       53       0.10850100      -1.00267500      -0.14311600 
I       3.95032438      10.68708088       2.19200875       53      -0.23087500       0.27000300      -0.07183900 
I       3.27395469       9.80031275      20.04502470       53       0.38894100      -0.10741200      -0.01476600 
I       4.23619831      21.05518064       1.74384313       53      -1.09841200      -1.05862700       0.50351100 
I       3.23337485      21.12001322      19.82670059       53       0.50264100       0.36546000       0.44652400 
I       8.57501777      10.49682332       1.95190138       53       0.05901100      -0.04108600      -0.43002000 
I       8.79012622      10.78035607      20.67326790       53      -0.35819800      -0.32322500      -0.30953000 
I       9.00595617      20.05266414       2.22977463       53      -0.31073200       0.15893800       0.56164200 
I       8.32097681      20.43719738      20.44850257       53      -0.00907800       0.43121800      -0.36676200 
I      13.66126950      10.23633818       2.02587958       53      -0.24789100      -0.10393300      -0.36876100 
I      13.42457718      10.49541486      20.33169219       53       0.07849100      -0.05526500       0.14099300 
I      13.47033090      20.45042033       1.75504369       53       0.37349200       0.08325000      -0.15270000 
I      13.03776592      20.83767771      20.56175972       53       0.20391000       0.01680400      -0.03607600 
I      18.86767264       9.91666516       2.12497416       53       0.01383200      -0.00385400      -0.12562000 
I      18.15626122      10.07958064      20.66080495       53      -0.01553700      -0.05300600      -0.36922200 
I      18.61550205      20.61818300       1.64849622       53       0.06773400       0.41775000       0.12909400 
I      18.68428958      21.43820080      20.29204804       53      -0.02156000      -0.12733000      -0.22157400 
I       1.09251185       5.21797777      11.22644996       53      -0.08611700       0.10343900      -0.09905700 
I       0.79041842       5.67189370      29.87273284       53       0.33825300       0.27125100      -0.50566900 
I       1.47663351      16.22723473      10.93770877       53      -0.24009700      -0.09731300       0.06228000 
I       1.23337561      16.11168870      29.47922276       53      -0.13725200      -0.28285400      -0.02693600 
I       6.50851790       5.85735935      11.17686270       53      -0.12984100      -0.41208200      -0.25291600 
I       6.32892100       5.68148248      29.62504031       53       0.13499900       0.13392300      -0.13737000 
I       5.82081835      16.20927218      11.15153904       53      -0.05541000      -0.22540900       0.04981500 
I       6.25022984      16.26452289      29.71076192       53      -0.21713700      -0.07002500       0.54447800 
I      11.31615711       6.06513630      11.12958701       53      -0.26407800      -0.35426900      -0.06111000 
I      11.58484033       5.25559559      29.44844984       53       0.01280200       0.46414300       0.12857000 
I      11.00455387      16.50872042      10.92256117       53       0.16181200      -0.10168800      -0.03375900 
I      11.51699639      16.26775929      29.59322214       53      -0.01933800       0.08257900      -0.05435600 
I      16.00332217       5.26461388      11.56903044       53      -0.93496400       0.91040400       0.33689300 
I      16.32563149       5.62833508      30.07465387       53      -0.00606300      -0.60733300      -0.45739900 
I      15.31933871      16.56068638      10.65163645       53       0.41617800      -0.22661500      -0.03121000 
I      16.44207569      15.85450610      29.47027948       53      -0.32938800       0.15744700      -0.35942000 
I       3.72003773       5.00920098       7.33198825       53      -0.01233900      -0.14810000      -0.00943000 
I       3.89326744       4.68146312      26.15453588       53      -0.04115200       0.66991600      -0.90884600 
I       3.78615934      15.03057482       7.40832638       53       0.12761700       0.13278000      -0.17596100 
I       3.60989063      15.83511041      25.56511367       53       0.04947700      -0.49816200       0.17819700 
I       8.62943447       4.31276049       7.10570687       53      -0.18346600       1.23560700       0.22960400 
I       8.48117013       5.04266350      25.31660192       53       0.04383100      -0.07618900       0.46811800 
I       8.51127978      15.17667366       7.23483314       53       0.39008500       0.20965800       0.00020600 
I       8.52108274      15.49732086      25.44777327       53       0.05739400       0.09444200       0.62064300 
I      13.43341879       5.09124895       7.25197055       53       0.10746100       0.43945700       0.21256600 
I      13.55242822       4.80541746      25.39082687       53       0.33052700       0.26256100       0.15520800 
I      13.39936604      15.94376712       6.94250022       53       0.00901000      -0.98812500      -0.07399200 
I      13.48525248      15.34462288      25.65943113       53       0.05110200       0.23532200      -0.35945500 
I      17.98552469       5.08677781       7.61498505       53       0.11097900      -0.02560700      -0.04429700 
I      18.55549199       5.20682755      25.55714654       53       0.24403000      -0.48067500      -0.05700000 
I      18.08943192      15.57403702       6.76159949       53      -0.16106400       0.08721400       0.23361500 
I      18.71216465      15.30270763      25.65883794       53      -0.05574900       0.41008000      -0.42525800 
I       0.93412081       2.81239438       3.76703410       53       0.77785500       0.02772700      -0.16864000 
I       1.39486190       3.31490070      21.90821087       53       0.45824300      -0.43931000       0.18751900 