320
Lattice="19.488376197 -0.0352305728353 0.0982236484405 -0.0332212131202 22.1793597313 -0.0237006036957 0.129821106109 -0.0056183746156 36.9015808763" Properties=species:S:1:pos:R:3:Z:I:1:forces:R:3 energy=-101595.160637 stress="2013.315478 210.87219 1131.373488 210.87219 -11.320571 -225.209486 1131.373488 -225.209486 1053.181599" pbc="T T T"
Cs       3.80958334       1.18262116       5.80399386       55      -0.12287700      -0.15911400       0.21923300 
Cs       3.80275996       1.79079540      24.35391472       55       0.16025500      -0.26546900       0.11060700 
Cs       2.77257398      11.70903814       6.35969379       55       0.66555500       0.52412900      -0.18580800 
Cs       3.74156034      11.27018233      24.79826339       55       0.07543200       0.28403800      -0.26532100 
Cs       8.38489642       0.96436413       6.26000806       55       0.10790900      -0.06109200      -0.08188600 
Cs       8.34205217       0.97985658      25.70323843       55      -0.22640300      -0.27578600      -0.56344700 
Cs       8.07910320      12.32635240       6.74667478       55      -0.03478000      -0.32494700      -0.07609200 
Cs       8.48906380      11.92069069      24.52986173       55      -0.13303900       0.37503900      -0.00738700 
Cs      13.54817466       0.63884283       6.03178255       55      -0.40384000      -0.66295300       0.55407500 
Cs      13.00811179       1.31287306      24.03723722       55       0.17887100      -0.02833100       0.20307400 
Cs      13.84689244      11.22647448       6.33219438       55      -0.45652900       0.39983100      -0.40994700 
Cs      13.46418322      11.84465636      24.39040253       55      -0.08501600      -0.08455200       0.20738400 
Cs      18.75474702       0.50708065       6.84193209       55      -0.20814900       0.24151500      -0.57318100 
Cs      18.77673048       1.18970162      25.13922693       55      -0.36388400      -0.19855700      -0.21990000 
Cs      18.16379543      11.72327135       5.99117561       55       0.12879300       0.27951800      -0.21926000 
Cs      19.03748030      12.34062980      24.76044505       55      -0.56293900      -0.19239400      -0.20656300 
Cs       0.33334786      10.51679394      12.11951187       55       0.60109800       0.20257100       0.58241500 
Cs       1.35361557      10.34804789      30.64908005       55      -0.23603400       0.10728400       0.41179800 
Cs       0.88226557      21.34612515      11.95303526       55       0.37413300      -0.04099200       0.25546200 
Cs       2.57814609      21.20353392      31.08352652       55      -0.37085100       0.30684500      -0.25268500 
Cs       6.25193045      10.95093513      13.00819513       55       0.15368800      -0.41325800       0.14520900 
Cs       6.20429427      10.44310135      30.68094864       55      -0.06106500      -0.12441500       0.03919800 
Cs       6.03737482      21.54595954      12.45341202       55       0.01252900      -0.48941100      -0.04836000 
Cs       6.71911311      21.64555289      31.37101056       55      -0.26383300       0.21558700      -0.26252500 
Cs      11.06968116       9.99181984      12.52726026       55      -0.26348300       0.24123800       0.05380700 
Cs      11.06376254      10.16947696      30.83298215       55       0.19004300       0.18204200       0.01243800 
Cs      10.39995283      20.87641698      12.78423336       55       0.75519900       0.41547100      -0.69046200 
Cs      10.86567442      21.11607907      31.51978452       55       0.23789100      -0.10932000      -0.20260800 
Cs      15.48158439      10.36459071      11.69986698       55      -0.10019600       0.36606100       0.41430200 
Cs      15.63517740      10.28007811      30.44916633       55      -0.09756200       0.11100100       0.40895700 
Cs      15.57835801      20.76315477      12.03776376       55      -0.23816200      -0.05620200       0.22288700 
Cs      16.99823725      20.65791091      31.45235599       55      -0.37164700       0.44289600      -0.62486700 
Cs       3.73258500       6.42575563       2.46176891       55       0.04927900       0.09306100       0.32397800 
Cs       3.83150354       6.15026047      21.39691546       55      -0.14039400       0.10484400       0.25933300 
Cs       3.45939543      17.00416291       3.60293260       55       0.31309000      -0.13236000      -0.22562800 
Cs       3.66040269      17.47638052      21.81748620       55      -0.39027400       0.43016300      -0.23308500 
Cs       8.62952216       6.72630604       3.20630045       55      -0.23523400      -0.45405400      -0.18523900 
Cs       8.31303846       6.36474380      21.18482408       55       0.22692100       0.21573700       0.09322500 
Cs       9.59546887      16.86318940       3.22822366       55      -0.42193700       0.05400200       0.07083500 
Cs       8.07070225      17.93182936      21.92466008       55       0.02703500      -0.13460600      -0.17363400 
Cs      13.77520921       6.74466040       3.01392610       55      -0.27744900      -0.46486000      -0.00501200 
Cs      13.31983969       6.61735175      21.41716571       55      -0.10073700       0.02791300       0.02359300 
Cs      14.26290622      17.08388759       2.42840611       55      -0.15789100       0.12502900       0.73016400 
Cs      13.41824008      17.30563214      21.90241554       55       0.10322000      -0.01928100      -0.12250700 
Cs      18.25782362       5.24032980       3.24528263       55       0.15369700       0.20256800       0.08694400 
Cs      17.72190700       6.65798379      21.32314053       55       0.40938400      -0.20230100       0.15795900 
Cs      18.49335452      17.42825128       3.04659903       55      -0.19586700       0.06207400       0.12808000 
Cs      18.49981339      17.30664435      22.04220210       55      -0.09862000       0.10149300      -0.01328700 
Cs       1.10759502       4.97388730      15.32020901       55       0.20237400      -0.30862200      -0.46883500 
Cs       1.10792942       4.53175486      33.68779428       55       0.25835600       0.30497200       0.18288600 
Cs       0.47582060      15.95634056      15.24081168       55       0.45690100      -0.01677000       0.16315700 
Cs       1.31943135      15.52338028      33.92412350       55      -0.15320100       0.04549700       0.08524900 
Cs       6.52020357       4.69614579      14.94163901       55      -0.24854700      -0.05242700       0.21467000 
Cs       6.46734466       5.20242109      33.83210366       55       0.15379100      -0.39340200      -0.08269300 
Cs       6.12482966      15.91959569      15.40237686       55      -0.01231800       0.01677700      -0.09958000 
Cs       5.78626008      15.67421481      33.80002219       55       0.49948400       0.17458700      -0.13076500 
Cs      10.93243617       4.42306466      14.79228162       55      -0.32695100       0.49581500       0.46236600 
Cs      11.30267149       4.36599322      34.08689268       55       0.12437500       0.20880000       0.01313100 
Cs      11.32829309      15.70363922      15.02306979       55       0.27136400       0.35186700       0.36775500 
Cs      10.56273005      16.14239060      33.46182516       55       0.44352700      -0.37945700       0.08612300 
Cs      15.58525369       4.98851315      15.21914153       55       0.00891300      -0.16337300      -0.12623900 
Cs      16.05639985       4.35586408      34.00741502       55       0.09385400      -0.01201500      -0.26304100 
Cs      15.90362625      15.88946031      15.58831945       55      -0.13129100       0.13978100      -0.09526900 
Cs      16.13120004      16.17432345      33.68429171       55      -0.17221200      -0.36587800      -0.50264900 
Pb       1.12561198       1.23014588       0.90753771       82      -0.10105100       0.73869100      -0.27198700 
Pb       1.46626824       2.10147194      19.30526639       82       0.41969200       0.31758900       0.01992700 
Pb       1.36092799      12.49660873       0.92042633       82      -0.01226300      -0.11102700       0.26221200 
Pb       1.02386066      12.38028177      19.31667586       82       0.23189400       1.05532900       0.03741800 
Pb       5.80427503       1.61718713       1.07988273       82      -0.17819400       0.70775000       0.01925000 
Pb       6.21560332       1.96438761      19.48438559       82       0.26818400      -0.75088300      -0.30640800 
Pb       6.31053527      12.86233028       0.96873933       82      -0.56083000       0.28497600       0.34111200 
Pb       5.66647071      12.96373817      19.85554878       82       0.45084800       0.58035700      -0.18211400 
Pb      11.15779174       1.60543825       1.40687916       82       0.16327800       0.05453600      -0.06269600 
Pb      11.08107758       2.06706379      19.38664696       82      -0.08775100       0.32699800       0.00680000 
Pb      11.06220707      12.35434587       1.23854382       82      -0.38119800       0.46457800       0.18955400 
Pb      10.47248761      12.89838227      19.96996278       82       0.33431000       0.04693300       0.06818200 
Pb      15.76182430       1.26380191       1.72856952       82      -0.00124000       0.04974000      -0.69586800 
Pb      15.95723829       1.36300764      19.44091574       82      -0.38391600       0.74278100       0.04177200 
Pb      15.89831515      12.67454201       0.98325472       82       0.99790400      -0.77848400       0.26713700 
Pb      15.69124466      13.18308976      19.52242385       82      -0.23990400       0.07458000      -0.08848700 
Pb       3.49275220       9.25037515      17.10189250       82      -0.30903800       0.22316300      -0.52879000 
Pb       4.18040008       9.36330899      35.79264527       82      -0.11844300       0.21191200      -0.43367600 
Pb       3.39331249      20.63736544      16.94564144       82       0.81693900      -1.27358200       0.43977900 
Pb       4.37612236      19.92844204      36.46585609       82      -0.68078600       0.34598900      -0.66545800 
Pb       8.32138318       9.27668059      17.64881390       82       0.59190800      -0.20042800      -0.43204600 
Pb       8.86280269       9.37808346      35.65393017       82      -0.08454700       0.39101300      -0.47933300 
Pb       8.53202453      20.30405072      17.63310656       82      -0.51433600       0.06873900       1.06545900 
Pb       8.93107373      20.08941877      36.42696830       82       0.27005000       0.54400700      -0.82103000 
Pb      13.21920200       9.72819707      17.47888594       82       0.28765800      -0.47634400       0.16828200 
Pb      13.63578816       8.97006294      35.74130267       82       0.02280800       0.02767600      -0.86700600 
Pb      13.32471096      20.21859318      17.82504911       82       0.00624400      -0.14517900      -0.65017600 
Pb      13.84709127      20.17560935      35.76135510       82       0.27846400       0.23123400      -0.41543200 
Pb      18.27580443       9.14254654      16.98133594       82      -0.32190400       0.44473900       0.40715900 
Pb      18.26840766       8.69685830      35.89711692       82       0.13477400       0.53104300      -0.02894800 
Pb      18.21152902      21.16916493      17.25707612       82       0.12591900      -1.12150200      -0.64973700 
Pb      18.73350665      20.49013892      35.41495092       82       0.69681100       0.15377300       1.16687300 
Pb       1.08407919       7.63061833       8.34838351       82      -0.26270900      -0.81358100       0.40708500 
Pb       1.17817265       7.68174002      26.93032961       82      -0.03672600      -0.41877700      -0.16997500 
Pb       1.01684648      18.41349427       7.63681411       82       0.05650000      -0.21513200       0.00714400 
Pb       1.70790454      18.80091208      26.72413777       82       0.12500300      -0.82212800       1.29204900 
Pb       5.55010659       7.19834591       8.26076498       82       0.35398100       0.25495200      -0.10032000 
Pb       6.32253921       7.15678902      26.57588699       82       0.13156100       0.47552500       0.31775100 
Pb       5.58540244      18.41489610       7.43013123       82       1.16994700       0.74210400       0.58298900 
Pb       6.55535783      18.47163416      26.75848366       82      -0.33583200      -0.24299800      -0.51985700 
Pb      10.63652406       7.46918772       8.07773953       82      -0.29146700       0.13090300      -0.20596200 
Pb      10.92913946       7.05989088      26.59428051       82       0.07802600       0.47729300      -0.18683600 
Pb      10.92578349      18.24196765       7.45503182       82      -0.01785700      -0.02355300       1.43545000 
Pb      11.13454000      18.83846130      26.58831268       82      -0.07768100      -0.76108500       0.32709300 
Pb      15.75422368       7.54485452       7.78099495       82      -0.13052100      -0.66791000       0.52306300 
Pb      16.08813387       6.92099703      26.60286623       82      -0.12502200      -0.21424100       0.24085000 
Pb      15.78484909      18.48453182       8.03872320       82      -0.62623700      -0.63820100       0.46828000 
Pb      15.82724045      18.55540568      26.57844764       82       0.12671500      -0.10600500       0.50489600 
Pb       3.87351733       3.80616010      10.61623967       82      -0.05033300      -0.42164200      -0.17201300 
Pb       3.62250402       4.27241791      29.13321647       82       0.51391100      -0.51412700      -0.09121400 
Pb       3.19105101      14.93866865      10.96664248       82       0.36409500       0.06723600      -0.59711600 
Pb       3.65099556      14.98448024      29.02018923       82      -0.08203000       0.23740300      -0.09299600 
Pb       8.79106725       3.60957824       9.95188269       82      -0.91858800      -0.38660200      -0.40332200 
Pb       8.92911156       4.11828566      29.26145901       82      -0.92209100      -0.19919900      -0.10771900 
Pb       7.92990347      15.56878819      10.16361458       82       0.54727600      -0.01108300       0.50950300 
Pb       8.34612913      14.51738696      28.99431559       82       0.40309100       0.25776300      -0.01969600 
Pb      13.62362857       3.36668672      10.47966346       82      -0.01395400       0.03889900       0.55476900 
Pb      13.49729397       3.06016146      29.33885400       82       0.91543600       0.84746400      -0.63511700 
Pb      13.01748478      14.90123893       9.72847121       82       0.11117200       0.29080900       1.22050200 
Pb      13.43474876      15.02176336      28.88059748       82       0.04765400      -0.19422600       0.01274200 
Pb      18.29544815       3.68475702      11.01694777       82      -0.24243100      -0.49439200      -0.63880600 
Pb      18.69906737       3.21353756      29.27326312       82      -0.15211600       0.32038400       0.27780100 
Pb      18.16476446      15.32515157      10.02136978       82       0.16118800       0.68208800       0.09327800 
Pb      18.34184518      14.67048992      28.55586145       82      -0.22453200       0.76811900       0.20001000 
I       4.19413724       3.87451850      18.23426561       53      -0.62262400       0.29754200      -0.25762300 
I       3.56002408       3.68874862      36.69795070       53       0.57507100      -0.34966700      -0.14483300 
I       3.62456459      14.83628168      18.51865076       53      -0.27257300      -0.18470000      -0.13744600 
I       4.02626683      14.69715486      36.80793628       53      -0.54522800      -0.00953400       0.30233000 
I       8.79416614       3.95966273      18.03976541       53      -0.27150100      -0.13516400       0.08271700 
I       8.98438050       3.34948014      37.09253532       53      -0.38460900       0.36194800      -0.04629100 
I       8.48900656      14.65665336      18.57095838       53      -0.32661200       0.04325100      -0.09875500 
I       8.72163639      14.94278678      37.19466522       53       0.38639500      -0.44664700      -0.27743300 
I      13.81458001       3.69162258      18.24101871       53      -0.02735900      -0.32679400       0.23807000 
I      13.62680479       3.21289288      36.88790096       53       0.13716200       0.13885600       0.22801700 
I      13.29265761      15.16719340      18.44906225       53       0.03971400      -0.28321700       0.27266500 
I      14.00878598      14.49456501      36.89131316       53      -0.91327100       0.39503600      -0.57557900 
I      18.10591864       3.46428878      18.02814909       53       0.05429300      -0.35563700       0.23450100 
I      18.29298390       3.08767292      37.01424661       53      -0.21051700       0.03909300       0.05309300 
I      17.97083263      15.30444743      18.84066547       53       0.11954600      -0.49647900      -0.08629500 
I      18.80182990      14.77504692      37.40972395       53      -0.43646400      -0.35876500      -0.48496200 
I       0.84289778       6.90346208       0.03084432       53       0.21875300       0.02901500      -0.07343200 
I       0.69547846       6.91611070      18.20955079       53       0.47179400       0.54530600       0.23883800 
I       1.16666277      18.52174564       0.11514204       53       0.54496700      -0.07522700      -0.02705500 
I       0.76300941      18.71133741      18.21210441       53       0.22246200       0.24112700      -0.15113100 
I       6.41768506       7.46506557      -0.09915151       53      -0.12019600      -0.15027100       0.13294200 
I       5.57529238       7.47480408      18.31350628       53       0.42900600      -0.23145200      -0.06440600 
I       6.56181871      18.03327240      -0.10970943       53      -0.06782700      -0.31439800       0.48812200 
I       6.13468768      17.99595314      18.56590737       53       0.03896900       0.53344200      -0.06372800 
I      10.43468835       7.09291728      -0.17901477       53       0.75132200      -0.02373400       0.08406600 
I      10.93585740       7.35766172      18.38936488       53      -0.00504000       0.24675100       0.22261400 
I      11.52560097      18.32335124       0.16947508       53      -0.43839100      -0.47622700      -0.11983300 
I      10.72906406      18.69103294      19.42439200       53       0.27666700      -0.08477500      -0.42352700 
I      16.05308606       6.65765944       0.08520047       53      -0.29937400       0.28256500      -0.07636900 
I      15.94568423       7.36368177      18.20978476       53      -0.26059900       0.21294900      -0.06789100 
I      16.23359705      18.19509264      -0.33351053       53       0.31200000       0.31716000       0.14083700 
I      16.18213696      18.97175385      18.80349282       53      -0.16463600       0.28127900      -0.01638000 
I       3.48042893       9.41899467       9.21344651       53       0.11244300       0.28990700       0.47020400 
I       3.65941960       9.45067146      27.97425574       53       0.08297200      -0.27843700      -0.15784400 
I       3.35761699      20.41703277       8.48387320       53      -0.05565800       0.12223300       0.08280600 
I       4.39865411      20.41860431      27.87127731       53      -0.27496600       0.17339800       0.06795400 
I       8.26943204       9.19698703       9.59478502       53       0.10770300      -0.03019400      -0.08649100 
I       8.49821587       9.62159255      27.50818069       53       0.12915200      -0.62315000       0.11292200 
I       8.12154678      19.33876877       9.63328018       53       0.38378600       0.34877100      -0.32945300 
I       8.87236749      20.49746038      28.26755599       53      -0.01006600      -0.05312300      -0.14907800 
I      12.96067945       9.41846747       9.20456857       53       0.31433300      -0.22196800       0.15084000 
I      13.48665973       8.63013470      27.60823094       53       0.11594700       0.41674300       0.12098900 
I      13.03459396      20.28679292       9.08096734       53       0.35088100      -0.04290600      -0.34955900 
I      13.38175830      20.38484285      27.97321140       53       0.25168400       0.36293600       0.03744500 
I      18.15297441       9.76382831       9.24375259       53      -0.28110100      -0.52645400      -0.68345800 
I      18.09820756       9.41442867      27.97855563       53       0.43013300      -0.24589500      -0.36651900 
I      18.11895688      20.09042596       9.27003092       53       0.54481500      -0.00363500       0.11595000 
I      18.90742019      20.53478165      28.22125335       53       0.04690100      -0.13157700      -0.14794000 
I       1.35617521       1.72713354       9.38017014       53      -0.05300300       0.47752800       0.35363800 
I       1.62411997       1.72213977      27.90350037       53       0.63818500       0.07780900       0.10814500 
I       1.00002248      13.16624368       9.33337948       53      -0.01024600      -0.12448300      -0.13867500 
I       1.50208927      13.28123609      27.58359344       53       0.15122200      -0.73186400      -0.22025800 
I       6.00235814       1.42177614       9.35988676       53      -0.24566600       0.45951600      -0.28685800 
I       5.96965006       2.18059713      28.16285238       53       0.09104500       0.01962000       0.05566900 
I       5.99028892      13.13961188      10.25901247       53       0.08844000       0.13814200      -0.75625500 
I       6.07776486      12.93600278      27.46166818       53      -0.03384400       0.13637400       0.38366100 
I      11.30345676       1.79219422       9.30402133       53      -0.57564300      -0.51672800      -0.50294300 
I      10.94681098       2.49364754      27.61589081       53       0.33302600      -0.71596100      -0.19202500 
I      10.51528566      13.08837170       9.35399926       53       0.12026700       0.04331300       0.01355900 
I      11.16236376      12.63606392      28.11025154       53      -0.15787400       0.50172800      -0.27932100 
I      15.99429848       1.75443513       9.19152430       53      -0.14664800       0.02832200       0.09148900 
I      16.20243842       1.60561598      28.28208242       53      -0.27888600      -0.51701400      -0.19039000 
I      16.13927263      13.42946377       8.82444210       53      -0.52421600      -0.47223800      -0.16266200 
I      16.06329152      12.91427539      27.55276317       53      -0.59158300      -0.26994100      -0.26141600 
I       1.61291134       0.61761753      16.31631218       53      -0.67720100       0.77330500      -0.43658300 
I       1.75704499       0.52591501      34.65702666       53      -0.05762600      -0.47840200       0.47483200 
I       0.75789614      11.86997570      16.09919790       53       0.14147400      -0.31303700       0.31060800 
I       1.58062200      11.18123929      34.72841868       53      -0.10915100      -0.07733400       0.25288500 
I       6.11939003       0.13607814      16.45050447       53       0.09174000       0.20330500       0.05414900 
I       7.09698822       0.24391779      35.06421372       53      -0.38072400      -0.27505000       0.24419000 
I       5.95216933      11.36506005      16.84182050       53      -0.18022100       0.05172200      -0.31573400 
I       6.34600082      11.41894022      34.50964148       53      -0.46215300      -0.28414300       0.82747100 
I      10.88858072       0.06362872      16.64060637       53       0.34274800       0.24900200       0.01493500 
I      11.57623261       0.01571940      35.15661213       53      -0.43435200       0.04304100       0.10188500 
I      10.78432598      11.29919403      16.54941699       53      -0.41247200       0.33039100       0.06325300 
I      11.42403642      11.39323025      34.75916058       53       0.05475500      -0.24347300       0.46281500 
I      15.38791971       0.05131850      16.13584838       53      -0.16312800       0.08866200       0.62443800 
I      16.33004833       0.01397715      35.01708665       53      -0.71248900       0.50699200      -0.09518500 
I      15.78730430      11.70729890      16.53761388       53      -0.10517100      -0.20621400      -0.14432800 
I      15.92084187      11.02069536      34.62467406       53      -0.17904400      -0.11392000       0.46400900 
I       3.99043275      10.68305766       2.08177700       53      -0.17630800      -0.02822700      -0.23046500 
I       3.53326676      10.62156382      20.29403405       53      -0.37981000      -0.35848600       0.11940400 
I       3.05419564      21.42797066       2.15746489       53       0.94217300       0.16806000       0.35979600 
I       3.98355915      21.78647317      20.41693637       53      -0.20547300       0.57613600      -0.30755600 
I       8.29423624      10.65797430       1.70186341       53       0.75915500      -0.20101700       0.58696700 
I       8.09722861      10.61400738      20.61570532       53       0.16102600       0.15238900       0.08023500 
I       8.37394887      22.13015904       1.84493364       53       0.04091700      -0.73498100       0.72489400 
I       8.71671190      22.36296359      20.20059832       53       0.00342900      -0.21748000       0.54733300 
I      13.47343772      10.37620303       1.61757976       53       0.13945300       0.28149600       0.74269200 
I      13.23170000      10.91480683      20.69345479       53       0.11275200      -0.01506700      -0.29894000 
I      13.27342258      21.25976988       2.09272354       53       0.36320800       0.19573900       0.04091800 
I      12.93928745      21.98249269      20.60361301       53       0.51985400      -0.03330000      -0.14712800 
I      18.24413166      10.28948424       2.22698613       53       0.27656600       0.35182500      -0.41871000 
I      18.00488831      10.72181792      19.90579382       53      -0.10791000      -0.25715200       0.50542800 
I      18.21081003      21.64446235       2.25498561       53       0.01971100      -0.25094800       0.08239900 
I      19.06404682      22.06904779      20.16620925       53      -0.60292100      -0.32257700       0.68329900 
I       0.83447875       5.93228561      11.46295734       53       0.24691000      -0.06588800       0.14942600 
I       1.25996394       6.16721902      29.95211239       53      -0.21577400       0.00844800       0.07052900 
I       1.37690144      17.22508101      11.67591031       53      -0.49570900       0.12583500      -0.42095600 
I       0.91960391      16.92643252      29.47637916       53       0.75523400       0.01094600       0.45884100 
I       6.09966397       5.84039932      11.44407880       53       0.11557400      -0.02936300      -0.44251300 
I       6.46180562       6.06447959      29.82386785       53      -0.46748500       0.22581200       0.06745300 
I       5.44062210      17.26495089      11.02134507       53      -0.04547300      -0.21054000       0.21304100 
I       6.01424860      16.91458121      29.68160096       53       0.45654500       0.07761100       0.16020900 
I      10.69832618       5.48244710      11.04818975       53       0.80885600       0.96525100       0.22728000 
I      10.72547011       6.42882741      29.92697381       53       0.44839200      -0.04072400      -0.19282900 
I      11.51582329      17.28722757      11.30148456       53      -0.27709400      -0.46184800      -0.50822100 
I      11.19372423      17.01790408      29.72499148       53      -0.14099000      -0.10580500      -0.03643700 
I      15.42999074       5.87951908      11.16962497       53       0.41965500       0.12470300       0.00906600 
I      16.27669335       5.27214215      29.53077647       53      -0.51424100       0.44452700       0.51489200 
I      15.61212951      17.08778782      11.09962374       53       0.19431900       0.04987100      -0.46029300 
I      16.17805498      16.97556493      29.57928328       53      -0.25515600      -0.09485700       0.10270900 
I       3.33647704       5.03856036       7.46653167       53       0.15072600       0.25764200       0.10087700 
I       3.72717951       5.63612446      25.79725257       53      -0.33704100      -0.36520000       0.15209000 
I       3.77144266      16.11419931       7.35646675       53      -0.94495700      -0.68869000      -0.23533700 
I       4.41744428      16.34828018      25.58457475       53      -0.26101700       0.21224300       0.54837900 
I       8.13106639       5.85414351       7.07734851       53       0.63217500      -1.13631200       0.20139600 
I       8.47714420       4.96179399      25.99816042       53      -0.10049400       0.14394600      -0.27950400 
I       8.36170895      16.39785041       6.88095645       53      -0.26960700      -0.43831500       0.06033500 
I       8.96549995      16.21208656      26.16685526       53      -0.10135600      -0.03833600       0.04266100 
I      13.16272002       5.73063064       6.99520175       53       0.51136700      -0.22056900       0.16441300 
I      13.57594821       4.91951208      26.14084002       53      -0.01230000       0.07715700      -0.20654000 
I      13.45917036      16.35495897       6.94112778       53       0.00056200       0.09022300      -0.62330000 
I      13.67299697      16.41999454      25.62156966       53      -0.11044500       0.17339500       0.19151000 
I      18.80076848       4.91311446       7.51670239       53      -0.60914800       0.35008600       0.12053700 
I      18.74794773       4.73032298      26.36077102       53       0.04899900       0.55479300      -0.34035300 
I      18.28317710      16.22761718       6.63550025       53      -0.06824200       0.23244700       0.14188700 
I      18.45084567      16.80843360      25.90203048       53       0.08459100      -0.18044300      -0.20023100 
I       1.89048214       3.20369863       3.30301382       53      -0.42560000      -0.15876000       0.38303000 
I       1.29249629       3.50008170      22.14826135       53      -0.16462700      -0.01035700      -0.08394100 