320
Lattice="20.4999228601 -0.0506625338537 -0.154008027073 -0.0209876641907 22.4565811631 0.220514567171 -0.442217252743 0.338893607585 38.5636599176" Properties=species:S:1:pos:R:3:Z:I:1:forces:R:3 energy=-101594.132981 stress="812.354544 693.916447 737.063491 693.916447 1134.475261 -49.805241 737.063491 -49.805241 -1194.202404" pbc="T T T"
Cs       3.62359362      -0.10994465       5.94827524       55       0.35003000       0.40693800       0.09558500 
Cs       3.42015071       1.22654082      25.63803764       55       0.06543600      -0.12865300      -0.14081900 
Cs       4.13685973      12.26546020       7.12775325       55      -0.26651600       0.32300600      -0.30655700 
Cs       4.15747598      11.92746445      25.07684625       55      -0.09238700       0.13103900       0.10436400 
Cs       9.07224635       0.26013551       7.37304872       55      -0.07558300       0.41724300      -0.35116600 
Cs       8.70233057       1.09347468      25.75039182       55      -0.07108300       0.06956600      -0.35679700 
Cs       8.43432664      11.87072607       6.22620131       55       0.29974800       0.21387700       0.09443300 
Cs       8.82732229      13.08607860      25.87992898       55      -0.23443700      -0.75487600      -0.04688300 
Cs      13.71840416       0.43616846       6.79909390       55       0.29449500       0.13794000      -0.31976900 
Cs      13.34541197       1.23224524      25.47101337       55       0.14890300      -0.21266200      -0.10547900 
Cs      14.14357993      11.61277225       5.96419936       55      -0.01374500       0.22318200       0.18135900 
Cs      13.58624212      12.73670001      26.01687783       55       0.23223300      -0.16198100      -0.40347300 
Cs      19.14004540       1.25244326       6.00155642       55      -0.00815800      -0.18513800       0.31700000 
Cs      18.37042350       0.62602396      25.80418071       55      -0.05378500       0.27866300      -0.07970900 
Cs      19.68219361      12.14625822       6.46430357       55      -0.14420000       0.05507200       0.08849700 
Cs      19.06253680      12.02485791      25.82610888       55       0.12797800       0.31544900      -0.21923100 
Cs       0.85705368      10.35478687      13.50209379       55      -0.13123900       0.04516000      -0.01734800 
Cs       1.43218206      10.30058495      32.47844831       55      -0.25685100      -0.12946000       0.10748700 
Cs       1.18526255      21.51989858      13.33193900       55      -0.11321300       0.00377400      -0.07777700 
Cs       0.91950168      21.80802561      31.64210971       55       0.10472300      -0.18367700       0.41517500 
Cs       5.61633868      10.52198488      13.75935575       55       0.56625900      -0.18817300      -0.31799100 
Cs       6.13745657      10.05414298      32.38867670       55      -0.00899900      -0.01222100       0.02474300 
Cs       5.68450879      21.91416558      12.75051318       55       0.57322800      -0.73059600       0.38373200 
Cs       5.97912678      22.48984016      32.65616564       55       0.37493800      -0.74461600      -0.40131500 
Cs      11.32750939       9.52065388      13.39335286       55      -0.08536600       0.30757200      -0.24473000 
Cs      11.33462250      10.36439585      32.47850345       55      -0.51196200       0.19711300      -0.27322200 
Cs      11.06071959      22.66685835      13.55556120       55       0.16066300      -0.26310400      -0.35914800 
Cs      11.66930463      21.60595185      32.19275577       55      -0.07438200      -0.13236000       0.02115400 
Cs      16.45702956      10.77844888      13.54990255       55      -0.39069300       0.42051400      -0.32543100 
Cs      15.82709272      10.95905536      32.01040873       55       0.46938700      -0.32856200       0.28718300 
Cs      16.50931718      21.78303351      12.97667495       55      -0.49383400       0.20336400      -0.14914500 
Cs      16.25937639      21.56194049      32.49679964       55       0.30287800       0.39509000      -0.38361700 
Cs       3.70653303       5.50325311       3.11322602       55       0.24775800       0.33809900       0.07869200 
Cs       3.62637041       6.77075697      22.53647432       55      -0.00178300       0.17884000       0.23267500 
Cs       3.28699510      17.86004966       4.25775858       55       0.01590900      -0.48767600      -0.69294300 
Cs       3.52496107      18.84463568      22.13147160       55      -0.42971100      -0.65857000       0.38691400 
Cs       9.20704785       5.66655177       2.82603845       55      -0.05531400      -0.21772200       0.27699100 
Cs       8.88175206       6.48736576      22.43594827       55      -0.55191600       0.46663300       0.13487400 
Cs       9.97107144      17.32225234       3.54591960       55      -0.38290500      -0.16840000      -0.02259600 
Cs       8.15459238      17.82189046      22.92802072       55       0.42159700       0.85356100      -0.72418200 
Cs      13.98449691       6.47944324       3.20348973       55       0.03600800       0.03338400      -0.85441800 
Cs      13.16069389       6.52781380      22.79548621       55       0.49015200      -0.00850200      -0.04067700 
Cs      14.76435723      17.53066412       3.64903413       55      -0.22540200      -0.07179400      -0.04533100 
Cs      14.22113847      18.42546501      21.80292773       55      -0.41973900      -0.05759700       0.61656300 
Cs      19.23662216       5.99843319       3.18663967       55      -0.11704000       0.46038300      -0.01716400 
Cs      18.24306595       6.41413418      22.90248033       55       0.25114700       0.19812300      -0.18123600 
Cs      18.88019808      18.20084405       3.46330480       55       0.41195500      -0.33992600      -0.29993300 
Cs      19.25183465      17.78515971      22.87078816       55      -0.04525800       0.26074300       0.27001700 
Cs       0.93357496       4.55900694      15.67500420       55       0.22792800       0.34091700       0.13235900 
Cs       1.01036153       5.00948900      34.88139177       55      -0.23345100       0.03155700       0.21416500 
Cs       1.12535516      15.72241658      16.54713825       55      -0.23897500       0.32814300      -0.25095900 
Cs       0.21836409      15.90223965      35.66922247       55       0.46108500       0.18711200       0.17947200 
Cs       5.68972424       4.80364801      15.43976716       55       0.21119200       0.07805500       0.41208000 
Cs       5.91266186       4.41994090      35.09453937       55       0.50156400       0.52488000       0.14503000 
Cs       6.33653402      16.00390076      15.76213011       55      -0.16392100       0.16714300       0.01725900 
Cs       6.01423038      15.65163510      34.85245037       55      -0.06748800       0.39652700       0.29675800 
Cs      11.58273845       4.59143154      16.01859202       55      -0.27153100       0.29059700      -0.30705900 
Cs      10.89030991       5.43568746      34.57284408       55       0.45199800      -0.35660000       0.36101800 
Cs      11.33537678      16.25965209      16.06457283       55      -0.02717000      -0.24870300      -0.02547100 
Cs      11.09452686      16.61665566      35.26896910       55       0.05629400      -0.21270600      -0.37306100 
Cs      16.27295860       4.81211777      16.23280186       55       0.03639000       0.40664400      -0.37500700 
Cs      16.63918934       4.89146577      34.58848417       55      -0.19650300       0.01005900       0.35366400 
Cs      16.71090508      16.37611058      16.43383628       55      -0.11678700       0.02608900      -0.12854900 
Cs      16.63815207      15.90144480      34.57286904       55      -0.12393000      -0.21639900       0.26949900 
Pb       0.83753504       1.81174739       0.70535843       82      -0.16815900      -0.68960400      -0.74936500 
Pb       1.25766182       2.23922657      20.81495422       82      -0.05913800       0.08175500      -0.53813000 
Pb       1.74056953      12.74715170       1.51339963       82      -0.19077300       0.69074700       0.45799700 
Pb       1.02918520      13.41174789      20.65287386       82      -0.61294300      -1.10998100       0.37861400 
Pb       6.23445676       1.71744804       0.91626713       82       0.93597200      -0.79241900       0.10476200 
Pb       6.42654075       2.20698403      20.64887982       82      -0.79016900      -0.10093100       0.06262200 
Pb       6.73275486      13.48108115       0.98061800       82      -0.93887400      -0.22243300      -0.13803800 
Pb       5.80018804      13.72765109      20.63050872       82       0.38309000       0.09977900      -0.21885800 
Pb      11.51192472       1.20092449       0.87116025       82       0.02509900       0.23841100       0.00159900 
Pb      10.77542032       2.38883793      19.95406465       82       0.58969300       0.00756500       0.02548000 
Pb      11.60727590      13.27320205       0.57122798       82       0.66417700      -0.64664900       0.58002600 
Pb      10.75924443      13.93602438      20.21660136       82       0.63452600      -0.44335900       0.68164700 
Pb      16.40550975       1.75845269       0.93499508       82      -0.16945400       0.57220700       0.24140100 
Pb      16.34326046       2.23690339      20.31462113       82       0.08798700       0.10999200      -0.47173500 
Pb      16.50229458      13.12494839       0.68868003       82      -0.08165500      -0.53454000       0.74114000 
Pb      16.45255175      13.76560742      20.57789131       82       0.33303900      -0.62409400       0.38755500 
Pb       3.43546620       9.89678595      17.97070905       82      -0.00990000      -0.37480500       0.33271000 
Pb       3.65765579       9.34566548      37.83730134       82       0.07621700       0.16398000      -0.17939800 
Pb       3.37369445      20.95190412      18.10594439       82       0.54926400      -0.46247100       0.08063600 
Pb       3.50813806      21.36363708      36.91230643       82       0.09014700      -0.68035600      -0.24050700 
Pb       8.85120118       9.72680283      18.36348518       82       0.02470400      -0.13382300       0.54489700 
Pb       8.40550177       9.77052496      37.72492740       82       0.20346100      -0.30620500      -0.53838900 
Pb       8.37588620      21.18681343      18.28307599       82      -0.51880300      -0.73233900      -0.21995800 
Pb       8.98292419      20.60137798      37.66493782       82      -0.71739000      -0.21565500      -0.36713200 
Pb      13.93998200       9.89112939      18.63003153       82       0.30514700      -0.43358100       0.06841200 
Pb      13.70423101       9.40506099      37.35965069       82       0.17158400       0.39022400       0.54578500 
Pb      13.56212602      21.16444310      18.57143191       82       0.39990300      -0.62825600      -0.81957800 
Pb      14.02350090      20.82010100      37.11765740       82      -0.49936500      -0.93578500       0.26809900 
Pb      18.46968965       9.45195109      18.03654454       82       0.63387600       0.62969800      -0.10016300 
Pb      19.03182675      10.30170440      37.42629664       82      -0.35197100      -0.38363900      -0.10888000 
Pb      19.03766434      21.58594527      17.88130678       82      -0.24270700      -0.52488400       0.12361000 
Pb      19.15359848      21.04858595      37.11046939       82       0.14175000      -0.43827300       0.16358800 
Pb       1.22357885       7.69213030       8.59989229       82      -0.08884700       0.14815600      -0.21701100 
Pb       0.85579794       7.85888095      27.98849061       82       0.73589500      -0.16593300      -0.50147900 
Pb       0.82682845      18.52535123       9.43662728       82       1.15079000       0.51933800       0.06222400 
Pb       0.68696132      18.55217545      27.77259847       82      -0.17477800      -0.02825000      -0.02036700 
Pb       5.82651807       7.58011321       8.01146053       82       0.34563800      -0.48966700       0.24282700 
Pb       6.35116910       7.89612669      28.30738388       82      -0.28182800      -0.28731100      -0.75879800 
Pb       6.31795485      18.25101344       8.65212685       82      -0.07390400      -0.37327200       0.23653900 
Pb       5.90776165      18.74089484      27.58469161       82      -0.14554800       0.34753400       0.02058400 
Pb      11.29979981       7.78088233       7.68183258       82       0.25532700      -1.26206600       2.11876600 
Pb      11.48876577       7.75571336      27.53071858       82      -0.19617000       0.06329600       0.23832500 
Pb      11.77174707      18.21410582       8.50566265       82      -0.08758300       0.00206000       0.22255400 
Pb      10.98580363      18.51336496      27.83311760       82      -0.21035000       0.42864800      -0.22133600 
Pb      16.74660793       7.66930844       8.39488153       82      -0.43037800       0.74815500       0.32466000 
Pb      16.71084162       8.12149049      27.48669473       82      -0.32882200       0.30978800       0.11097000 
Pb      16.48670339      18.98402319       8.69436435       82      -0.10920200      -0.13309000       0.17157900 
Pb      15.95005778      18.58530231      27.89824251       82       0.37086500      -0.02741400      -0.33762200 
Pb       3.59203566       4.06158796      10.82983135       82       0.12864600      -0.30981800      -0.56305200 
Pb       3.80089897       4.05758664      29.79751740       82       0.05358500      -0.32900300       0.96045800 
Pb       3.48635658      15.11149067      11.77834518       82      -0.18134900       0.06231500      -0.30392400 
Pb       4.04764473      15.04386468      30.17423936       82      -0.80883700       0.71777100      -0.34981300 
Pb       8.79214900       3.92681455      10.58741463       82       0.19026400       0.14393200       0.25542000 
Pb       8.98967420       3.37403258      29.90396220       82      -0.52251700       1.01564000      -0.73312500 
Pb       8.68074365      15.19330022      11.20952986       82       0.43949500      -0.61286700      -0.02608600 
Pb       8.43343503      14.84541874      30.28540958       82       0.74499300       0.36233300       0.07330600 
Pb      14.27023522       4.40535576      10.83366413       82      -0.15336800       0.17858400       0.49233600 
Pb      13.94896156       4.65701734      30.06052228       82       0.39811800      -0.26661700       0.44177900 
Pb      13.92583382      14.52310469      10.86888424       82      -0.35129400      -0.38171800       0.34777900 
Pb      13.44172967      14.91796263      30.16119919       82       0.25666600      -0.33802300       0.57420300 
Pb      19.12201763       3.90596213      10.96741276       82      -0.08723000      -0.25713600       0.14251100 
Pb      19.13569556       3.83386457      29.99895237       82      -0.28793800       0.26898900      -0.17827600 
Pb      19.02880964      15.19160856      10.92640915       82      -0.34761300      -0.75324000       0.92800500 
Pb      19.05371539      14.72837867      30.27043846       82       0.08048300       0.25049400      -0.18666000 
I       3.95547296       4.31024699      19.68570074       53      -0.33290700      -0.61005700      -0.10890500 
I       3.57470702       3.56879348      38.08164070       53      -0.91795700       0.84637200      -0.12190700 
I       3.10000794      15.39936282      19.56934525       53       1.06253000       0.55640800      -0.05889800 
I       3.36142520      15.93713725      38.85209803       53      -0.03627700      -0.62483900       0.09471500 
I       8.28671906       4.29051819      19.00960935       53       0.25457000       0.00854400      -0.06280100 
I       8.55575921       3.37286527      37.74815917       53       0.19145200       0.26714200       0.55614000 
I       8.33693319      15.14699898      18.76032609       53      -0.03201200       0.38010100      -0.02738700 
I       8.84724669      15.64841303      38.75668754       53      -0.09295600       0.46241600      -0.42774500 
I      13.70281713       4.37968741      19.09895544       53      -0.06809900      -0.28406000       0.51104800 
I      14.03140678       4.44728427      37.63550848       53      -0.10381000      -0.27233100       0.35896900 
I      14.00361396      15.49621423      19.52330098       53      -0.62153800       0.33386100      -0.50078400 
I      14.02031628      15.90580401      38.60778364       53      -0.16285300      -0.49653400      -0.07982900 
I      19.09916768       3.96922788      18.39076613       53       0.07201700      -0.36004000       0.87808600 
I      18.51730802       4.03381387      37.97067127       53       0.32525800      -0.08128000       0.34668100 
I      19.47204855      15.64929944      19.80809566       53      -0.51488900      -0.05861700      -0.42367900 
I      18.94127174      14.77384449      39.04099949       53       0.23283100       0.69608500      -0.49415200 
I       1.18581395       7.84867166       0.47824054       53       0.17792400      -0.19788400      -0.14137300 
I       0.91632435       8.02348009      19.10562014       53      -0.01426000      -0.12941900       0.13311700 
I       1.26501526      19.03785265       0.61700487       53      -0.34770200       0.11536700      -0.43421100 
I       0.92996795      19.16640977      18.57649546       53      -1.30466100      -0.44324300       0.66788000 
I       6.79981801       6.90868066       0.11216171       53      -0.48205800       0.31384800      -0.03113900 
I       5.95809438       7.66111542      19.34416664       53       0.18875500       0.40917500      -0.09356200 
I       6.41335597      18.78055427      -0.16116067       53       0.05386400       0.16196100      -0.13271500 
I       5.81238342      18.77198775      19.24267719       53       0.51176200       0.18844200      -0.22947900 
I      11.21651083       7.31889674       0.03293647       53       0.44120600       0.04230900      -0.07581800 
I      11.34740465       7.96445078      19.77666671       53      -0.00129900      -0.18257100      -0.01344700 
I      11.97988627      18.29569065      -0.17319167       53      -0.16753000       0.57384300       0.30376400 
I      10.49948762      18.76383322      19.12529692       53       0.28313600       0.35395800       0.24164300 
I      17.12517554       7.76404060      -0.22705546       53      -0.12829400      -0.08996400       0.05944300 
I      16.59606959       7.41572111      19.35832626       53      -0.33695800      -0.20535900       0.30979300 
I      17.27885168      18.59924970      -0.43538089       53      -0.41314000      -0.11769100       0.08052000 
I      16.95522259      19.32984576      19.49775539       53       0.01449300       0.20990800      -0.29177200 
I       3.77238620       9.51001284       9.76936390       53       0.29693900      -0.03722200       0.10751700 
I       3.67708496      10.13319238      28.81044798       53      -0.11719400      -0.56922300       0.09588800 
I       3.46650606      20.45458501       9.93825357       53       0.33491900       0.16365500      -0.25022900 
I       3.04186193      20.44717852      28.73674199       53       0.52942500       0.36678000       0.18559200 
I       9.16905511       8.95291223       9.82644144       53      -0.42706300       0.03342800      -0.51837200 
I       8.54029494       9.88246611      29.08571899       53       0.46480900       0.07758200       0.15373100 
I       8.92876388      20.01753014      10.09509457       53      -0.08862700      -0.42062100      -0.01577100 
I       8.55146971      20.75292133      28.39667691       53       0.02302600      -0.06382100       0.51107900 
I      14.19468879       9.45902258      10.54297879       53       0.05254200      -0.22141500      -0.56022500 
I      13.71731384       9.51186680      29.16003153       53       0.22683600       0.06159000      -0.30305600 
I      13.44349625      20.50237088      10.28772060       53       0.25041500      -0.30940800      -0.53283300 
I      13.55737146      20.77160559      28.52555758       53       0.00990200      -0.11651100       0.25042100 
I      19.06538329       9.40523370       9.89599942       53       0.64603700       0.31485700       0.04181100 
I      19.43297277       9.61463280      29.42339951       53      -0.70677600       0.20639300      -0.10069900 
I      19.10741792      20.74121181       9.93806839       53      -0.56084600       0.17057500       0.00675800 
I      18.55603423      20.51295263      28.96576585       53      -0.11271600      -0.07829800       0.02550000 
I       0.86407315       1.61873433       9.70391751       53       0.12615400       0.61142000       0.19356500 
I       1.15314278       2.10261480      28.73292066       53      -0.18165600       0.13545500      -0.04551700 
I       1.27166851      13.03600493      10.54840439       53      -0.18476500      -0.07856200      -0.31570100 
I       0.97803368      13.16008631      29.04355744       53       0.41025800       0.22760900       0.07391000 
I       6.09064033       1.83188506       9.74868002       53       0.17652200       0.29350500      -0.46290800 
I       6.07153680       1.77225442      28.69966062       53       0.08236100       0.10786400       0.16343900 
I       6.67735546      12.86131303      10.21339974       53      -0.40000400       0.07100700       0.20335100 
I       6.16548659      13.39380647      28.59703508       53      -0.32666900      -0.47718200      -0.13091500 
I      12.15966461       2.16519909       9.81104584       53      -1.03061700      -0.16763800      -0.10343600 
I      11.51191640       1.79580247      28.87827269       53       0.14999000       0.17829600      -0.14477000 
I      11.07252483      12.62976311       9.73969215       53       0.30680600       0.63653700       0.29519100 
I      11.05283140      12.78868799      29.08616116       53       0.06112700       0.33394000       0.12077300 
I      16.02688180       2.00234260       9.72838525       53       1.11298500      -0.09718800      -0.15618100 
I      16.10907941       2.49628462      28.65039636       53       0.07685100      -0.15262800       0.11515700 
I      16.61556950      13.41494707       9.21415471       53       0.51570800      -0.40400100       0.22582400 
I      16.14153523      13.31061113      28.93374700       53       0.21470400      -0.58105800      -0.19921500 
I       1.32539914       0.85693300      17.23970204       53      -0.12173000       0.39735800      -0.08203400 
I       0.67131811       1.11771250      35.86097874       53       0.29704200      -0.31452400       0.30142300 
I       0.72494366      11.93218051      17.44694027       53       0.07729800      -0.18007600      -0.09484300 
I       1.76369518      12.26207896      36.98097385       53      -0.24879900      -0.48664700      -0.37197000 
I       5.51604047       0.49439250      16.93963348       53       1.14527100       1.00241200      -0.13719200 
I       6.21223416       0.53144578      36.08833695       53       0.05618300       0.00194400       0.40526900 
I       6.43813479      11.57645765      17.43073525       53      -0.46737000       0.52827500      -0.30230100 
I       5.81780486      11.63684257      36.75357818       53       0.08572300       0.04048100      -0.41555000 
I      11.17226539       0.31821390      17.15022382       53      -0.05988500       0.69184800       0.04633800 
I      10.80589732       0.42824490      36.07092821       53       0.81406400       0.00413100       0.08099500 
I      11.66979465      11.55492170      17.36514945       53      -0.77158600       0.63269600      -0.13047800 
I      11.04966343      12.07531756      36.12157722       53      -0.13955000      -0.27003800       0.60740700 
I      15.96116075       0.91689032      17.08769259       53      -0.14071100      -0.51836100       0.24297800 
I      16.22255616       0.42745421      36.66934246       53       0.62134600       0.76670900      -0.88186100 
I      16.09222207      12.25693322      17.61404881       53       0.24911400      -0.42712400      -0.45377400 
I      15.96187758      11.79887820      36.29442244       53       0.09114800      -0.00538100      -0.04258100 
I       4.45424652      11.16167636       2.22172003       53       0.01477000      -0.42448800      -0.17651200 
I       4.19784495      11.09413464      21.14898508       53      -0.52703200      -0.21450200       0.22917700 
I       3.80866855      21.96898965       1.42194676       53      -0.07716000       0.23206700       0.96134800 
I       3.61229921      22.37149545      21.44656608       53      -0.00195300       0.72763400       0.05312600 
I       8.69654708      11.03610723       1.98545613       53       0.34046400       0.03162000       0.06206900 
I       8.71579106      11.78713747      21.36767897       53      -0.18534200      -0.25377600       0.12056800 
I       9.21853473      21.68086990       2.22607507       53      -0.01167500       0.01871400      -0.27725300 
I       9.00604984      22.54200604      21.60784535       53      -0.20464300      -0.26513500      -0.04650400 
I      14.20949449      10.64093613       1.93881572       53      -0.14311200       0.15772200      -0.29825100 
I      13.86027715      11.44160725      21.50012816       53       0.04176800       0.40873200       0.12315400 
I      14.23905596      21.90666441       2.18915185       53      -0.20745700      -0.18814500      -0.39745300 
I      13.61715504      22.75647286      21.33314135       53      -0.06061200       0.02920100       0.18145000 
I      19.30273959      10.80888947       2.12336734       53       0.09950800      -0.11811300      -0.21546200 
I      18.65411642      11.44670409      21.43190083       53       0.19731700      -0.26235800      -0.17145500 
I      18.56299232      22.08271193       2.34336171       53       0.69762600       0.18917600      -0.48258300 
I      18.84446818      22.95309189      21.65325811       53       0.13177200      -0.30159400      -0.29005400 
I       1.30187189       6.17028900      11.89767930       53      -0.28806900      -0.11707600      -0.02553900 
I       1.05810475       5.98552410      31.18211126       53       0.04367600       0.11044000      -0.47321200 
I       0.84143440      16.94628049      12.88823296       53       0.36026200       0.43443900      -0.79830100 
I       0.64917562      17.36938693      31.00853257       53       0.14959500      -0.18769700      -0.06464500 
I       6.42991784       6.13280709      11.36323722       53      -0.27909700      -0.15089300       0.01909800 
I       6.39125926       5.91378651      31.17546528       53      -0.03140200      -0.06655300      -0.22793400 
I       5.58836068      17.56487714      12.35808038       53       0.48584000      -0.17696500      -0.39677900 
I       6.60815537      17.55656760      31.00526576       53      -0.36980500      -0.40876300      -0.06005300 
I      11.38620681       5.61507253      12.01440621       53      -0.33595200       0.26901800      -0.01010200 
I      11.23583388       6.68250848      30.89358159       53      -0.08567900      -0.59049700      -0.17590200 
I      11.83341374      16.83916256      11.70369556       53      -0.32623900       0.19837300      -0.19390600 
I      11.07518405      16.84478584      31.16001038       53      -0.24572900       0.47865200       0.06211600 
I      16.81773586       6.29944746      12.01879143       53       0.19019700      -0.49818700      -0.38271600 
I      16.80851910       6.32337629      31.13859096       53      -0.30316900      -0.12970800      -0.66875900 
I      16.48643913      17.12756530      11.88916167       53      -0.06043300       0.07892700      -0.27513900 
I      16.33151765      16.77226172      30.85213582       53      -0.28262000       0.56869400       0.19705300 
I       3.07738376       4.76149789       7.40662087       53       0.24343400       0.60486600       0.12331500 
I       3.56586896       5.77183966      27.30319078       53      -0.00850900       0.38693900      -0.98861400 
I       3.11816368      16.46591652       8.08431029       53       0.37060400      -0.15227200       0.30953100 
I       3.39029898      16.60853651      26.91859519       53      -0.02758700      -0.14163500      -0.01687400 
I       8.90902468       5.23169939       7.29798919       53       0.01976500       0.20688600      -0.02664500 
I       8.60464373       5.63526534      27.00610500       53       0.22266400      -0.08941700       0.00226200 
I       8.74229276      15.70975615       7.71068035       53      -0.03719600       0.63926100       0.31609600 
I       8.35356684      16.80220605      26.74285563       53      -0.01200700      -0.39916500       0.25569900 
I      14.60593277       6.09043746       6.61852904       53      -0.43865900      -0.45482200       0.73206300 
I      14.37775578       5.96933885      26.82183949       53      -0.41902600      -0.15755500      -0.20733700 
I      14.48982385      16.14759963       7.46566162       53      -0.44161200       0.83840600       0.15642600 
I      13.36928982      16.32626267      27.27284174       53       0.19783200       0.28534400      -0.63133700 
I      19.24553409       5.74648550       7.81556873       53      -0.14435700      -0.95759400      -0.30198600 
I      18.64545939       5.61278161      26.70859474       53       0.34943200       0.22724800       0.14877900 
I      18.97515704      16.86670049       8.20413755       53      -0.79993200      -0.49521400      -1.30020300 
I      18.60035874      16.22653875      27.25379023       53      -0.01551200       0.18029000      -0.34324100 
I       1.02125435       2.86604954       3.54945378       53       0.21507000       0.22398600       0.71158100 
I       0.77285125       3.56674913      23.62046278       53       0.11445800       0.18871500       0.11438400 
I       1.48129130      14.49416745       4.61861781       53       0.05282200      -0.22619300      -0.27339200 