320
Lattice="19.9156174257 0.167590319515 -0.0762377712443 0.197640007922 22.0732483095 0.16841285117 -0.197573316166 0.308605995293 36.9711437454" Properties=species:S:1:pos:R:3:Z:I:1:forces:R:3 energy=-101596.393095 stress="862.434577 -598.885178 -609.369594 -598.885178 1116.232473 118.914273 -609.369594 118.914273 1488.097875" pbc="T T T"
Cs       4.00659919       1.21851699       6.38999581       55      -0.13087400      -0.02142600      -0.37303600 
Cs       4.08521159       1.55938360      24.57684066       55      -0.39621200      -0.14816900      -0.20178600 
Cs       3.40794771      11.95414862       6.26325823       55       0.05987400      -0.06490200       0.06666500 
Cs       3.62900461      12.00820734      24.20569396       55       0.18005800      -0.10938500       0.18375400 
Cs       8.14969720       1.95512137       6.43283718       55       0.40549100      -1.15944200       0.09495500 
Cs       8.27567893       0.98731183      24.87997793       55       0.41498700       0.30885200      -0.00566600 
Cs       7.85001072      12.55353067       6.97231488       55       0.44743000      -0.21682500      -0.26842200 
Cs       8.74222717      11.79787164      24.71422668       55      -0.13831900      -0.11493900      -0.05506500 
Cs      13.56194942       0.59987011       6.50126999       55       0.62358600       0.28518800      -0.35848000 
Cs      13.51446692       1.34364487      23.77741668       55      -0.14579000       0.12533700       0.23281200 
Cs      13.84913019      11.81013484       6.30063492       55       0.38869400       0.01332600       0.09319200 
Cs      13.48617445      12.22828205      24.78005650       55       0.23884200      -0.14018700      -0.15068800 
Cs      19.57745183       0.81090607       5.66187038       55      -0.45594200      -0.41474800       0.57516400 
Cs      18.90423796       1.10495103      25.23382316       55       0.12587100       0.42041600      -0.30546700 
Cs      19.01271614      12.09943256       5.96314735       55      -0.46317200      -0.07536100      -0.11152300 
Cs      18.87957616      12.44549204      24.67835258       55      -0.15048300       0.20543000       0.09461900 
Cs       0.98209471      10.44569629      12.91287090       55      -0.28751200       0.11617700      -0.42054800 
Cs       0.99437408      10.29173332      31.27404901       55      -0.11970300       0.12131800      -0.43182100 
Cs       0.85095548      21.70787854      12.82248235       55       0.19338900      -0.07484600      -0.23880500 
Cs       2.41779643      21.62243528      31.64819582       55      -0.24010400      -0.14516500      -0.04191200 
Cs       5.56764099      10.83289145      12.94003870       55      -0.10452900       0.24969100      -0.26721300 
Cs       6.43936893      10.66233941      30.42323196       55      -0.11698600      -0.07591100       0.16033500 
Cs       6.44847538      21.33623266      12.72502751       55      -0.05558600       0.08494300      -0.12865400 
Cs       6.99434033      22.44778921      31.03584121       55      -0.04443700      -0.67904000       0.69699100 
Cs      11.05150197      10.47725362      12.48346390       55       0.10196900      -0.00781000       0.18431400 
Cs      11.34715057      10.80325202      30.91025659       55       0.19339100      -0.40125700      -0.08959600 
Cs      11.21484827      21.50491329      12.50021162       55       0.05107400      -0.35330300       0.02610200 
Cs      11.55154463      21.46980210      30.91229170       55      -0.13731000       0.04009600       0.23215700 
Cs      16.27173651      11.08256517      11.91272192       55       0.06420000      -0.62781300      -0.01353300 
Cs      15.99777688      10.85062843      31.41140775       55       0.00167700      -0.19028200      -0.43619000 
Cs      16.07537577      21.13998207      12.28559452       55       0.08634000       0.27593400      -0.13851300 
Cs      16.41699419      21.19849802      31.10005426       55       0.34036100       0.19666500       0.59991300 
Cs       4.35459273       5.89464785       3.06113947       55      -0.48185200       0.36422700      -0.04308900 
Cs       3.29281450       6.62037440      21.69257581       55       0.13774400       0.01293500      -0.01709700 
Cs       3.95111367      16.51744006       3.26325995       55       0.03025100       0.39351000       0.06708000 
Cs       3.17367473      18.16707074      21.12956805       55       0.52120400      -0.24809400       0.65696400 
Cs       8.86821801       6.29717099       3.34153485       55      -0.50335300       0.53947300      -0.27060500 
Cs       8.49988752       6.90046360      21.31915250       55       0.01729300      -0.05746100       0.09641000 
Cs       9.64441506      17.39286939       3.01042948       55      -0.22232000      -0.00548000       0.15060400 
Cs       8.34472410      17.90258235      21.54735754       55       0.23702600      -0.22067400       0.15594900 
Cs      14.09307853       6.33492762       2.72511103       55       0.50557300       0.28989200       0.17304500 
Cs      13.51602407       6.45942799      21.76849225       55       0.39215700      -0.21167300      -0.22131700 
Cs      14.28696662      17.54886141       2.79638128       55      -0.31580100      -0.44433000      -0.24948900 
Cs      13.71798085      17.28134359      21.63451053       55       0.05015200       0.14643200       0.23823700 
Cs      19.08539803       5.56770869       2.71142811       55      -0.15732100       0.23715400       0.30715700 
Cs      18.63110794       7.74232879      21.49002688       55      -0.41135900      -0.59650600      -0.19218400 
Cs      18.87621530      17.40131499       3.02258153       55       0.21256600      -0.17737700       0.20234200 
Cs      18.96278322      17.97400922      22.01197374       55      -0.26658600      -0.03669600       0.03380100 
Cs       0.89185571       4.88228316      15.34216863       55       0.03094800       0.00510000       0.04063600 
Cs       1.38479873       5.01986623      33.98294283       55       0.08074600      -0.13118100      -0.10597900 
Cs       0.93297320      15.91789835      15.17156708       55      -0.42522000       0.38359400       0.34459600 
Cs       1.32063318      15.48417458      34.33964166       55      -0.16317800       0.01929100      -0.36705100 
Cs       6.29977096       4.54621330      15.00240344       55      -0.08848500       0.25142400      -0.10822600 
Cs       6.53991787       5.38111829      33.65901996       55       0.00071500      -0.17897400       0.17405300 
Cs       6.30971207      16.31866326      15.24075977       55      -0.44490100       0.09702200       0.27324700 
Cs       6.41903502      15.67465230      33.70500797       55      -0.03433100       0.00965200       0.09384500 
Cs      10.98963021       4.52245082      15.49285663       55       0.25942700       0.15175700      -0.35663700 
Cs      11.87596062       5.16258255      33.65838639       55      -0.40655000      -0.52671900      -0.04599500 
Cs      11.34352901      16.08703571      15.28111233       55       0.32725800      -0.58660600       0.09656100 
Cs      10.87197686      16.14297191      33.55301847       55       0.15477400       0.04614900       0.41870600 
Cs      15.89389841       4.78116734      14.93768919       55      -0.21096700       0.18875000       0.20058000 
Cs      16.35425038       4.71331960      33.43957680       55      -0.54427000      -0.19384500       0.41113900 
Cs      15.95319648      16.05907671      15.17432670       55       0.23899400      -0.16574300       0.22407900 
Cs      16.57005278      16.35805686      33.57172854       55      -0.05377500      -0.05700800       0.42674100 
Pb       0.98671160       1.55813566       1.20961061       82       0.48131700      -0.58512700       0.32578900 
Pb       1.40592688       1.94625035      19.69657543       82      -1.30492600       0.43529600      -0.06049200 
Pb       1.51109675      12.38306856       1.00430711       82       0.08462800       0.47316800      -0.62978300 
Pb       1.11532059      13.43895568      19.51552651       82       0.11178900      -1.58988000       0.01550300 
Pb       6.20641058       1.74451183       1.02304850       82       0.68380500      -0.81789200      -0.04690000 
Pb       6.42415715       2.15911225      19.40023061       82      -0.50824400       0.15295200       1.00183500 
Pb       6.29284310      12.25002457       0.98047592       82       0.24144900       0.33390700       0.41988400 
Pb       6.09164721      13.44489125      19.84105099       82      -0.51848400      -0.77652600       0.27960400 
Pb      11.37483573       2.00902649       1.16046080       82      -0.43537700      -0.17331900      -0.18816600 
Pb      11.34994455       2.22390026      19.11348334       82       0.32126000      -0.62053400      -0.09137800 
Pb      11.36850507      12.73292543       1.58426973       82       0.82424800      -0.88364900      -1.41933300 
Pb      10.70628322      13.02500804      20.17243121       82       0.08307300      -0.45840000      -0.78158000 
Pb      16.33699338       1.39004919       1.17669924       82       0.37417600       0.45710300       0.30243500 
Pb      16.37464492       2.20829540      19.64076049       82       0.19309500      -0.22910200       0.43232700 
Pb      16.42261751      12.51477973       0.76748873       82      -0.36591200       0.35200300       0.80377500 
Pb      15.89470275      13.18484999      19.48672476       82       0.29989000      -0.36100100       0.27608400 
Pb       3.36925336       9.78848946      17.37727261       82       0.10679200       0.50416100       1.52026700 
Pb       4.35781717       9.86698364      35.53221859       82      -0.78254400      -0.64342200      -0.19249600 
Pb       3.83993750      20.75962383      17.42249164       82      -0.51960800       0.84388000       0.03443600 
Pb       4.17098022      20.19724458      36.39252607       82       0.22096300       0.15050500       0.28519800 
Pb       8.51905332       9.53325304      17.31612638       82      -0.49629700       0.44628800       0.33295900 
Pb       8.89351035       9.70462559      35.84721992       82       0.17434000      -0.45833000      -0.24790300 
Pb       8.60458954      20.84827233      18.08819966       82       0.79344400      -0.13050700      -0.45477600 
Pb       8.69111401      20.82639743      35.86185270       82       0.54613400      -0.16376800       0.69967500 
Pb      13.36059186       9.53526389      17.39665768       82       0.56614600      -0.05240600      -0.51302400 
Pb      13.59149791       9.22358098      35.76207779       82       0.60194100       0.62247500      -0.02444200 
Pb      13.75804036      20.56991407      17.42771078       82      -0.38934300      -0.04049700       1.28398700 
Pb      13.77375133      20.43074253      36.08672113       82      -0.15559700       0.41115500      -0.13172900 
Pb      18.64479490       9.54198562      16.78127769       82      -0.31610900       0.03401000       0.38578800 
Pb      18.65612341       8.98085432      35.74073744       82       0.29341600       0.09307800       0.36677700 
Pb      18.57516265      20.75120753      17.12633377       82      -0.00088200       0.77493800       1.15671500 
Pb      19.09223191      20.59227602      35.85872021       82      -0.27835200      -0.00873400       0.02421600 
Pb       0.79571652       7.54155225       8.13847479       82       0.68038700      -0.08615500      -0.18597100 
Pb       1.17472172       7.40123785      26.95486253       82      -0.09571300       0.27995000      -0.28955600 
Pb       1.06484402      18.29975298       8.22434447       82       0.17745800       0.52177200      -0.21043200 
Pb       1.74302744      18.77318765      26.99791610       82      -0.23552800      -0.12982300      -0.27272200 
Pb       6.08365935       7.63437404       8.13383163       82      -0.45990100      -0.25060600       0.08861600 
Pb       5.93335837       7.65146633      26.73874486       82       0.53209900      -0.42971900      -0.62509700 
Pb       6.17362148      19.08452396       7.86145037       82      -0.73685200      -0.72513300       0.21872200 
Pb       6.33975368      18.99180524      26.66142285       82       0.13828300      -0.41613400       0.70259400 
Pb      11.26109294       7.78580475       7.90322265       82      -0.08564300      -0.82186600       1.20162000 
Pb      11.28884581       7.46826610      26.70785850       82       0.06297300      -0.31139600      -0.05752900 
Pb      11.37531672      18.13096322       7.65002437       82      -0.20142600       0.07681800      -0.30276600 
Pb      11.36163582      18.88709110      26.90868657       82       0.12298200       0.36374400       0.12342700 
Pb      15.94496207       6.85840131       7.95490776       82       0.16418500       1.42049400      -0.28596100 
Pb      16.37946492       7.33871332      26.86973758       82      -0.22691500       0.36009500      -0.28450900 
Pb      15.98922114      18.33940830       8.08691398       82       0.89972700      -0.01448400      -0.73354600 
Pb      16.56172439      19.40945630      26.96204604       82       0.01322100      -0.34532100      -0.24606700 
Pb       3.37435225       4.00056863      10.73529514       82       0.08172700      -0.32094800      -0.22502500 
Pb       3.72075832       4.48060276      28.97185465       82      -0.05093400       0.41956800       0.09404000 
Pb       2.97146836      15.13652359      10.71382140       82       0.57970500       0.31652000       0.00591200 
Pb       3.62339846      15.30821040      29.26384530       82       0.24089100      -0.38786400      -0.41716000 
Pb       8.91364115       3.62137750       9.86078029       82      -0.32308300       0.12198200       0.76777600 
Pb       8.22107152       4.11139619      29.54365157       82       1.44806700       0.88905600       0.00315300 
Pb       8.26155948      15.71400144      10.34074267       82      -0.54424400       0.12558700      -0.23470500 
Pb       8.59320141      14.82358869      28.83849438       82      -0.21216500       0.18197300      -0.15340300 
Pb      13.51661621       4.04834923       9.98139738       82       0.54748400      -0.79362500       0.61595100 
Pb      13.74306705       3.87225774      28.77094573       82      -0.50721000      -0.44243900       0.62888000 
Pb      13.35616595      15.22962427      10.50197504       82       0.68434800      -0.45014700      -0.75133800 
Pb      13.33108682      15.34602665      29.14664465       82       0.31244300      -0.05986900      -0.56614900 
Pb      18.52608459       4.24680470      10.28089692       82       0.79781700      -1.31742800       0.20976800 
Pb      18.52589866       3.72248927      29.39011199       82       0.00198400       0.42720100      -0.84729200 
Pb      18.65984198      15.36538342       9.99489034       82      -0.15653700      -0.31377200       0.14438700 
Pb      18.20680791      15.37348243      28.98577403       82       0.24971400      -0.63656900      -0.26156300 
I       3.41347403       3.74227247      18.19425572       53       0.37884700       0.22440000       0.17803600 
I       4.24977552       3.98625921      36.60858614       53      -0.79267300       0.39083700      -0.17342500 
I       3.44319835      15.03860696      18.42029125       53       0.50815800       0.57890000      -0.30452600 
I       3.69977770      14.71572084      36.91666568       53       0.75813500      -0.07992700       0.06317300 
I       8.57696500       4.11618384      18.44675879       53       0.13023300       0.21767700      -0.28826700 
I       8.44073598       3.95345192      37.00049721       53       0.73412300       0.14264200       0.03301900 
I       8.35513509      14.89729622      18.56814991       53       0.45604300       0.51974100      -0.09802200 
I       8.79967303      14.45858370      37.27855232       53      -0.67769000       0.50297900      -0.40527900 
I      13.83446204       4.00142148      18.29465813       53      -0.27715600       0.27898100      -0.03605300 
I      13.83818263       3.76111896      36.79588691       53      -0.13606700       0.04221200       0.25574300 
I      12.92001601      14.89984971      18.84433057       53       0.29352400       0.26116400      -0.33580100 
I      13.18436293      14.94676129      36.64894072       53       0.30316900      -0.06935800       0.27050100 
I      18.49776990       3.57123136      17.84336816       53      -0.09593500       0.39059000       0.21756700 
I      18.48412133       3.39403642      36.44340279       53       0.40149300       0.35089500       0.17858300 
I      18.49649871      15.10639508      19.06229742       53      -0.44333600       0.90213800      -0.51303200 
I      18.52713347      14.94878428      37.05904348       53       0.19573200       0.09198500      -0.18719600 
I       1.46828469       6.73585117       0.11846174       53      -0.22098800       0.41140700      -0.18054100 
I       1.12927230       7.70886469      18.48885139       53      -0.35155400      -0.18285400      -0.19319600 
I       1.75954072      18.20751020       0.17017816       53      -0.04445200      -0.15739400       0.10566800 
I       1.37228493      19.07399879      18.35154519       53      -0.60364600      -0.28501500      -0.36160400 
I       6.40386870       7.25512430      -0.16739024       53       0.21903700       0.38771500      -0.02326800 
I       5.34997931       7.25528193      17.76180313       53       0.51062000       0.28999800       0.47235700 
I       6.68252505      17.94325018       0.67090492       53      -0.20075900       0.26973600      -0.32175800 
I       6.11494082      18.82851048      18.44739842       53       0.07469000      -0.28951300       0.23245900 
I      11.79275053       6.97623655      -0.22822121       53      -0.79399200      -0.13684300       0.21021900 
I      11.02448575       7.62432885      18.29828273       53      -0.14950500      -0.28743000       0.08227000 
I      11.33111524      18.46414917      -0.13153231       53       0.29849700      -0.20006800       0.15220400 
I      11.21255448      18.89659266      19.08563246       53      -0.50800600       0.13691000      -0.13662400 
I      16.82034087       6.47212469      -0.19557256       53      -0.34958100       0.53839000      -0.04184400 
I      16.24203342       7.70416696      18.01334220       53      -0.36895500      -0.11759800       0.21540700 
I      17.15496676      18.33978319      -0.13645133       53      -0.81827400      -0.18843700       0.05367000 
I      16.59169829      18.75173412      18.95969417       53      -0.42081900       0.07458900      -0.37119900 
I       3.19864473       9.75536084       9.81220646       53       0.32721200      -0.42560100      -0.46635000 
I       3.76115534       9.65774836      27.54106993       53      -0.40637300       0.28782800       0.21281200 
I       3.46528241      20.75939950       9.01251168       53       0.21352500      -0.45850700       0.15546400 
I       3.94001858      20.99442428      27.71821637       53       0.34043900      -0.12859100       0.06119900 
I       8.70432200       8.71635987       9.91794927       53       0.13953600       0.32317900      -0.35311600 
I       8.85840522       9.10544159      27.58164782       53      -0.43279200       0.95630400       0.33661400 
I       8.72004004      19.78576656       9.40407818       53       0.35373400       0.18897900       0.13519700 
I       8.75945184      20.72031005      28.12670034       53      -0.08525400       0.03394500      -0.05916100 
I      13.96013862       8.87923225       9.38300358       53      -0.68492000       0.47417100       0.13534000 
I      13.97215728       9.31363607      28.34077886       53      -0.12680400      -0.18365300      -0.34230900 
I      13.62368073      19.87193433       9.22683675       53      -0.24903400       0.35690100       0.28421200 
I      14.22744928      20.85114007      28.39460618       53      -0.77694400      -0.13200900      -0.43232000 
I      18.60095922       9.60091991       8.90375562       53      -0.49277800       0.23482300       0.34299100 
I      18.64778391       9.51264630      27.57869115       53      -0.01002500       0.06353000       0.46512900 
I      18.69848278      20.51634241       9.24278922       53      -0.41724900       0.02102000      -0.17436500 
I      19.34895273      20.79198954      28.35480433       53      -0.17637500       0.05701500       0.04695300 
I       1.08937952       2.09166061       9.35152103       53       0.02595400      -0.01843200      -0.04072500 
I       1.78930242       2.26089903      28.34613340       53      -0.81987800      -0.45753100      -0.26057400 
I       0.84549888      12.99995619       9.39517382       53       0.35291100      -0.16570800      -0.02762500 
I       1.02162372      13.34458685      28.07797090       53       0.07850900       0.24035800       0.01791900 
I       5.71212565       2.15111833       9.44305850       53       0.61945800      -0.48455600      -0.02689900 
I       6.23288115       2.40839694      28.15016573       53      -0.65848100      -0.19760400      -0.98279100 
I       5.74386486      13.42291631       9.78179401       53      -0.06786700       0.06809100      -0.02184900 
I       5.91440679      13.41524171      27.75887914       53       0.28419000      -0.38462400      -0.22009000 
I      10.87125841       1.20539488       8.87744976       53       0.07110800       0.46254000       0.27493600 
I      10.91956951       2.28193118      27.78472321       53      -0.02734100       0.08651100       0.14006400 
I      11.05754667      13.14969029       9.70371514       53      -0.04214900       0.12106000      -0.20275600 
I      11.05544790      13.12976967      27.58226017       53       0.42381200      -0.07678200       0.20762700 
I      16.07792117       1.96734718       9.34119089       53       0.03595900       0.18398100      -0.04892200 
I      16.03824564       1.84106432      27.80922434       53       0.50642600       0.55933700       0.19209000 
I      16.13254475      13.46798680       9.04389723       53       0.22917600       0.13736900      -0.06012100 
I      16.13401399      13.02736751      27.79506649       53       0.15004800       0.57578700       0.25543600 
I       0.82315613       0.83168055      16.28010633       53       0.41279100      -0.62103100       0.27326100 
I       1.38858096       0.29230896      35.46713754       53       0.69756300       0.45070100      -0.52093000 
I       0.59306654      12.10658677      16.41291791       53       0.16729200      -0.28063300      -0.03319000 
I       1.26846204      11.09051867      34.87165191       53      -0.07998900       0.15620700       0.28519800 
I       5.89962244       1.03999023      16.51654881       53       0.47179900      -0.55090400      -0.25284100 
I       6.53670959       0.82930289      34.76826554       53      -0.69785100       0.22315400      -0.00523600 
I       5.89443463      11.72159952      16.73255532       53       0.32275200       0.10572800       0.11134700 
I       6.66144439      11.81701420      34.79685003       53       0.31158200       0.03006800      -0.49079200 
I      10.59430473       0.58327094      16.05740942       53       0.07673300      -0.25118500       0.44123900 
I      11.29240068       0.48514413      34.84144559       53       0.11081700      -0.17451900       0.41639600 
I      10.44185950      11.93691890      16.57004065       53       0.29074800      -0.34130500       0.06970400 
I      11.45340974      11.39964709      34.93995538       53      -0.09050500       0.04307000       0.08072300 
I      15.49134697       0.59938407      16.61209385       53       0.88057700       0.48288600      -0.54700400 
I      16.03307299       0.93811352      35.11519504       53      -0.10924900      -0.96958500      -0.29757500 
I      15.89587895      11.39016473      16.50660770       53       0.01490700       0.59576200      -0.17245900 
I      16.28658250      11.97387220      34.80895660       53       0.03471900      -0.55904600      -0.24019000 
I       3.75401831      10.26704525       1.72534907       53       0.15813400      -0.16354200       0.24547800 
I       3.08292948      10.69841157      20.76470250       53       0.17001700       0.22710800      -0.23852900 
I       4.19819854      21.94639150       2.42977165       53      -0.47282600      -0.26843900      -0.20942200 
I       3.86458414      22.28977017      20.70305608       53       0.82815100      -0.57815100       0.27915600 
I       9.19565027      10.30830926       2.11259071       53      -0.39659500      -0.13134100      -0.27307300 
I       8.16306788      11.06217164      20.74653810       53      -0.06465100      -0.11749300      -0.18183900 
I       9.02057532      21.61622183       2.30805616       53       0.25187800       0.39928000      -0.37566100 
I       9.14818595      22.34899245      21.09944763       53      -0.40292900      -0.16654600      -0.72257600 
I      13.83228041      10.45672974       2.15026953       53       0.15962900      -0.15336500      -0.43573600 
I      13.58511470      11.15874535      20.42438963       53      -0.10529800      -0.26334200       0.08659700 
I      14.21776483      21.70946196       2.09879057       53      -0.65313800      -0.25836500       0.33225700 
I      14.07061452      22.11920095      20.39576876       53      -0.50944000       0.13814200       0.24273800 
I      19.10691926      11.01946164       1.87624523       53      -0.94812500      -1.16604000       0.26649000 
I      18.37164265      11.09663208      20.14460660       53      -0.15665600       0.34546400      -0.21999500 
I      19.04942086      21.36372887       2.40791595       53       0.10900900       0.53408900      -0.56623900 
I      18.74170914      21.99682360      20.62198417       53      -0.02469100       0.26570100      -0.30469500 
I       1.12839116       5.93443049      11.70599668       53      -0.46801600       0.38606500      -0.20508000 
I       1.06095165       6.22423446      30.14873678       53      -0.00376200      -0.20245600      -0.26006800 
I       1.06896477      17.73024075      11.58042216       53      -0.02561300      -0.62913900      -0.02670500 
I       1.62901788      17.43803790      30.18320530       53      -0.28310700       0.33793900      -0.18032400 
I       6.15758211       5.61368760      10.98600259       53       0.36275000       0.51806000       0.19934700 
I       6.07062718       6.59488400      30.13292376       53       0.18159600      -0.14461800      -0.41378200 
I       5.45232488      17.41533036      11.28364082       53       0.33363000      -0.13305300      -0.16453400 
I       6.62048353      17.00361184      29.96709168       53      -0.41706700       0.24735400       0.08076100 
I      11.09526086       5.58983924      11.31456457       53      -0.09791400       0.15516000      -0.18978100 
I      10.90108377       6.31224939      29.72396789       53       0.29174200      -0.22848300      -0.16674400 
I      11.16778511      17.13674071      11.23914933       53      -0.40182700       0.49356100       0.32048700 
I      10.84603882      17.06810378      29.86816861       53       0.25691500       0.23936900       0.31357700 
I      16.22724402       5.88851321      11.06027194       53      -1.24368100       0.58729500       0.57199300 
I      16.01518040       5.90092091      29.97719245       53       0.35355600      -0.07857200      -0.18052600 
I      16.32580837      17.19398144      11.11473586       53      -0.48970500       0.17394800       0.38180500 
I      15.95076526      17.45966927      30.02928780       53      -0.05977800      -0.11108400      -0.27983800 
I       3.62267193       5.62225143       7.46889765       53       0.19839500      -0.08076800      -0.01056200 
I       3.76227596       5.09541384      25.73568065       53      -0.02367600       0.69339200       0.03081200 
I       3.20957410      16.31453847       7.18606802       53       0.69120100      -0.59531500       0.42096900 
I       4.20168975      16.65187447      26.13407699       53      -0.34211200       0.18966700      -0.17251400 
I       8.80415653       5.29060849       7.05308769       53      -0.01400200       0.94480800      -0.04064300 
I       8.47593710       5.66790699      26.05929330       53       0.31623400      -0.56817200      -0.00646800 
I       8.63173005      16.32873977       6.63888035       53       0.11357300       0.15141100       0.29839600 
I       9.31482440      16.72676224      26.27579697       53      -0.55668500       0.00174500      -0.67550600 
I      14.03921382       4.84031990       6.89906308       53      -0.80222700      -0.25834300      -0.29829200 
I      13.86550402       5.29928549      26.05712683       53      -0.06329900       0.12813500      -0.61288300 
I      14.01268667      16.23654853       6.73978598       53      -0.48522400       0.06908400       0.22315100 
I      13.83978324      17.20725107      26.06383339       53       0.38018400      -0.27973900      -0.02970900 
I      18.46189478       5.46371300       7.25418657       53       1.05943100      -0.65858700      -0.30954500 
I      19.01038092       5.41970150      26.08012538       53      -0.30249100      -0.23553600       0.00017200 
I      19.01981376      16.34394246       6.77221940       53      -0.48990300      -0.07933200       0.38233800 
I      18.98362136      17.17755000      26.01410660       53      -0.06007500      -0.14032400       0.02005800 
I       1.71383059       2.93760815       4.03741482       53       0.12557500       0.53548500      -0.27423200 
I       0.67862095       3.72895736      22.37673925       53       0.41778400      -0.20685600      -0.24532700 
I       1.27862243      13.87962146       3.66765551       53       0.16000800       0.23714200       0.30574600 