320
Lattice="20.0835273193 -0.110970133317 0.422515675766 -0.100871382613 21.9571511655 0.0266913016642 0.734822138811 0.0670822299393 37.8869657535" Properties=species:S:1:pos:R:3:Z:I:1:forces:R:3 energy=-101597.779813 stress="27.544831 126.066121 -2379.739087 126.066121 -321.568509 -903.836532 -2379.739087 -903.836532 255.865987" pbc="T T T"
Cs       3.90082021       1.54963567       6.47212879       55       0.13663100      -0.52032600      -0.06330700 
Cs       4.29175819       0.68119506      25.02768885       55       0.06194000       0.20160500       0.09168300 
Cs       3.84211218      12.19334813       6.13413540       55       0.09033200      -0.35046500       0.23027400 
Cs       4.14124158      12.15145064      25.53896535       55      -0.00563200      -0.13521400      -0.22697500 
Cs       9.28404311       0.45724808       6.02482972       55      -0.22731100       0.13020800      -0.00093800 
Cs       9.57871394       1.31955040      24.93232115       55      -0.51959700      -0.28461900       0.39573600 
Cs       9.50825289      11.59537252       6.43779161       55      -0.72484100       0.38088400       0.11336600 
Cs       9.30944889      11.40553047      25.50616122       55       0.02387300      -0.04771500      -0.32055800 
Cs      14.70827524       0.29495401       6.47482104       55      -0.52890700       0.23548600      -0.01150500 
Cs      14.59867314       1.05536529      25.80145036       55      -0.07151400       0.14328300      -0.65321500 
Cs      13.85335396      12.06192889       6.68039795       55       0.07931500      -0.11760700      -0.09660100 
Cs      14.40707089      11.62681576      25.54244195       55      -0.20912600      -0.23458900       0.07976100 
Cs      18.90805372      -0.17953855       5.97020234       55       0.47565900       0.46023300       0.13736900 
Cs      19.79734376       1.16393348      25.73529407       55      -0.14798800      -0.32387000       0.04483000 
Cs      18.44508498      11.56459242       6.24158920       55       0.11667200       0.12663100       0.09340700 
Cs      18.70840323      12.06372169      25.87262750       55       0.41169800       0.09334600      -0.12964600 
Cs       1.23768268      10.63657590      12.71003766       55      -0.07709100      -0.19095000       0.25941100 
Cs       1.93499764       9.94180345      31.35456126       55       0.02064200       0.06281600       0.24797000 
Cs       1.22149962      21.25093536      13.02581564       55       0.08474700       0.17290900      -0.15719900 
Cs       1.77887141      21.11788325      32.35635651       55       0.25270400       0.08759400      -0.20301700 
Cs       5.49873614      10.59487603      12.42206844       55       0.26223400      -0.19641800       0.31999900 
Cs       7.01888232      10.15307758      31.81138151       55       0.26934600      -0.04840700      -0.57160900 
Cs       6.53342211      21.22457512      12.81190629       55      -0.36259800       0.04114700       0.07982000 
Cs       6.87083692      21.06373769      31.80698712       55       0.13952600       0.06082300      -0.15803600 
Cs      10.61530374      10.49762691      12.97764437       55       0.56379600      -0.10797600      -0.03258100 
Cs      12.27445188      10.02438829      31.93139815       55      -0.11976500      -0.04318400      -0.14913900 
Cs      11.78334334      20.81584056      12.56760392       55      -0.29066000       0.07051600       0.22027400 
Cs      12.04801128      20.69703712      31.81025185       55       0.13038300       0.42831000       0.00266600 
Cs      16.46159826       9.67067430      13.10991009       55       0.06885300       0.03623300       0.05956100 
Cs      17.39901882      10.22632765      32.01629529       55      -0.39803000      -0.06705400       0.48492900 
Cs      16.73110166      21.10135895      12.95736640       55      -0.11217500       0.10913400      -0.03312100 
Cs      16.75972022      21.07905695      32.41775170       55      -0.06249200       0.08540400      -0.11365800 
Cs       3.50332629       6.53372261       3.59756330       55       0.31241600       0.20683400      -0.07476300 
Cs       3.78243645       6.66792680      22.34076516       55       0.01702600      -0.06540600      -0.25957000 
Cs       4.05447728      16.89902879       3.35780914       55       0.07096000      -0.04278000      -0.18044400 
Cs       4.39110468      17.57815908      22.22512458       55      -0.19155600      -0.08350300      -0.03969300 
Cs       8.60632770       6.48470384       3.32262446       55       0.19293700      -0.32430800       0.13607100 
Cs       9.18939355       6.74612030      22.24568064       55      -0.04300100      -0.04695200       0.10148900 
Cs       8.37439870      17.34209034       3.87072056       55       0.17724400       0.13003300      -0.10657700 
Cs       9.35044591      16.92558156      22.65031621       55       0.14799900       0.31136100      -0.42384000 
Cs      14.68987665       5.61795417       3.55503019       55      -0.55032400       0.28289100      -0.04154000 
Cs      14.74756095       5.84281282      22.54622696       55      -0.36512200       0.40186700       0.21057900 
Cs      13.03648890      16.77095577       3.52339341       55       0.65518900       0.49576200      -0.09286900 
Cs      13.83204207      17.21666374      22.88591740       55       0.20011900       0.09037200      -0.08738700 
Cs      19.03822309       6.07749826       3.48059035       55      -0.00672200       0.15936300      -0.09217100 
Cs      18.95798621       6.54187781      22.63570898       55       0.35264600       0.52788900       0.55139700 
Cs      19.30998583      16.81670676       3.85013597       55      -0.23435900       0.26759400      -0.04276100 
Cs      18.82213489      17.49128579      22.88732617       55      -0.09656900       0.09522800      -0.18950700 
Cs       1.61007334       4.95782346      16.02343532       55      -0.32568800      -0.34181000       0.06874300 
Cs       2.53043685       4.66288677      34.63672043       55      -0.17887100      -0.08521300      -0.11482900 
Cs       1.16946874      16.22980473      15.50493975       55       0.13263200       0.25413200       0.29684400 
Cs       2.51964441      15.08659233      34.37148816       55      -0.26110300       0.35488200       0.38161700 
Cs       6.15735519       4.99771832      15.64792458       55       0.21959300      -0.42039200       0.19430900 
Cs       7.35393491       4.87158580      35.16309412       55      -0.26495700      -0.07687900      -0.51749800 
Cs       6.04924131      16.57917628      15.96528347       55       0.01959700      -0.22639200      -0.14491400 
Cs       7.79290257      15.29808649      34.39513476       55      -0.32240200       0.05889400       0.03352200 
Cs      11.52435225       4.82826324      15.70472266       55      -0.24349100      -0.04396200       0.11731700 
Cs      12.38846060       4.43533280      34.69990128       55       0.06480100      -0.11761000       0.11980300 
Cs      11.11594773      15.31118105      16.23334041       55       0.00290400       0.13027600      -0.16361600 
Cs      11.90224456      14.92934763      35.18482976       55       0.22546700       0.39395500      -0.07624400 
Cs      16.23809235       4.36720749      16.38346078       55       0.28929800      -0.00055700      -0.39932900 
Cs      17.23012500       3.98875594      35.30516727       55       0.17029800       0.26910300      -0.32653300 
Cs      16.24676297      15.06945787      16.13266665       55      -0.19715400       0.46790000      -0.05903700 
Cs      16.89719219      15.49925475      35.07791584       55       0.01461300      -0.07053000       0.12179700 
Pb       2.16731984       1.82763144       1.42551598       82      -1.17275000      -0.93225700       0.41244200 
Pb       0.95987739       1.75187248      20.13920593       82       0.40271800       0.20529600       0.28239700 
Pb       1.26074458      12.57457037       1.16813331       82       0.43376100      -0.49919600       0.11261100 
Pb       1.21913435      13.72890728      20.19017742       82       0.03618300      -1.06987500      -0.28425700 
Pb       6.83185273       1.74491622       1.13522222       82       0.36320400      -1.04783700      -0.82093500 
Pb       6.70115672       2.19753358      20.49993118       82      -0.55518300       0.08471500       0.24486300 
Pb       6.54741511      11.67146560       1.44268507       82      -0.63413700       0.35192400      -0.64405900 
Pb       6.48518668      13.00118198      20.49552559       82      -0.51223300      -0.86387400      -0.51264300 
Pb      11.54537586       1.85747644       1.15600544       82      -0.32587700      -0.40605500       0.24004800 
Pb      11.98093007       1.52811293      20.46973374       82      -0.20723700       0.08237100      -0.39475000 
Pb      11.17522925      12.03281018       1.52774418       82       1.01492200       1.15131900       0.25782900 
Pb      11.47881925      12.44593812      20.41864205       82      -0.24317600      -0.21266400       0.11545200 
Pb      16.72128609       1.51689266       0.98933225       82       0.19146600      -0.76280200      -0.51450800 
Pb      16.77972418       2.15801970      20.71307248       82       0.02438600      -0.42356000      -0.36383300 
Pb      16.26980145      12.46712064       1.62160430       82       0.95330700      -1.07334700       0.44141100 
Pb      16.17843699      12.54491280      20.43353959       82       0.43456400      -0.25573000      -0.01377800 
Pb       3.82067500       9.52012203      17.94686025       82      -0.48631600       0.43974100       0.77625100 
Pb       4.55702408       9.18472718      36.24447740       82      -0.18987800       0.08152900      -0.30089300 
Pb       4.33435345      21.23295237      18.03461161       82      -0.82406400      -0.29224100       0.08290000 
Pb       4.63679646      19.88865525      36.78848673       82       0.19498800       0.31460400       0.34788000 
Pb       8.39097597       9.50899344      17.14477966       82      -0.08210000       0.10904400       1.01630400 
Pb      10.25355170       8.57632380      36.86030357       82      -0.48683700       0.00739400      -0.14553000 
Pb       9.26011740      20.60990407      18.00767686       82      -0.39134500      -0.07755500      -0.48402700 
Pb       9.38887596      20.40847403      36.58086745       82       0.44683700       0.74828500       0.81537600 
Pb      13.71517812       9.00385727      17.75331954       82       0.71797900       0.04291900      -0.18592800 
Pb      14.64764301       9.35025237      36.87195676       82       1.14074800      -0.71323500       0.23663500 
Pb      13.88814138      20.32372153      17.71107266       82       0.51883600      -0.65862800       0.02621300 
Pb      14.38244232      19.67149035      37.43633269       82      -0.97207000      -0.03301700      -0.02984300 
Pb      18.39698604       9.29222377      18.21054216       82       0.85392100       0.08954800       0.33011900 
Pb      20.04019050       8.63153995      37.21295207       82      -0.65945600       0.37841600      -0.12777700 
Pb      18.47927140      19.83154953      18.57891635       82       0.23892200       0.12071600       0.35676800 
Pb      20.02091384      19.35245274      37.33434488       82      -0.20832000       0.64178100       0.45138600 
Pb       1.26907702       7.08571601       8.01874523       82       0.29798500       0.56893600      -0.20536200 
Pb       1.73074191       7.10767167      27.31985365       82       0.64737300       0.27304100      -0.36526500 
Pb       1.38061249      18.61132932       8.13738161       82      -0.10211000      -0.61106000       0.54949200 
Pb       1.57259368      18.59815531      27.62629991       82       0.52943900      -0.38194800      -0.22860100 
Pb       6.67373913       7.46402596       8.58179082       82      -0.33014200       0.61357300       0.23260000 
Pb       7.00855540       7.33993377      27.42685722       82      -0.32459400       0.19471600      -0.50921600 
Pb       6.31931923      18.33044063       8.49118320       82      -1.04176400       0.42749200       0.52621100 
Pb       6.66390625      18.38025903      27.46285274       82      -0.17589700      -0.03670400       0.18930800 
Pb      11.52775041       6.77084768       8.43758567       82       0.08095600       0.09705500       1.29095800 
Pb      12.11121251       6.87454781      27.72998069       82      -0.05871800       1.05848100      -0.37388600 
Pb      11.20885745      17.72735860       8.80726269       82      -0.20232300       0.39303200      -0.12588100 
Pb      11.87840544      18.46222046      27.63838805       82      -0.23010900       0.09652100      -0.05162500 
Pb      16.22818306       6.86800919       8.33545016       82      -0.25337700       0.68739800       0.35495700 
Pb      17.00199754       7.14756347      28.08084148       82      -0.88363400       0.06839700      -0.71656500 
Pb      16.16726867      17.77568877       8.12230683       82       0.61205100      -0.02137900      -0.14166200 
Pb      17.06800206      18.37076840      28.16458451       82      -0.35698100       0.47487200      -0.47554400 
Pb       3.56019772       3.97193522      10.62176290       82       0.03006300       0.06457800      -0.21494400 
Pb       4.49427410       3.57586128      29.68530214       82      -0.39204800       0.48052900      -0.65662900 
Pb       3.32542367      15.28424528      10.68408505       82      -0.17214800      -0.42417100       0.00801100 
Pb       4.23158842      14.62419810      29.70347256       82       0.38582100      -0.13371800      -0.56576200 
Pb       8.87763511       3.49087348      11.20942891       82      -0.16334500       0.35791200      -0.20290600 
Pb       9.81709803       3.93928388      29.72828244       82      -0.43295800       0.49868500       0.18184500 
Pb       7.94716776      14.77529228      10.88067862       82       0.64813000       0.81024500      -0.58661700 
Pb       9.22586477      15.05568286      29.14814212       82       0.24719600      -0.59512100       0.11928600 
Pb      13.94735974       3.46479030      10.95892407       82       1.69485900       1.69094500      -0.26409200 
Pb      14.52516128       3.42185075      29.57456833       82      -0.01025800       0.18030900       0.41754300 
Pb      13.77031583      14.41600839      11.45956704       82      -0.19942300       0.81133400      -0.92675200 
Pb      14.20332650      14.96309604      29.92096445       82       0.00795800      -0.45417400       0.07139300 
Pb      18.74539498       3.92638694      10.59113050       82      -0.08045800      -0.48652500       0.77194100 
Pb      19.49066220       3.86464643      30.10271445       82       0.29787800      -0.12364800      -0.03833900 
Pb      18.44292547      14.44919248      11.48455926       82       0.23587200       0.34006600      -0.57653200 
Pb      19.26118505      14.94439186      30.50565502       82      -0.28934700      -0.04836100      -0.37082600 
I       3.62351304       3.34002173      19.24504070       53       0.41814700       0.13902700      -0.30024700 
I       5.03132921       3.64743467      38.42079994       53       0.31805100       1.10295200      -0.77010300 
I       3.95281951      14.80958057      19.05710248       53       0.34430600       0.49005500      -0.15747800 
I       4.88667892      13.69077874      37.89636470       53      -0.11524900       0.38250300      -0.09269000 
I       8.85447236       3.87979863      19.01534964       53       0.22121300       0.08499900       0.08474900 
I       9.70863171       3.97684606      37.76940098       53       0.24502300       0.04300400       0.29328900 
I       8.95238359      14.72446645      19.30349407       53       0.46854000       0.16375400       0.01774400 
I       9.53828226      14.02453767      38.16008735       53      -0.13398800      -0.11338400      -0.14955400 
I      13.90808116       3.79065989      19.34973910       53      -0.03046900      -0.09979600       0.06684200 
I      14.98175235       3.48396611      38.22843065       53      -0.09605600       0.13962000      -0.15116600 
I      13.99121709      14.57211018      19.30704503       53      -0.57745300      -0.42081600       0.13638800 
I      14.96443045      14.37227430      38.65612711       53      -1.38642600       0.69597200      -0.92087200 
I      19.17381161       4.28492722      19.98846725       53       0.06504800      -0.94313200      -0.65714900 
I      20.38152297       3.50751798      38.26815947       53      -0.26893700      -0.07396500      -0.05579100 
I      18.92577390      14.84773151      18.92747808       53      -0.37833400      -0.06696000       0.14448900 
I      19.69501675      13.98852993      38.18300054       53      -0.21710900       0.57029300      -0.12752100 
I       1.83951994       7.05996287      -0.21755810       53      -0.11561900      -0.42884100       0.33640500 
I       1.17739780       7.59749775      19.03747032       53       0.32608500       0.21451800      -0.03029500 
I       1.45498102      17.38746749       0.04362917       53       0.14689800       0.11749800      -0.15122800 
I       0.97878428      18.52737951      19.42911422       53       0.12064500      -0.00526800      -0.14886300 
I       6.19341081       7.45405760      -0.03960658       53       0.23036400      -0.16195900       0.32536700 
I       6.46058969       7.95243920      19.48301836       53      -0.12478200      -0.28842400      -0.62603400 
I       6.72713905      18.69897169       0.49868923       53      -0.97150600      -0.71977100      -0.06884900 
I       6.42021302      18.96878680      18.86638950       53       0.36343400      -0.19641900       0.03982200 
I      11.94839689       6.92737016       0.26296988       53      -0.28350200       0.00626900      -0.11189400 
I      11.41793745       7.47416240      18.80851268       53      -0.64401400      -0.68358900       0.21191000 
I      10.60576116      17.91064980       0.40144826       53       0.32057300      -0.00694500      -0.13849800 
I      11.57935550      18.44584183      18.93921887       53      -0.22859800       0.15430900       0.17146100 
I      16.24446697       6.80950998       0.20226023       53       0.32551900       0.18618200      -0.25758000 
I      16.36754969       6.92528094      19.27470438       53      -0.01561000       0.47577900      -0.26385900 
I      15.96366791      18.09675040       0.74709364       53       0.67002700      -0.39174200       0.17464400 
I      15.79962892      17.69396366      18.92850384       53       0.31609500       0.84973100       0.14425000 
I       3.73389338       8.88966927       9.56146640       53      -0.03041300       0.09367400      -0.14190900 
I       4.19287111       9.17640799      28.50452553       53       0.30572200      -0.07567600      -0.12820300 
I       3.64649753      20.02197934      10.03292038       53      -0.26786300       0.03581100      -0.28383400 
I       4.32449509      20.30545231      28.59854150       53      -0.29352300       0.23886500       0.00025200 
I       9.28203436       9.60952154       9.69823246       53      -0.71155400      -0.56129900      -0.19356400 
I       9.62298179       9.17821301      28.72796726       53      -0.17226900      -0.28386400      -0.00887300 
I       8.61528151      20.21871143       9.26189798       53       0.76119600      -0.09656000       0.29751800 
I       9.20012691      20.49833396      28.46627475       53       0.00456700      -0.47066900      -0.01966500 
I      14.11352769       9.05716959      10.19332081       53      -0.15971500      -0.63791400      -0.72901700 
I      14.41849998       9.10187648      28.78897639       53       0.14101300       0.11897600       0.03443200 
I      13.89528812      19.66683722       9.64707354       53      -0.09653600       0.00024300      -0.13324400 
I      14.08684759      20.54732421      28.36392533       53       0.18445500      -0.47872100       0.80845600 
I      18.46764572       8.69859569       9.81392499       53       0.24328200       0.03744600      -0.40869700 
I      19.14184377       8.96545574      29.10365933       53       0.69795600       0.37663300      -0.06976800 
I      18.34679380      19.88812047       9.34352428       53       0.31481700       0.01888900       0.04285400 
I      19.52453081      20.40956397      29.47103627       53      -0.20546300      -0.22209000      -0.11967800 
I       1.30073620       1.86745601       9.47977389       53       0.07771500       0.11222700       0.02881900 
I       1.71932911       1.85946991      28.70429316       53       0.11621800       0.13193900      -0.07295200 
I       1.37484702      12.64383553       9.60919762       53      -0.05480300       0.55889000       0.01346400 
I       1.35039977      13.23468070      28.69282333       53       0.15866000      -0.26182400      -0.03960100 
I       6.64440855       1.40939505       9.84659873       53      -0.11734500       0.82317600      -0.20873500 
I       6.70303712       2.32956298      27.91516757       53       0.42372800      -0.52682300      -0.04489000 
I       5.66160982      13.08297432       9.67528464       53      -0.17435200      -0.10763600      -0.29489800 
I       7.09170864      12.77304026      28.20147337       53      -0.11086300       0.32031300       0.32272700 
I      11.69077994       2.11004503      10.03252413       53      -2.10373600      -1.77638600      -1.04465200 
I      11.59695344       1.67375537      28.87886281       53       0.73604500      -0.29942900      -0.28490300 
I      11.51528435      13.06348783       9.58205506       53      -0.30921200       0.01013400       0.27972400 
I      11.95512804      13.07773650      28.16842884       53       0.08995600       0.30847000       0.26386300 
I      16.45365698       1.52811598       9.77948289       53       0.09504300       0.13463100      -0.04161700 
I      17.07714533       1.70987312      28.48243337       53      -0.00522400       0.15566600       0.48426500 
I      15.83968573      12.58154802      10.03843629       53       0.43423100       0.11928300       0.24075200 
I      16.75654106      12.81984248      29.21253515       53       0.37301300       0.42470100       0.05980300 
I       0.76717094       0.47301962      17.20627773       53       0.66258100      -0.03096200       0.06684300 
I       2.14145058       0.25946883      36.11407476       53       0.11329100      -0.53906300       0.04552900 
I       1.43186411      11.51027572      17.09641995       53      -0.07166700       0.01347900      -0.06119500 
I       1.77386583      11.29766921      35.34411377       53       0.25216900      -0.44873100       0.50813300 
I       6.82257398       0.74798902      16.89175064       53       0.33379500       0.29704500       0.09541900 
I       6.72897565       0.14424182      35.54120443       53       0.04141500       0.08648600       0.21628500 
I       6.39270681      12.05765266      17.11856813       53      -0.00127400      -0.55511000      -0.29175000 
I       7.15931343      10.55045334      35.40526958       53       0.80033300       0.75907000       0.20729700 
I      12.11286168       0.75870099      16.90283849       53      -0.52968900      -0.12142100       0.11582500 
I      11.81590198       0.66247458      35.67089199       53       0.16679000      -0.13233700       0.30957600 
I      11.44521447      11.07140688      17.18935922       53      -0.26237600       0.63565300      -0.27904200 
I      12.20113458      11.28161654      36.33592844       53      -0.35619700      -0.12530100      -0.58439700 
I      17.18917179       0.78273161      17.72317506       53      -0.89273300      -0.01464800      -0.21693100 
I      16.57569051      -0.44885046      36.30386893       53       0.67017000       0.81277700      -0.42316500 
I      16.29012730      11.40667949      16.92488074       53      -0.05059900      -0.29182200       0.20599800 
I      17.61590767      10.84614586      36.53707428       53      -0.41557400       0.17182100      -0.35135900 
I       3.59877446      10.27894322       2.09738340       53       0.04415700      -0.19125300       0.04796100 
I       3.76169296      11.19782054      21.32946604       53       0.05366900       0.08362300      -0.17229000 
I       4.45432832      21.48274417       2.19134945       53      -0.39926000       0.22863800      -0.03287800 
I       4.17595667      21.46760215      21.30331461       53      -0.08327200       0.29637700      -0.02529500 
I       9.15827118       9.99489574       2.18798184       53      -0.23780500      -0.76999200       0.46689900 
I       8.61809090      10.51605402      21.19001588       53       0.63243600       0.69407500      -0.04406200 
I       9.17963502      21.44871156       1.97442596       53      -0.00169800       0.54242500       0.14853700 
I       8.63623484      21.66421813      21.22360538       53       0.37579300       0.07132800      -0.05418500 
I      14.01776884      10.05427810       2.41077369       53      -0.47056000       0.36280200      -0.20487600 
I      13.91146711      10.08130556      21.12388709       53       0.05278800       0.53963700      -0.16608700 
I      13.60330343      21.67265956       2.29654494       53       0.22755800       0.04527400       0.02950400 
I      14.31588571      21.75452728      21.32843518       53      -0.05704900      -0.26833900      -0.05092400 
I      18.10429951       9.69386455       2.51994185       53       0.73424400       0.29024700      -0.10277000 
I      19.31016817      10.83385297      21.36739187       53      -0.49942700       0.18803800      -0.13338200 
I      19.34923283      21.17615123       2.34402557       53      -0.13313400      -0.01850800      -0.33074500 
I      18.63840567      21.54263789      21.61621697       53      -0.25810200       0.13637400       0.13704700 
I       0.98803451       6.16951770      10.97639978       53       0.20697700      -0.41617200       0.87673100 
I       2.01603620       5.96467421      30.61979412       53      -0.32054100      -0.29762500      -0.27054500 
I       0.60259105      16.97688818      11.45379036       53       0.06425500       0.00900700      -0.08273600 
I       2.76421570      17.08580984      30.66080438       53      -0.70540800       0.09737200       0.33411300 
I       6.52158863       6.05483769      11.78169416       53      -0.12500000      -0.42070000      -0.53581000 
I       6.93099447       5.66447015      30.09644170       53      -0.00695600       0.38240500       0.57943400 
I       6.12918381      17.25254924      11.79797909       53      -0.14887800      -0.43992700       0.07111600 
I       6.92727339      16.88888013      30.44022807       53      -0.08280900      -0.27793900       0.40619300 
I      11.62683511       5.64348524      11.82158291       53      -0.35144500       0.14608200      -0.02360500 
I      12.37825999       5.98233327      30.88091620       53      -0.09996900      -0.55280500      -0.17660300 
I      10.56928994      16.97297357      11.98762658       53       0.25195800      -0.21434300      -0.42802900 
I      11.88487989      16.99513398      30.81320649       53      -0.19588600      -0.04037700      -0.12728800 
I      16.20999635       5.73434650      11.94933607       53       0.52368500      -0.05871700      -0.20436800 
I      16.69545859       5.64494902      30.94848839       53      -0.00243500      -0.18557300       0.01872700 
I      16.28534073      16.69711591      12.26592284       53       0.06864300      -0.20884300      -0.16530600 
I      16.68167544      17.17433842      31.26704520       53      -0.06359300      -0.32995300      -0.14559400 
I       4.01635179       5.02236216       7.44189509       53       0.11273100       0.64496400      -0.03575200 
I       4.30772530       5.34311922      26.34299255       53      -0.31431700       0.16185400       0.44635800 
I       3.59410911      16.28092087       7.20011589       53       0.03215400      -0.10252600       0.46029300 
I       3.89418991      16.01091426      26.47950497       53       0.19057600       0.32847200       0.37489500 
I       8.75110227       5.46388761       7.60909593       53       0.23677900      -0.75724700      -0.27788900 
I       9.88819471       5.05526918      26.51566143       53      -0.55035000      -0.04752200      -0.24546000 
I       8.25998761      16.22658381       7.71357532       53       0.87460000      -0.84560500      -0.53310300 
I       8.97195871      16.56486751      26.19149703       53       0.49673000      -0.36873400       0.44173800 
I      13.57690143       4.71514073       7.27733863       53       0.40199500      -0.03447600       0.04719500 
I      14.25743539       5.06575806      26.36230384       53       0.41348700      -0.27702100       0.32837600 
I      13.65589761      15.91075592       7.65354612       53      -0.14448300      -0.19991000      -0.12703800 
I      14.73151948      16.25490492      26.94897770       53      -0.11203400       0.24534400       0.00057900 
I      19.37958307       4.73474844       7.45211812       53      -0.64650000      -0.01501100      -0.05205200 
I      19.15647138       5.10833702      26.94165982       53       0.37930900      -0.20191000      -0.20762400 
I      18.90566604      15.52163824       7.67004904       53      -0.23008300       0.45638100       0.29608700 
I      19.10286162      16.34420359      27.03288574       53       0.30183200      -0.16284900       0.17436200 
I       1.45035234       3.48928339       4.20658907       53       0.12412900      -0.52735700      -0.40594200 
I       1.72900411       3.32372764      23.08813587       53      -0.04538900       0.00865100      -0.15995200 
I       1.40454941      13.98687668       4.05433161       53      -0.08746400      -0.08809000      -0.37589100 