40
Lattice="17.937467195897664 -0.15773743296537232 -0.09437444272790013 0.09464419484967312 10.495397897706518 0.03597903657682355 0.046934546655956026 -0.03728362223730296 9.637963536752476" Properties=species:S:1:pos:R:3:forces:R:3 energy=-124.42899305576273 stress="0.0017795201686231369 7.839853765539093e-06 -1.5348359727130824e-05 7.839853765539093e-06 0.0018654787726994583 -2.4971372324376257e-05 -1.5348359727130824e-05 -2.4971372324376257e-05 0.0017605088548356997" free_energy=-124.42899305576273 pbc="T T T"
Cs      -3.58868199       8.30522398       0.78893631       0.00000568       0.00002028      -0.00000678
Cs       2.65548130      17.02512500      -1.62269663      -0.00001287      -0.00000370       0.00000577
Cs      -6.33312374      13.57749541       0.82139498       0.00000003       0.00000603      -0.00001527
Cs       5.39994562      11.75285364      -1.65515100      -0.00000575      -0.00000200       0.00000346
Cs      -3.56520548       8.28660729       5.60791746       0.00000178      -0.00000421       0.00000036
Cs       2.67894342      17.00645311       3.19629522       0.00000014       0.00000424      -0.00000425
Cs      -6.30967616      13.55885563       5.64035454       0.00001459       0.00001620       0.00000989
Cs       5.42342230      11.73422951       3.16382804      -0.00000467      -0.00000173       0.00000384
Pb      -8.38275195       9.18393552      -1.59236959       0.00000083       0.00000074       0.00000195
Pb       7.44954832      16.14648239       0.75858595       0.00000264      -0.00001102      -0.00000485
Pb      -1.54787266      14.37198724      -1.61038557      -0.00001668       0.00001574      -0.00001032
Pb       0.61470312      10.95837291       0.77664104       0.00000107      -0.00003044      -0.00000008
Pb      -8.35928213       9.16527503       3.22661597      -0.00000801       0.00000899       0.00000368
Pb       7.47301295      16.12780224       5.57757135       0.00001793       0.00000859      -0.00000863
Pb      -1.52438787      14.35337183       3.20860268      -0.00002517       0.00000879       0.00000678
Pb       0.63814706      10.93968667       5.59561776       0.00000905       0.00000796      -0.00000492
I       -9.47630851      11.04520409       0.82970249       0.00001452      -0.00001912       0.00001485
I       -9.39436663      14.44293487      -1.56909004       0.00001129      -0.00001058      -0.00000916
I       -0.39730538      16.21319059       0.80034860       0.00000187       0.00001708      -0.00000036
I       -0.53590680       9.11718786      -1.63408753       0.00001986      -0.00004182      -0.00000396
I        6.44267983       7.70319429      -1.67478149       0.00002066       0.00000880      -0.00000013
I       -7.37588286      17.62718950       0.84096560      -0.00001154       0.00001700       0.00001832
I        1.54013890      12.99401516      -1.62978981       0.00000907      -0.00000006       0.00000464
I       -2.47331955      12.33634541       0.79603792       0.00000722      -0.00000533       0.00000094
I       -5.61959653      10.60606128      -1.60223706      -0.00000643       0.00001121       0.00002079
I        4.68641436      14.72431263       0.76844938      -0.00000244      -0.00001392       0.00000488
I       -4.28523821      15.84277548      -1.59086123       0.00001409       0.00000536      -0.00001755
I        3.35205241       9.48754720       0.75711283      -0.00002330       0.00002777       0.00000223
I       -9.45281656      11.02657478       5.64867544      -0.00001352      -0.00000974      -0.00000160
I       -9.37086418      14.42431272       3.24985525      -0.00002356      -0.00001996       0.00001039
I       -0.37385885      16.19458358       5.61935989       0.00000529      -0.00001238       0.00000136
I       -0.51239635       9.09850842       3.18485241      -0.00001181      -0.00001165      -0.00000487
I        6.46614582       7.68456501       3.14423829       0.00002205      -0.00002387      -0.00000588
I       -7.35242092      17.60854654       5.65997185      -0.00001859       0.00000924       0.00000125
I        1.56361610      12.97536667       3.18923766      -0.00000020       0.00002007      -0.00000899
I       -2.44984766      12.31768706       5.61498405      -0.00001216       0.00002491       0.00000460
I       -5.59613400      10.58741491       3.21676120      -0.00000112       0.00000226      -0.00000467
I        4.70987116      14.70565006       5.58745396       0.00001514      -0.00000190      -0.00001449
I       -4.26175216      15.82416661       3.22812332       0.00000345      -0.00002265      -0.00000620
I        3.37551241       9.46890952       5.57607621      -0.00000043       0.00000482       0.00001297
