96
Lattice="19.76724447495627 -0.04387657877439795 0.08439890107144764 0.09974412697874903 11.73561048670788 0.212260732131478 -0.07674616899575837 0.03275067120509932 9.264797504988735" Properties=species:S:1:pos:R:3:forces:R:3 energy=-457.8202325328699 stress="0.0034420005807676147 0.00020919876697259469 0.0001967431764946201 0.00020919876697259469 0.002713738240499024 0.0004663245266109902 0.0001967431764946201 0.0004663245266109902 0.003114406610823111" free_energy=-457.8202325328699 pbc="T T T"
H        7.94067110       0.48232797       4.35368213       0.00002762      -0.00002830       0.00001731
H       12.40503736      12.18637914       1.92214780       0.00000726      -0.00000528      -0.00000292
H        2.54120939       6.38331689       4.02527649       0.00003311       0.00002705       0.00000938
H       17.88719999       6.25813113       2.04068765      -0.00001583      -0.00000612       0.00000570
H        7.78265600       2.61990290       9.93342411      -0.00002759      -0.00000843      -0.00001596
H       12.46935906      10.19023789       0.73427226      -0.00000544       0.00000413      -0.00000541
H        4.22153507       5.63951718      10.04897087       0.00000123      -0.00000010      -0.00000683
H       16.01595895       6.99757340       0.87233610      -0.00000398      -0.00003085       0.00000795
H        5.37087372       1.24368112       3.02937986       0.00001648      -0.00001336       0.00001190
H       14.13266975       9.84901911       1.18583503      -0.00000957      -0.00001493       0.00000505
H        5.10267798       7.16233676       9.92352715      -0.00001157      -0.00000530      -0.00001424
H       15.07381991       5.57239590       1.28647590      -0.00000917       0.00000651      -0.00000208
H        6.26696586       2.95774024       4.55194012       0.00001961      -0.00002476       0.00001237
H       15.15074385      11.43062860       2.83856031       0.00001411       0.00000890       0.00000225
H        4.18862338       8.87390053       3.80547124       0.00003543       0.00001917      -0.00000684
H       16.15004166       3.96390465       2.88296780      -0.00002124      -0.00000919      -0.00000440
H        7.82098091       2.60351349       5.30101608      -0.00002890      -0.00001306      -0.00002635
H       14.23163825      12.88933135       3.18711033       0.00000514       0.00000928       0.00000611
H        2.61561417       8.51210890       3.10111151      -0.00001133       0.00001318      -0.00000989
H       15.97761078       7.01391725       5.50479241      -0.00000512      -0.00000158      -0.00000203
C        7.08420385       1.12741856       4.13270519      -0.00004302       0.00002878      -0.00001324
C       13.30399738      11.56179890       1.96328216      -0.00000074       0.00000974       0.00000597
C        3.39895341       7.03216572       4.23159205      -0.00004655      -0.00002758      -0.00001207
C       16.97416629       5.65287935       2.05026226       0.00002010       0.00001504       0.00000072
N        6.16980005       0.66505416       3.31296191      -0.00002753      -0.00004175      -0.00004393
N       13.30254450      10.44126146       1.27493323       0.00000141       0.00000629      -0.00000214
N        4.30209975       6.58225169       9.64998966       0.00001845       0.00001424       0.00003471
N       15.94565327       6.09955605       1.36726338      -0.00001929       0.00004341      -0.00002264
N        7.04253795       2.31171758       4.70364827       0.00002568       0.00006472       0.00003799
N       14.30392821      11.98826579       2.69879360      -0.00000620      -0.00001527      -0.00001094
N        3.41303023       8.22379913       3.67556155      -0.00000912      -0.00002142       0.00000725
N       16.98894009       4.53603410       2.74286336       0.00006210      -0.00002647       0.00001950
Pb       1.40150348       2.27590484       2.01482676      -0.00000027       0.00000174       0.00000153
Pb      19.01049329      10.37403309       4.36255981      -0.00000865       0.00000069       0.00000362
Pb       9.09544581       8.14029857       1.75965030       0.00000497       0.00000232      -0.00000554
Pb      11.23306984       4.51356173       4.23233735      -0.00001360      -0.00000706      -0.00000096
I        0.41718953       4.34955125       4.31015620      -0.00000036       0.00000564      -0.00000101
I        0.24686012       8.35322649       1.97455292      -0.00000140      -0.00000124      -0.00000333
I       10.11640698      10.18199842       4.09897755       0.00001214      -0.00000158      -0.00001393
I       10.20391134       2.47948222       1.90282526      -0.00000276       0.00000538      -0.00001293
I       18.09690484       0.81132396       1.85002583       0.00000310      -0.00000871       0.00000273
I        2.31848404      11.84283539       4.52058736       0.00000051      -0.00001261      -0.00000081
I       12.13896313       6.65823513       1.89220417       0.00000209       0.00000467      -0.00000546
I        8.18859672       5.99957636       4.10677160      -0.00000115      -0.00000286      -0.00001184
I        4.26648926       3.54127592       2.30715261      -0.00000024      -0.00000044      -0.00000138
I       16.13965418       9.12289680       4.04971962       0.00000046       0.00001286      -0.00000530
I        6.24894295       9.43333527       1.50723062       0.00000318       0.00001082       0.00000432
I       14.08452942       3.23300073       4.51113641      -0.00000253      -0.00000523       0.00000533
H        7.90232274       0.49871802       8.98609157      -0.00000315      -0.00000416       0.00000787
H       12.36662581      12.20270411       6.55450474      -0.00001475       0.00001548      -0.00000113
H        2.50282892       6.39976373       8.65749925      -0.00001582       0.00000653       0.00001550
H       17.84887031       6.27443591       6.67308501      -0.00002054       0.00000675       0.00000697
H        6.25901630      -0.27523404       2.91213401      -0.00001201       0.00001649       0.00001962
H       12.43102825      10.20654541       5.36667833      -0.00003359      -0.00000507      -0.00002146
H        4.25996156       5.62314119       5.41672139       0.00001057       0.00003416      -0.00001081
H       17.80507726       4.29256880       7.87837266      -0.00002416       0.00000290      -0.00000102
H        6.22862015       2.97412893       9.18439462      -0.00002882       0.00001793       0.00000319
H       14.09433765       9.86537284       5.81828038      -0.00005355       0.00004009       0.00001325
H        5.14109782       7.14596040       5.29118349       0.00003393       0.00003013       0.00000327
H       16.11169790       3.98023851       7.51541048      -0.00002205      -0.00000668       0.00001199
H        5.33248549       1.26005943       7.66185989      -0.00001706      -0.00000439      -0.00001434
H       15.11235036      11.44707943       7.47096393      -0.00002665       0.00001317      -0.00000449
H        4.15024671       8.89036231       8.43790040       0.00001459      -0.00000212       0.00000064
H       15.03544393       5.58877370       5.91897527       0.00000797       0.00000250       0.00000255
H        6.22062747      -0.25885391       7.54459628       0.00000762       0.00000450       0.00000367
H       14.19318479      12.90575116       7.81947897       0.00000679      -0.00000899      -0.00000954
H        2.57725692       8.52861479       7.73347015       0.00002486      -0.00002173       0.00002031
H       17.84340626       4.27625438       3.24596848      -0.00001762       0.00000731      -0.00001179
C        7.04584628       1.14380639       8.76513660      -0.00001503       0.00001186      -0.00000253
C       13.26560605      11.57815658       6.59566714      -0.00001444      -0.00000171      -0.00000948
C        3.36056411       7.04860043       8.86387980       0.00000040      -0.00001556       0.00001298
C       16.93582347       5.66920470       6.68269102       0.00003291       0.00000604       0.00000677
N        7.00419764       2.32810919       9.33607505       0.00005058      -0.00002158       0.00001380
N       13.26419802      10.45760231       5.90734566       0.00007626      -0.00003792      -0.00000138
N        4.34051034       6.56586396       5.01770378      -0.00002907      -0.00004005       0.00001668
N       16.95059984       4.55235938       7.37529210       0.00003449      -0.00001050      -0.00001931
N        6.13141832       0.68143409       7.94542443       0.00001217      -0.00002843       0.00000703
N       14.26551085      12.00467763       7.33118087       0.00006135      -0.00001530       0.00002030
N        3.37465878       8.24026729       8.30792254      -0.00003287       0.00001886      -0.00003969
N       15.90729673       6.11590651       5.99972895      -0.00001970       0.00001369      -0.00000990
Pb       1.36309640       2.29227229       6.64722511       0.00000965      -0.00000725      -0.00000560
Pb      18.97209669      10.39042715       8.99496708       0.00001121      -0.00000418      -0.00000154
Pb       9.05709087       8.15667605       6.39204196      -0.00000295       0.00000150      -0.00000063
Pb      11.19465636       4.52992964       8.86473178       0.00000886       0.00000157       0.00000201
I        0.37885003       4.36593870       8.94256147      -0.00000691       0.00000727      -0.00000456
I        0.20847440       8.36960566       6.60696079      -0.00000133      -0.00000324       0.00000265
I       10.07801239      10.19837490       8.73136659       0.00001484       0.00000572       0.00001319
I       10.16551558       2.49586791       6.53520215       0.00000511      -0.00000742      -0.00000420
I       18.05850534       0.82768461       6.48241103       0.00001100      -0.00000754       0.00001126
I        2.28009619      11.85920203       9.15298037       0.00000472       0.00000122       0.00000052
I       12.10062352       6.67460577       6.52462160      -0.00001500      -0.00000409      -0.00000432
I        8.15020043       6.01595916       8.73916765       0.00000695      -0.00000028      -0.00000390
I        4.22809558       3.55760026       6.93955102       0.00000767       0.00001033       0.00001221
I       16.10124778       9.13932905       8.68210960      -0.00000410      -0.00000875       0.00000183
I        6.21061285       9.44974392       6.13962283      -0.00000238       0.00000920       0.00000391
I       14.04613199       3.24938969       9.14353501      -0.00000201       0.00000065       0.00001036
