96
Lattice="19.70356879095237 -0.23367326464072485 -0.035645177619543104 -0.08364967467949559 11.727106383854538 0.07999830989193388 -0.04209238853562361 -0.06063033968549581 9.167677147168684" Properties=species:S:1:pos:R:3:forces:R:3 energy=-457.9148189591277 stress="0.0032543438708672826 -0.0003770367934460424 0.00036524790948832625 -0.0003770367934460424 0.002155741166678192 -5.496444452434818e-05 0.00036524790948832625 -5.496444452434818e-05 0.0022278399631035324" free_energy=-457.9148189591277 pbc="T T T"
H        7.57016718       0.72861422       3.60438454      -0.00002741       0.00002866      -0.00001190
H       11.95350779      12.40342575       1.00978877      -0.00000776       0.00001396      -0.00000269
H        2.07412493       6.68714846       3.21980100      -0.00000478      -0.00001798      -0.00000143
H       17.44950840       6.44483566       1.39448505      -0.00002167      -0.00000918      -0.00001200
H        7.48232986       2.78222324       9.21236130       0.00004658       0.00003136       0.00000441
H       12.02023899      10.31951013      -0.01411484       0.00000221      -0.00000801       0.00000682
H        3.79577009       5.86611314       9.14997006      -0.00000490       0.00000877      -0.00000124
H       15.70679420       7.23562784       0.04800643      -0.00000028       0.00001454      -0.00001429
H        4.96313665       1.54963257       2.38994867      -0.00003184       0.00002797      -0.00002006
H       13.60012447       9.92686017       0.65305925       0.00002581      -0.00000807      -0.00000745
H        4.68548222       7.38159784       9.02393439       0.00003342       0.00001882       0.00000374
H       14.81710475       5.72012642       0.17403237      -0.00001810      -0.00001707      -0.00000660
H        5.92342477       3.20505593       3.96143382       0.00000655       0.00000526       0.00000469
H       14.56049416      11.58241463       2.22432447      -0.00002409       0.00001941      -0.00000602
H        3.75215301       9.15473252       2.97091929       0.00001480       0.00000113       0.00000261
H       15.77142976       3.97726768       1.64319226      -0.00000810      -0.00001661      -0.00000174
H        7.50336439       2.81242584       4.62849198      -0.00002670       0.00000303      -0.00000089
H       13.68295342      13.10152353       2.41495690      -0.00001509       0.00000236       0.00000740
H        2.15956066       8.81999532       2.30065677       0.00000224       0.00000122       0.00001504
H       15.68569799       7.20525248       4.63180637       0.00000752       0.00001729      -0.00001107
C        6.71229742       1.38733848       3.43370416       0.00005423      -0.00001027       0.00002394
C       12.81134528      11.74468296       1.18054640       0.00001380      -0.00001676       0.00001140
C        2.94341112       7.32485710       3.41224397       0.00001924       0.00000077       0.00001064
C       16.58020964       5.80715488       1.20200089      -0.00000342       0.00000090       0.00000268
N        5.76447857       0.95789679       2.63393695       0.00003088      -0.00000058       0.00004509
N       12.81983157      10.57972291       0.57090127      -0.00000887       0.00001772      -0.00001610
N        3.87372528       6.81231671       8.75988470      -0.00002644      -0.00000553       0.00000555
N       15.62885067       6.28942195       0.43808742       0.00002320       0.00000621       0.00002228
N        6.70376354       2.55223104       4.04347783       0.00000816       0.00000057      -0.00002383
N       13.75917945      12.17416578       1.98027401       0.00000186      -0.00002693      -0.00000697
N        2.96025725       8.52019982       2.86381920      -0.00000128       0.00000293      -0.00001306
N       16.56333535       4.61177823       1.75035080       0.00000551       0.00003091      -0.00001043
Pb       1.05651576       2.62639393       1.26682468       0.00001300       0.00000703      -0.00000008
Pb      18.46712841      10.50563847       3.34738402      -0.00000113       0.00000372       0.00000898
Pb       8.67696268       8.39136481       1.05397804      -0.00000527       0.00001096      -0.00000008
Pb      10.84666534       4.74065778       3.56029428       0.00000223       0.00000468       0.00000271
I        0.00989031       4.66361405       3.55511366       0.00000139       0.00000945       0.00000470
I       -0.18986336       8.70206957       1.09472975      -0.00001246       0.00000665       0.00000407
I        9.66592703      10.44296103       3.37503243       0.00000853      -0.00000594       0.00000637
I        9.85769866       2.68907192       1.23923266       0.00000417      -0.00001271       0.00000764
I       17.69108829       0.97146790       1.01687087      -0.00000031      -0.00000650       0.00000150
I        1.83254755      12.16056342       3.59734271      -0.00000217      -0.00000362       0.00000047
I       11.73004866       6.93785353       1.25288763       0.00000123      -0.00001078      -0.00000687
I        7.79357686       6.19418359       3.36138446      -0.00000274      -0.00000384       0.00000525
I        3.91809965       3.88043145       1.55955402      -0.00001551       0.00000584      -0.00000541
I       15.60552443       9.25161858       3.05467331       0.00000596       0.00000110      -0.00000381
I        5.82536384       9.69533523       0.75621271      -0.00000952       0.00000053      -0.00001104
I       13.69825235       3.43667803       3.85805522       0.00000286       0.00000028       0.00000596
H        7.54911815       0.69834026       8.18840475      -0.00000901       0.00000050      -0.00000691
H       11.93237358      12.37303837       5.59354571      -0.00001699       0.00001365       0.00000522
H        2.05302956       6.65695105       7.80355195       0.00004040       0.00001561       0.00001901
H       17.42848539       6.41455217       5.97823601      -0.00000666       0.00001437       0.00000554
H        5.84073007       0.03057326       2.19918654      -0.00000765      -0.00004825      -0.00001021
H       11.99921378      10.28913941       4.56962209       0.00003033       0.00000987       0.00001382
H        3.81685583       5.89646813       4.56631789      -0.00000370      -0.00003618       0.00000026
H       17.34306592       4.28171398       6.89739496      -0.00000421      -0.00000796       0.00000629
H        5.90244668       3.17486495       8.54518239      -0.00004011       0.00001373       0.00000375
H       13.57911591       9.89655682       5.23679963       0.00000678      -0.00000573       0.00000188
H        4.70651307       7.41198360       4.44021580      -0.00001868      -0.00000479      -0.00001146
H       15.75043244       3.94699477       6.22722001      -0.00002327      -0.00001494      -0.00000823
H        4.94214812       1.51934384       6.97382557       0.00002758      -0.00004034      -0.00000123
H       14.53935727      11.55211778       6.80814649      -0.00000593      -0.00000288      -0.00000854
H        3.73114428       9.12449028       7.55480061       0.00002299       0.00002626       0.00001094
H       14.79602836       5.68974612       4.75795307       0.00002141       0.00002498       0.00000355
H        5.81970545       0.00024543       6.78319207       0.00001226      -0.00002226      -0.00002877
H       13.66176215      13.07119253       6.99876294      -0.00000973      -0.00000049      -0.00000424
H        2.13851987       8.78985964       6.88456197      -0.00004029       0.00000445      -0.00004784
H       17.36402401       4.31192912       2.31349297       0.00001554      -0.00000529       0.00002143
C        6.69127373       1.35707447       8.01764365      -0.00000517      -0.00000608      -0.00000827
C       12.79023427      11.71432938       5.76431557       0.00002910      -0.00000456       0.00001880
C        2.92234733       7.29461405       7.99601389      -0.00004613      -0.00004195      -0.00000864
C       16.55917869       5.77685591       5.78584130      -0.00000132       0.00000039      -0.00000055
N        6.68275425       2.52201738       8.62732081      -0.00002154      -0.00005148      -0.00002818
N       12.79879122      10.54938325       5.15464570      -0.00002992      -0.00001064      -0.00002038
N        3.89477982       6.84265506       4.17618607       0.00001550       0.00005452      -0.00001072
N       16.54234327       4.58151622       6.33427323       0.00001228       0.00000847       0.00000390
N        5.74346535       0.92759735       7.21788201      -0.00000360       0.00004655       0.00004064
N       13.73802634      12.14383890       6.56407902       0.00000003       0.00000122       0.00000355
N        2.93922024       8.48999686       7.44767846       0.00002960      -0.00004535       0.00003836
N       15.60777726       6.25906915       5.02194768      -0.00002582      -0.00003359       0.00000794
Pb       1.03545540       2.59606951       5.85065796       0.00000831       0.00000759      -0.00000937
Pb      18.44605900      10.47532675       7.93122497       0.00000652       0.00001209       0.00000106
Pb       8.65589562       8.36107225       5.63782134      -0.00000084       0.00000873      -0.00000395
Pb      10.82561755       4.71033580       8.14412345       0.00000773       0.00001162       0.00000119
I       -0.01108796       4.63332408       8.13896774      -0.00000470       0.00000345      -0.00002082
I       -0.21090019       8.67176668       5.67857303      -0.00000605       0.00000716       0.00001094
I        9.64490681      10.41264678       7.95888750      -0.00000753      -0.00000360       0.00000016
I        9.83664533       2.65874943       5.82306332      -0.00000430      -0.00000033       0.00001102
I       17.67003931       0.94115600       5.60070549       0.00000318      -0.00001088       0.00000272
I        1.81149214      12.13025745       8.18117574       0.00000109      -0.00000497      -0.00000323
I       11.70898958       6.90754369       5.83673032      -0.00000127      -0.00000610       0.00000195
I        7.77252827       6.16385894       7.94521325       0.00000486      -0.00000455       0.00000127
I        3.89707658       3.85006826       6.14337606      -0.00001572      -0.00000096       0.00001217
I       15.58445408       9.22135091       7.63851437      -0.00000631      -0.00000628      -0.00000526
I        5.80431124       9.66506852       5.34007337       0.00000920       0.00000939      -0.00001630
I       13.67721867       3.40636307       8.44188572       0.00000623       0.00000215      -0.00000313
