768
Lattice="39.752234877220715 0.018098040130557276 0.23857123289509058 0.011986823753012701 23.473823132609837 0.46518865634276974 -0.15229296499885764 -0.20950384106830308 18.691998507703193" Properties=species:S:1:pos:R:3:forces:R:3 energy=-3661.9572499812784 stress="0.003976397703775631 -6.493459948263195e-05 -6.35480910743873e-06 -6.493459948263195e-05 0.0035714835108747217 -0.0002323346368082182 -6.35480910743873e-06 -0.0002323346368082182 0.0038200715418743054" free_energy=-3661.9572499812784 pbc="T T T"
H        8.07369311      11.59556411       5.57904197      -0.00000002      -0.00000218      -0.00000320
H       12.69553935      11.73272746       3.16490696       0.00001638      -0.00000428      -0.00000081
H        2.77697874       5.76174790       5.27171090      -0.00000009       0.00000649      -0.00000383
H       18.08544337       5.82531670       3.06549589      -0.00000683       0.00000143      -0.00001481
H        8.05719678      13.79322785       1.79889032      -0.00000713      -0.00001309      -0.00001042
H       14.38801418      12.48619683       1.73731532      -0.00000364       0.00000808       0.00000153
H        2.46374411       7.64385728       2.01929309      -0.00001238      -0.00000173       0.00000453
H       16.26457003       6.38239038       4.41249352      -0.00000225      -0.00000062       0.00000319
H        6.61276088       2.45982931       5.49732997      -0.00000936      -0.00000061       0.00000348
H       15.26247277      10.95597398       1.84748252      -0.00000437       0.00000890       0.00000052
H        4.14336910       8.16237725       1.89319637      -0.00000852       0.00000267       0.00000592
H       15.49106282       4.81606922       4.16523135       0.00000243       0.00000009       0.00001181
H        5.56497607       0.90307642       3.87235647       0.00000236       0.00000055      -0.00000486
H       14.32904950       9.22746205       3.32019892      -0.00000440      -0.00000236       0.00000180
H        5.57814589       6.80016935       5.06263030      -0.00000065       0.00000893      -0.00000114
H       16.59514386       3.27832468       2.55125191       0.00000480      -0.00000662       0.00001504
H        6.34305573      -0.66800298       3.66891224      -0.00000287       0.00000309       0.00000161
H       12.40977424      21.66841603       1.88815770       0.00000717      -0.00001137       0.00000909
H        4.85635538       5.36778019       4.33478931       0.00000014       0.00000328       0.00000311
H       16.22650873       6.33015320       9.08536696      -0.00000645      -0.00000671      -0.00000435
C        7.29349467       0.61093937       4.92582408       0.00000369      -0.00001285      -0.00000379
C       13.54388672      11.07877362       2.93869231      -0.00004003       0.00001546       0.00000767
C        3.59959492       6.45360906       5.48324085       0.00000691      -0.00000849      -0.00000590
C       17.26117834       5.11344462       3.18246028      -0.00000066       0.00000268      -0.00001088
N        7.35639400       1.76340688       5.55718919       0.00001275       0.00000916       0.00001228
N       14.46776862      11.54002911       2.12807264       0.00001780      -0.00000275      -0.00001342
N        3.39478644       7.52082611       1.60960741       0.00001971      -0.00000438      -0.00000785
N       16.25992149       5.46271847       3.95540569       0.00000178       0.00000510      -0.00000891
N        6.32471339       0.25695372       4.11441432      -0.00000487       0.00000242       0.00000007
N       13.56814366       9.88666541       3.49438545       0.00001178      -0.00000744       0.00000070
N        4.75874697       6.20877536       4.91558340       0.00000178      -0.00001151       0.00000309
N       17.34724290       3.96834706       2.54069029      -0.00001064      -0.00001029       0.00001826
Pb       1.71803569       1.89756797       2.83373736       0.00000043      -0.00000098      -0.00000188
Pb      19.11331347       9.81731874       5.74258166       0.00000162      -0.00000210      -0.00000533
Pb       9.49002955       7.57642674       2.86111097       0.00000357      -0.00000049       0.00000135
Pb      11.60799056       3.89238485       5.15793302      -0.00000120      -0.00000250      -0.00000853
I        0.61204227       3.85806244       5.19441185      -0.00000256      -0.00000170      -0.00000550
I        0.25166560       7.88573602       3.41704621      -0.00000251      -0.00000449      -0.00000147
I       10.40117584       9.61598755       5.23029093      -0.00000021       0.00000007      -0.00000274
I       10.53007684       1.93752482       2.77770369      -0.00000430       0.00000574       0.00000503
I       18.56865933       0.34972991       3.17599196      -0.00000195       0.00000637       0.00000349
I        2.30023567      11.33176160       5.86262589       0.00000047       0.00000169      -0.00000302
I       12.51885322       6.06238243       2.84736468       0.00000304       0.00000829      -0.00000348
I        8.59342902       5.41402696       5.16176286      -0.00000089      -0.00000503       0.00000054
I        4.58096232       3.21848329       2.89166904       0.00000107       0.00000283      -0.00000173
I       16.26797447       8.48996385       5.90460701       0.00000608       0.00000529      -0.00000175
I        6.59464351       8.78300800       2.67479018      -0.00000369       0.00000304      -0.00000910
I       14.46499076       2.55534171       5.22409740       0.00000165       0.00000129      -0.00000490
H        8.03566998      11.54324630      10.25200187       0.00000446      -0.00001073       0.00000718
H       12.65745913      11.68039365       7.83785734      -0.00000050      -0.00000460       0.00000185
H        2.73889526       5.70939036       9.94470068       0.00000045      -0.00000514      -0.00000178
H       18.04730678       5.77295986       7.73830466       0.00000234      -0.00000802      -0.00000091
H        8.01915391      13.74079225       6.47188853       0.00000740       0.00000706       0.00000497
H       12.74222521       9.54189839       8.75291146      -0.00000906      -0.00000255       0.00001250
H        2.42565424       7.59147097       6.69233485       0.00001476       0.00000186      -0.00000839
H       18.14521961       3.71545159       6.65658413      -0.00002832       0.00000544       0.00000928
H        6.57465077       2.40730383      10.17070726      -0.00000125       0.00000544      -0.00001138
H       14.29098274       9.17513733       7.99316274      -0.00000359       0.00000068       0.00000114
H        4.10528055       8.10998796       6.56623517       0.00000598       0.00000974       0.00000082
H       16.55715500       3.22575314       7.22471950      -0.00001795      -0.00001931       0.00000613
H        5.52686328       0.85076762       8.54548147      -0.00000549      -0.00000852      -0.00000945
H       15.22441510      10.90365997       6.52046692      -0.00001246       0.00000541      -0.00000528
H        5.54008054       6.74776100       9.73561758      -0.00001316      -0.00000746      -0.00000389
H       15.45305263       4.76376238       8.83837804      -0.00000409      -0.00001001       0.00001253
H        6.30495831      -0.72027726       8.34183279      -0.00000207      -0.00000596       0.00000905
H       14.78653584      23.82477434       8.94882241      -0.00000585       0.00000348      -0.00000421
H        4.81826544       5.31537429       9.00779155       0.00001272      -0.00001621      -0.00000892
H       18.10722154       3.66319058      11.32954558       0.00000769      -0.00000136      -0.00000764
C        7.25543220       0.55853327       9.59884712       0.00000172      -0.00000538      -0.00000224
C       13.50581139      11.02644382       7.61165132      -0.00000688      -0.00001290       0.00001482
C        3.56152280       6.40123887      10.15622708      -0.00000517       0.00000543       0.00000694
C       17.22309561       5.06105827       7.85546367       0.00000035       0.00000132       0.00000058
N        7.31833053       1.71091221      10.23037455       0.00000503       0.00000080      -0.00000726
N       13.53007064       9.83433524       8.16734373       0.00001011       0.00000575      -0.00000303
N        3.35669592       7.46844022       6.28264500      -0.00001930       0.00000183       0.00001846
N       17.30918753       3.91583868       7.21391483       0.00004066       0.00001265      -0.00001659
N        6.28661949       0.20462954       8.78743891       0.00000763       0.00000037       0.00000636
N       14.42969926      11.48770553       6.80104177       0.00001344      -0.00000758       0.00000193
N        4.72067345       6.15637536       9.58857993       0.00000446       0.00003439       0.00001862
N       16.22186783       5.41041766       8.62840748      -0.00000147       0.00001322      -0.00000105
Pb       1.67994740       1.84518298       7.50673539      -0.00000122       0.00000654      -0.00000125
Pb      19.07522409       9.76497122      10.41557388      -0.00000025      -0.00000638      -0.00000490
Pb       9.45195624       7.52403690       7.53411483       0.00000336       0.00000505       0.00000007
Pb      11.56993089       3.84002560       9.83093013       0.00000313       0.00000266       0.00000454
I        0.57395820       3.80568217       9.86741110       0.00000155       0.00000078       0.00000604
I        0.21357727       7.83336147       8.09005439      -0.00000444       0.00000216      -0.00000218
I       10.36311761       9.56361645       9.90327356      -0.00000660       0.00000525      -0.00000011
I       10.49200352       1.88515322       7.45073684      -0.00000679       0.00000116      -0.00000860
I       18.53057445       0.29734904       7.84902491       0.00000041       0.00000001      -0.00000064
I        2.26215640      11.27938982      10.53562118       0.00000105      -0.00000237      -0.00001055
I       12.48078100       6.01000626       7.52035864       0.00000224       0.00000646      -0.00001188
I        8.55539039       5.36163004       9.83478434      -0.00000516      -0.00000086      -0.00000370
I        4.54284527       3.16610395       7.56465432       0.00000142       0.00000559      -0.00000036
I       16.22987666       8.43765143      10.57759712       0.00000874       0.00000457       0.00000148
I        6.55656861       8.73062730       7.34779494      -0.00000391      -0.00000289      -0.00000317
I       14.42698779       2.50300542       9.89710693      -0.00000331       0.00000078      -0.00000390
H        7.99756813      11.49084546      14.92504951      -0.00000150       0.00000640       0.00000366
H       12.61937434      11.62807378      12.51088462      -0.00000049      -0.00000450       0.00000337
H        2.70084339       5.65700644      14.61766862       0.00000184      -0.00000691      -0.00000447
H       18.00924445       5.72061994      12.41140604       0.00000968       0.00000780      -0.00000931
H        7.98109203      13.68847162      11.14484448      -0.00000388      -0.00000185       0.00000256
H       14.31185256      12.38152236      11.08329243      -0.00000254      -0.00000439      -0.00000608
H        2.38759383       7.53913231      11.36529946      -0.00001295       0.00000885       0.00001107
H       16.18834939       6.27774453      13.75835545       0.00000042       0.00000187       0.00000335
H        6.53659796       2.35499382      14.84355531       0.00001078      -0.00001200      -0.00000255
H       15.18630801      10.85129769      11.19347533      -0.00000265       0.00000558      -0.00000525
H        4.06722750       8.05762765      11.23920033      -0.00000552      -0.00000417       0.00000386
H       15.41490337       4.71137105      13.51122923       0.00001248       0.00001279       0.00000559
H        5.48876871       0.79832999      13.21849534      -0.00000409      -0.00000379      -0.00000388
H       14.25287873       9.12280659      12.66621537       0.00000350      -0.00000480      -0.00000273
H        5.50201354       6.69542738      14.40862234       0.00000734       0.00000569      -0.00000231
H       16.51910032       3.17347050      11.89750209       0.00001314       0.00000808       0.00001540
H        6.26685889      -0.77272738      13.01493657      -0.00000102      -0.00001043      -0.00000518
H       12.33362218      21.56363469      11.23423961       0.00001370       0.00000436       0.00000461
H        4.78023540       5.26303457      13.68077517      -0.00000584      -0.00000365       0.00000447
H       16.15031048       6.22528748      18.43135934       0.00000131       0.00001412      -0.00000264
C        7.21734448       0.50616078      14.27186560      -0.00002506      -0.00002930      -0.00003332
C       13.46771905      10.97411383      12.28467991       0.00001194       0.00000263       0.00000041
C        3.52345805       6.34886640      14.82920724       0.00004061      -0.00002129      -0.00002733
C       17.18501789       5.00871782      12.52845365       0.00001276      -0.00002558      -0.00002513
N        7.28026047       1.65859023      14.90329818      -0.00002711       0.00002722      -0.00000451
N       14.39160362      11.43535685      11.47405615      -0.00000243       0.00000284      -0.00000053
N        3.31863549       7.41608452      10.95561725       0.00002403      -0.00000765      -0.00001668
N       16.18373400       5.35803497      13.30134360      -0.00002501      -0.00001097       0.00000476
N        6.24852256       0.15220445      13.46049026       0.00003146       0.00002884       0.00003190
N       13.49197224       9.78201227      12.84038764      -0.00001002      -0.00000913       0.00001677
N        4.68261933       6.10402873      14.26156865      -0.00003204       0.00000586       0.00001322
N       17.27115216       3.86354104      11.88683313      -0.00002970       0.00000291       0.00002063
Pb       1.64187292       1.79280971      12.17972927      -0.00000573      -0.00000285       0.00000140
Pb      19.03715223       9.71258255      15.08856668       0.00000345      -0.00000165       0.00000177
Pb       9.41389359       7.47168747      12.20710541       0.00000013      -0.00000323      -0.00000135
Pb      11.53185310       3.78766750      14.50393349       0.00000187       0.00000174      -0.00000226
I        0.53590260       3.75331334      14.54040513      -0.00000313      -0.00000155       0.00000408
I        0.17550774       7.78098503      12.76303391      -0.00000170       0.00000128      -0.00000153
I       10.32501546       9.51126121      14.57628555       0.00000109       0.00000072       0.00000382
I       10.45399799       1.83276362      12.12374018      -0.00000022       0.00000088      -0.00000105
I       18.49251324       0.24496749      12.52201706       0.00000660      -0.00000368       0.00000208
I        2.22409351      11.22701736      15.20861628      -0.00000117      -0.00000652       0.00000225
I       12.44271824       5.95764870      12.19335202      -0.00000035       0.00000771      -0.00000254
I        8.51730884       5.30926485      14.50775813      -0.00000311       0.00000194       0.00000155
I        4.50479499       3.11373014      12.23765974       0.00000770      -0.00000163       0.00000332
I       16.19180791       8.38525788      15.25057731       0.00000407       0.00000056       0.00000226
I        6.51850575       8.67826890      12.02077098      -0.00000228      -0.00000692       0.00000176
I       14.38888585       2.45060763      14.57008726       0.00000395      -0.00000064      -0.00000024
H        8.11178487      11.64799458       0.90605441      -0.00000172       0.00000625       0.00000875
H       12.58129739      11.57564514      17.18390468      -0.00000213       0.00000287       0.00000443
H        2.81507878       5.81412789       0.59867708       0.00000022       0.00000451      -0.00000069
H       17.97122649       5.66818565      17.08443176       0.00001907       0.00000879      -0.00001997
H        7.94301252      13.63606915      15.81790101      -0.00001859       0.00000385      -0.00001065
H       12.66608388       9.43715986      18.09897290      -0.00000781      -0.00000774       0.00001591
H        2.34950357       7.48673177      16.03828373       0.00000522       0.00000268      -0.00000349
H       18.06914232       3.61084202      16.00240180       0.00000145       0.00000923       0.00000896
H        6.65078625       2.51214287       0.82440195       0.00001793      -0.00000988      -0.00000049
H       14.21485028       9.07040909      17.33923831      -0.00000912       0.00000133       0.00000155
H        4.02912949       8.00525197      15.91219869      -0.00000435      -0.00000272      -0.00000237
H       16.48096778       3.12115807      16.57024248       0.00001842       0.00001282       0.00001707
H        5.60301283       0.95545325      -0.80064994      -0.00000353      -0.00000588       0.00000173
H       15.14825538      10.79892631      15.86650975       0.00000897      -0.00001144      -0.00000805
H        5.61624180       6.85256152       0.38959948      -0.00000642      -0.00000206       0.00000178
H       15.37681109       4.65896392      18.18410512       0.00002766       0.00001814       0.00000331
H        6.38109822      -0.61561678      -1.00414953       0.00000104      -0.00000488       0.00000630
H       14.71042732      23.71998778      18.29477128      -0.00000821       0.00001091       0.00000067
H        4.89445895       5.42016598      -0.33823780      -0.00000151       0.00000475       0.00001182
H       18.18330605       3.76801742       1.98338541       0.00000453      -0.00000946       0.00000350
C        7.33154288       0.66329072       0.25279248       0.00001389      -0.00000482       0.00000166
C       13.42965798      10.92170415      16.95770520       0.00001697      -0.00001393      -0.00000826
C        3.63769210       6.50599206       0.81020832      -0.00002690       0.00000732       0.00001395
C       17.14696403       4.95631116      17.20139342      -0.00000521      -0.00000684      -0.00000399
N        7.39443796       1.81573349       0.88420393      -0.00002584       0.00001250      -0.00001265
N       13.45393174       9.72960156      17.51341095       0.00001251       0.00000427      -0.00001758
N        3.28054885       7.36370140      15.62860275      -0.00000614       0.00002687       0.00003279
N       17.23306292       3.81118576      16.55967829      -0.00002018      -0.00003688       0.00000231
N        6.36275501       0.30932639      -0.55861867      -0.00000366       0.00000780       0.00000455
N       14.35353949      11.38296864      16.14708986      -0.00002340       0.00000848       0.00001050
N        4.79684737       6.26115962       0.24255789       0.00002132      -0.00000877      -0.00001434
N       16.14567298       5.30561052      17.97428272      -0.00003996      -0.00001437       0.00001694
Pb       1.60379590       1.74043379      16.85273282       0.00000503      -0.00000003      -0.00000207
Pb      19.15137393       9.86968651       1.06956970       0.00000284      -0.00000839       0.00000535
Pb       9.37580573       7.41931067      16.88010487      -0.00000560      -0.00000149       0.00000190
Pb      11.64605935       3.94477793       0.48493769      -0.00000346       0.00000372      -0.00000458
I        0.65012622       3.91044310       0.52140668      -0.00000661       0.00000005       0.00000737
I        0.13743424       7.72859853      17.43604027       0.00000185       0.00000078      -0.00000424
I       10.43923923       9.66837573       0.55728030       0.00000106       0.00000329       0.00000467
I       10.41590447       1.78039802      16.79671236      -0.00000256      -0.00000371       0.00000097
I       18.45445877       0.19259671      17.19500987       0.00000220       0.00000085      -0.00000256
I        2.33831226      11.38413839       1.18961673      -0.00000224      -0.00000070      -0.00000087
I       12.40462421       5.90527900      16.86636764       0.00001460       0.00000821      -0.00001185
I        8.63151035       5.46640277       0.48876110       0.00000218      -0.00000743      -0.00000166
I        4.46672128       3.06135978      16.91065579       0.00000653      -0.00000005      -0.00000558
I       16.30604530       8.54230811       1.23158810       0.00000850       0.00000829      -0.00000349
I        6.48041506       8.62589665      16.69377386      -0.00000056      -0.00000977      -0.00000818
I       14.50307960       2.60772283       0.55106203       0.00000476       0.00000382       0.00000777
H        8.10848604      -0.10345677       5.08446018       0.00000019       0.00000200       0.00000608
H       12.75850610      23.50366248       3.30336032      -0.00000634       0.00001994       0.00000634
H        2.69685055      17.50181319       5.34720330      -0.00000508       0.00000091      -0.00000734
H       18.06441620      17.66620001       3.06790967      -0.00000098      -0.00000492       0.00000399
H        8.20553500       2.02133850       1.47438004       0.00002011      -0.00000006       0.00000890
H       14.82459788      23.87717271       4.27572080      -0.00002279      -0.00000383       0.00000006
H        2.85657028      19.69045285      -0.24971254       0.00001079      -0.00000202       0.00001389
H       16.34058085      18.42334138       4.44967502       0.00000329       0.00002362       0.00000959
H        6.42865167      14.08692160       5.78862000      -0.00000331       0.00000622      -0.00000074
H       15.54383235      22.43431670       3.56237372      -0.00001168       0.00000924       0.00000241
H        4.39153443      20.04549460       0.54365922       0.00001716       0.00001978       0.00001148
H       15.43773240      16.91344660       4.27847106       0.00001548       0.00000618       0.00000055
H        5.43987409      12.33714932       4.37714848      -0.00000936       0.00000287      -0.00000330
H       14.08101525      21.13157697       2.04891965       0.00000066       0.00001798       0.00000015
H        5.23750247      18.27192129       6.71798511      -0.00000278       0.00000952      -0.00000731
H       16.39346865      15.19646965       2.80092121      -0.00000827      -0.00000925      -0.00001251
H        6.33526207      10.81959795       4.22719533       0.00000026       0.00000397      -0.00000013
H       12.78029940       9.59423351       4.07995785      -0.00000188      -0.00000146       0.00000385
H        4.35269691      16.74618644       6.81690873       0.00000053       0.00000035       0.00000181
H       16.30256023      18.37091533       9.12266412       0.00000038      -0.00000084       0.00000475
C        7.20783605      12.23808089       5.38951356      -0.00000086       0.00002134       0.00001570
C       13.57637625      22.80115048       3.11020728       0.00000560      -0.00000827       0.00000268
C        3.54476329      18.15097815       5.58744787       0.00000048       0.00000348       0.00000721
C       17.19628019      17.02481995       3.24991583      -0.00000003       0.00000524       0.00000630
N        7.20151027      13.43558149       5.93516771      -0.00000700      -0.00001575      -0.00001167
N       14.72870266      23.03497369       3.69640502       0.00003303      -0.00001151       0.00000554
N        3.62944781      19.39203032       0.35253980      -0.00003996      -0.00002860      -0.00001886
N       16.24886888      17.49025532       4.02980691      -0.00001319      -0.00003413      -0.00000156
N        6.24804768      11.75958158       4.63292011       0.00001295      -0.00001327      -0.00000018
N       13.33549587      21.78484830       2.31229898      -0.00001577      -0.00000143      -0.00002547
N        4.44694692      17.68862321       6.42173856       0.00000541       0.00000374      -0.00000448
N       17.17453987      15.84179809       2.67380298       0.00001685       0.00000226      -0.00000645
Pb       1.47864626      13.50831174       3.55717515      -0.00000132       0.00000157      -0.00000181
Pb      19.43296096      21.65720874       5.98504024       0.00001176      -0.00000677       0.00000232
Pb       9.21313896      19.36394649       2.76188376      -0.00000441      -0.00000187       0.00000155
Pb      11.43169672      15.76132538       5.14420526      -0.00001503      -0.00000053      -0.00000591
I        0.49253194      15.53954455       5.89607948      -0.00000383      -0.00000481       0.00000386
I        0.47579898      19.69392777       3.19402392      -0.00000683       0.00000098      -0.00000220
I       10.18218662      21.37331352       5.14965746      -0.00000542      -0.00000134       0.00000309
I       10.49995251      13.73070786       2.78358657       0.00000379       0.00000159       0.00000323
I       18.24521516      11.99600552       3.39315565      -0.00000379      -0.00000037      -0.00000138
I        2.58057942      23.19921471       5.62090148       0.00000292      -0.00000474      -0.00000222
I       12.28334419      17.94514475       2.82562644       0.00000226      -0.00000372      -0.00000257
I        8.33973354      17.18219944       5.09388927       0.00000642       0.00000497       0.00000243
I        4.37891366      14.71806511       3.70710088      -0.00000155      -0.00000069      -0.00000237
I       16.52936766      20.46125371       6.02347011       0.00000117      -0.00000219       0.00000341
I        6.36192027      20.69490738       2.62742089       0.00000445       0.00000217      -0.00000416
I       14.33258086      14.55158149       4.92322501       0.00000313       0.00000731       0.00000021
H        8.07045625      -0.15585842       9.75733954      -0.00000237      -0.00000204       0.00000621
H       12.72044115      23.45132186       7.97645249       0.00000303      -0.00000772      -0.00000731
H        2.65877917      17.44946471      10.02015422      -0.00000520       0.00000137      -0.00000131
H       18.02638654      17.61379221       7.74087901       0.00000843       0.00000448      -0.00000175
H        8.16748351       1.96902586       6.14737144      -0.00000458      -0.00000659      -0.00000578
H       12.37169053      21.61611917       6.56118567      -0.00001049       0.00000332       0.00000053
H        2.81851384      19.63806529       4.42331862      -0.00000690      -0.00000583      -0.00000251
H       17.94150536      15.49388368       6.78625450       0.00000591      -0.00000456       0.00000035
H        6.39056441      14.03455923      10.46160992       0.00001721      -0.00000900       0.00000021
H       14.04292952      21.07927083       6.72192419      -0.00000394       0.00000725       0.00000250
H        4.35345977      19.99311885       5.21672165      -0.00000964       0.00000311      -0.00000949
H       16.35535795      15.14413566       7.47370785       0.00000733       0.00000327      -0.00000456
H        5.40179265      12.28474260       9.05018179       0.00002097      -0.00000907       0.00000092
H       15.50575287      22.38192947       8.23543722       0.00000327      -0.00000455      -0.00000274
H        5.19940675      18.21958220      11.39097706      -0.00000209       0.00000076      -0.00000669
H       15.39967918      16.86104766       8.95139504       0.00000190      -0.00000047       0.00000498
H        6.29722065      10.76721796       8.90021311       0.00000259      -0.00000670       0.00000082
H       14.34994055      12.43387287       6.41028357       0.00000453       0.00000057      -0.00000249
H        4.31461954      16.69383354      11.48986637       0.00000044      -0.00000665       0.00000362
H       17.90345792      15.44150893      11.45928274      -0.00001789       0.00001266       0.00001342
C        7.16978824      12.18573598      10.06249528       0.00000488      -0.00000205      -0.00000181
C       13.53830237      22.74880504       7.78327528      -0.00000297       0.00000558       0.00000930
C        3.50668006      18.09863629      10.26042231       0.00000887       0.00000669       0.00000322
C       17.15822894      16.97242951       7.92284164      -0.00000615      -0.00000263       0.00000215
N        7.16344518      13.38324020      10.60813977      -0.00002153       0.00001825       0.00000324
N       13.29741315      21.73253651       6.98532731       0.00001804      -0.00000421      -0.00000928
N        3.59138717      19.33964393       5.02557576       0.00001636       0.00000367       0.00001541
N       17.13645647      15.78944363       7.34665516      -0.00002249       0.00000085       0.00001381
N        6.20999181      11.70720164       9.30593408      -0.00002355       0.00001835      -0.00000872
N       14.69062995      22.98259052       8.36948721      -0.00000516      -0.00000647      -0.00000232
N        4.40886321      17.63627645      11.09471059      -0.00000234      -0.00000484      -0.00000244
N       16.21082871      17.43784872       8.70275553       0.00001317       0.00000062      -0.00000483
Pb       1.44056476      13.45594362       8.23017467      -0.00000760       0.00000381       0.00000296
Pb      19.39490112      21.60480124      10.65804909       0.00000750       0.00000216       0.00000100
Pb       9.17506324      19.31157958       7.43487229       0.00000148      -0.00000518      -0.00000403
Pb      11.39361965      15.70895522       9.81719812       0.00000154       0.00000220       0.00000722
I        0.45445769      15.48716929      10.56909117       0.00000398       0.00000219      -0.00001055
I        0.43771196      19.64155802       7.86702537      -0.00000602       0.00000192      -0.00000910
I       10.14413177      21.32091038       9.82266804      -0.00000391       0.00000357       0.00000309
I       10.46188498      13.67834183       7.45658008       0.00000114      -0.00001040      -0.00000361