96
Lattice="19.50142952722938 0.0172379865793676 -0.12005151401330896 0.04219650888391844 11.708032310498156 0.0946748213788192 -0.031503399011340236 0.04922977165441836 9.135442683165712" Properties=species:S:1:pos:R:3:forces:R:3 energy=-458.0003393313441 stress="0.0023194753119490006 0.00012740767355202688 0.00040787702834022406 0.00012740767355202688 0.0013891908212414672 0.0003476852165313835 0.00040787702834022406 0.0003476852165313835 0.001517721454487544" free_energy=-458.0003393313441 pbc="T T T"
H        9.34168576      -3.16113393       5.38852529      -0.00000487       0.00000132       0.00000040
H       13.69106616       8.47000657       2.62126701       0.00000086      -0.00000116      -0.00001084
H        3.94674661       2.70093248       4.94600656       0.00000420       0.00000684      -0.00000285
H       19.08596577       2.60796303       3.06386845      -0.00000222      -0.00000242      -0.00001431
H        7.63591753      -3.90119704       8.53021681      -0.00002372      -0.00000821      -0.00001900
H       13.80566451       6.34771748       1.68001300       0.00002951       0.00001325       0.00001182
H        5.64351920       1.97691476      10.91965100       0.00001219       0.00000304       0.00000612
H       17.37355798       3.35661954       1.65786353      -0.00001473       0.00000205      -0.00000084
H        6.76258580      -2.40755637       4.07840012       0.00000499       0.00000487      -0.00000161
H       15.36434064       5.99455440       2.41896741       0.00000744      -0.00001132      -0.00000985
H        6.52172336       3.50069152      10.78966866      -0.00002317      -0.00001168      -0.00000697
H       16.49532238       1.83285640       1.78775832      -0.00000100      -0.00000305       0.00000750
H        7.66840750      -0.68568636       5.59085460       0.00002272       0.00000289      -0.00000120
H       16.27015553       7.71643194       3.93140718       0.00003552      -0.00001976       0.00002566
H        5.59562996       5.18995791       4.71630446      -0.00001558      -0.00002426       0.00000238
H       17.43715056       0.11887346       3.29334277       0.00001852       0.00002927       0.00000243
H        9.22709778      -1.03884434       6.32977980       0.00000399      -0.00001126       0.00001042
H       15.38118771       9.23470071       4.04722807      -0.00000998      -0.00001550      -0.00001083
H        4.02907625       4.82081623       4.00215832      -0.00001448       0.00000814      -0.00001740
H       17.35776456       3.38122363       6.22561874       0.00001000      -0.00001602      -0.00000066
C        8.48419431      -2.51676482       5.16959890       0.00001649      -0.00002184      -0.00000984
C       14.54855604       7.82563812       2.84020064      -0.00000356       0.00006750       0.00003737
C        4.80185147       3.35254539       5.15364855       0.00003902      -0.00006498       0.00004007
C       18.23090107       1.95632763       2.85613412      -0.00003012       0.00003561      -0.00003960
N        7.56449412      -2.98304801       4.35833894       0.00001222       0.00001564       0.00002537
N       14.58613015       6.63905327       2.27491269      -0.00001016      -0.00001057      -0.00001559
N        5.72226990       2.91841475      10.51794762       0.00000384      -0.00000138       0.00000055
N       17.29477988       2.41510445       2.05952560       0.00001780      -0.00001626       0.00001358
N        8.44662717      -1.33017985       5.73488798      -0.00005735       0.00001051      -0.00001013
N       15.46824857       8.29192359       3.65146901      -0.00005058      -0.00001430      -0.00003882
N        4.81957204       4.53966402       4.58905321       0.00001711       0.00004188      -0.00001617
N       18.21317274       0.76919098       3.42069086       0.00000855      -0.00007071       0.00003559
Pb       2.83677804      -1.40686132       3.02574215      -0.00000019      -0.00000226       0.00000805
Pb      20.19597630       6.71574502       4.98400469       0.00000809      -0.00001184       0.00001272
Pb      10.44649392       4.45353182       2.74049336       0.00000301      -0.00000945       0.00000400
Pb      12.58624550       0.85534566       5.26926219       0.00000578       0.00000287       0.00000155
I        1.83831446       0.67870371       5.29287874       0.00000393      -0.00000173      -0.00000284
I        1.69299870       4.61292784       2.83693372      -0.00000450      -0.00001134       0.00000292
I       11.46004611       6.52520463       5.02894169      -0.00000665      -0.00000869       0.00000777
I       11.57270654      -1.21633790       2.98081620       0.00000091       0.00000155       0.00000055
I       19.27623304      -2.82108957       2.62345144       0.00000608       0.00000558      -0.00000124
I        3.75651580       8.12995592       5.38629728      -0.00000629       0.00000931      -0.00000559
I       13.50088167       3.01220593       2.94884776       0.00000976       0.00001109       0.00001036
I        9.53184653       2.29667104       5.06090592       0.00000092      -0.00000479      -0.00000766
I        5.67810390      -0.10874931       3.33073641      -0.00000430       0.00000074       0.00000698
I       17.35465480       5.41761607       4.67902628      -0.00000690      -0.00000458      -0.00000789
I        7.61034094       5.75975643       2.46244579       0.00000368      -0.00000215       0.00001010
I       15.42240872      -0.45084285       5.54729998      -0.00001243      -0.00000919       0.00000087
H        9.32594956      -3.13654082       9.95630160       0.00000585      -0.00000636      -0.00001435
H       13.67527693       8.49459414       7.18892265      -0.00000778      -0.00000122       0.00000666
H        3.93106063       2.72546785       9.51366861      -0.00003128      -0.00001556       0.00000773
H       19.07022627       2.63256626       7.63154992      -0.00000529      -0.00002129       0.00000217
H        7.65154887      -3.92582822       3.96258875       0.00001052       0.00000287      -0.00001992
H       15.36533006       9.25928783       8.61496613       0.00000501      -0.00000158       0.00000097
H        5.65924261       1.95225677       6.35188794       0.00000005      -0.00000431      -0.00000631
H       18.98791772       0.51265285       8.57534830       0.00000684       0.00001321      -0.00000831
H        6.74694840      -2.38292388       8.64600523      -0.00000664      -0.00000168      -0.00000554
H       16.25433207       7.74103950       8.49914613       0.00001200      -0.00001211       0.00001493
H        6.53752159       3.47598207       6.22188354      -0.00001365       0.00000939      -0.00000473
H       17.42139927       0.14349310       7.86113387       0.00001492       0.00001561      -0.00000202
H        7.65265202      -0.66110137      10.15857744       0.00002060      -0.00001047       0.00000139
H       15.34863559       6.01919937       6.98658057       0.00000218      -0.00000206       0.00000927
H        5.57981583       5.21457728       9.28399535      -0.00000022      -0.00000662       0.00000030
H       16.47952454       1.85746809       6.35555769      -0.00000519      -0.00000903      -0.00000286
H        9.21129547      -1.01427545      10.89759448       0.00000589       0.00000148       0.00000419
H       13.78996415       6.37234227       6.24760918       0.00000655      -0.00000775      -0.00000070
H        4.01331197       4.84534126       8.56978923      -0.00000830       0.00001324       0.00000896
H       19.00363820       0.48803582       4.00762551      -0.00000148       0.00000652       0.00000127
C        8.46847511      -2.49216685       9.73732644      -0.00000603       0.00003898       0.00001393
C       14.53277432       7.85024094       7.40787026       0.00003229      -0.00000259       0.00000157
C        4.78611650       3.37713199       9.72134415       0.00002732       0.00004995      -0.00002327
C       18.21514746       1.98093356       7.42386184       0.00002731       0.00004297      -0.00000540
N        7.54883973      -2.95842338       8.92597821       0.00002030       0.00000158       0.00002754
N       15.45242024       8.31651943       8.21919420      -0.00001717       0.00001896      -0.00001433
N        5.73802345       2.89375663       5.95019085      -0.00002115       0.00002280      -0.00000556
N       18.19743617       0.79380250       7.98843239      -0.00002938      -0.00003684       0.00001808
N        8.43086010      -1.30560014      10.30265135      -0.00003275       0.00000227      -0.00001575
N       14.57040706       6.66367902       6.84253677      -0.00004123       0.00001931      -0.00000343
N        4.80379887       4.56424032       9.15672225       0.00001965      -0.00002269       0.00001361
N       17.27899697       2.43971139       6.62728970      -0.00002018       0.00000328       0.00000068
Pb       2.82102569      -1.38224641       7.59347204       0.00000275      -0.00001206      -0.00000665
Pb      20.18022583       6.74033967       9.55173158       0.00000491       0.00000435      -0.00001119
Pb      10.43075641       4.47814875       7.30822237       0.00000358      -0.00000858      -0.00001431
Pb      12.57047548       0.87995472       9.83698381       0.00000725       0.00000432       0.00000013
I        1.82257758       0.70332507       9.86059903      -0.00000034       0.00000108       0.00000438
I        1.67721975       4.63752410       7.40463289      -0.00000399       0.00000678       0.00000631
I       11.44430634       6.54981113       9.59667530       0.00000237       0.00000752       0.00000407
I       11.55696461      -1.19171808       7.54852583      -0.00001451      -0.00000949      -0.00000225
I       19.26048706      -2.79647377       7.19119062       0.00000475       0.00000224      -0.00000462
I        3.74076178       8.15456893       9.95401515      -0.00000057       0.00000461      -0.00000249
I       13.48514252       3.03681799       7.51658270       0.00000142       0.00000437       0.00000372
I        9.51608746       2.32127820       9.62861418       0.00000555       0.00000589       0.00000363
I        5.66236371      -0.08414387       7.89847354      -0.00000100       0.00000179      -0.00001037
I       17.33888349       5.44225951       9.24675607       0.00000150       0.00000380      -0.00001122
I        7.59459154       5.78433911       7.03016897       0.00001293      -0.00000973       0.00000479
I       15.40664690      -0.42623670      10.11501981      -0.00000048       0.00000958       0.00000193
