96
Lattice="12.813862787961545 -0.0014135104192053171 0.02855367730091024 0.05241130066109486 12.861704738868179 0.023630311497457347 -0.04828005766318901 -0.021566895372738933 12.812163963163602" Properties=species:S:1:pos:R:3:forces:R:3 energy=-457.09301654938577 stress="0.0037206368020280983 -0.0008205678187500824 -3.7236449442738194e-05 -0.0008205678187500824 0.004160542358034701 4.496470841437395e-06 -3.7236449442738194e-05 4.496470841437395e-06 0.0025091209807610875" free_energy=-457.09301654938577 pbc="T T T"
H        4.62518750      13.93045523       1.77783270      -0.00002748       0.00000738       0.00003157
H        5.60744137       8.51851663       1.77511313       0.00001386      -0.00000856       0.00001286
H        5.70847917       6.35370798       8.17815744       0.00002560       0.00003148      -0.00001105
H        6.74120609      13.79932906       8.19002348       0.00001860       0.00001043       0.00000734
H        5.90093059      15.87208403       1.70777650      -0.00000438      -0.00001108       0.00000186
H        3.67030781       7.23704794       1.69771588      -0.00002581       0.00002650       0.00002014
H       -2.39719559      13.14491415       6.66674879       0.00002259       0.00000601       0.00001319
H        5.45944131      11.86177090       8.11084089      -0.00000022       0.00000551      -0.00001499
H       -0.11880489       6.61680549      -0.55811752      -0.00000492      -0.00000330       0.00001365
H        0.12106066      13.27049897      -0.54023537       0.00002919       0.00005237       0.00006496
H       -1.55614060      14.46707663       5.86056973       0.00002228      -0.00001675       0.00004302
H        4.52173886      12.41542480       6.74163053       0.00002206      -0.00002472       0.00001538
H        0.41578726       8.89251872       0.31767924       0.00003434       0.00001105      -0.00005580
H       -2.15585523      12.72660940       0.32944666      -0.00002161      -0.00003129      -0.00004331
H        0.71595968      15.01083293       6.74133987      -0.00000499      -0.00000841      -0.00001914
H       -1.91120698       5.98514658       6.71544082      -0.00001670      -0.00000713      -0.00002557
H        4.99384722      12.20300759       0.27386493      -0.00001946      -0.00001688      -0.00000236
H       -2.71036773      13.66886180       1.69541950      -0.00002475       0.00003591       0.00004296
H        7.64551949       7.63591395       8.11112310      -0.00002421      -0.00002465       0.00000307
H       -0.97356474       5.43160889       8.08473175       0.00000688       0.00000546       0.00000426
C        5.40979416      14.02971188       1.02110998       0.00004589       0.00003843       0.00000412
C       -0.86833188      14.16735462       1.01352849       0.00008480       0.00001871      -0.00003972
C       -0.57384305      13.56871081       7.41782009       0.00000101       0.00004726      -0.00003408
C       -0.47201960       7.27289723       7.40217387       0.00003195       0.00000290       0.00002654
N       -0.82561352       6.58761721       0.18297861      -0.00000029      -0.00001409       0.00001029
N        0.14624025      13.97495747       0.20313074      -0.00004873      -0.00004236      -0.00002377
N       -1.58458830      13.76162934       6.60279021      -0.00002840       0.00000791      -0.00003492
N        5.27921407      12.58103380       7.40361794       0.00000950       0.00004018      -0.00004186
N       -0.34518433       8.72403693       0.97491924      -0.00004900      -0.00002164       0.00004794
N       -1.99053110      13.48596452       0.98937061       0.00001005      -0.00001695      -0.00002553
N        6.92893663       7.81924381       7.40185877       0.00001285      -0.00001518       0.00001697
N       -1.15380509       6.15084699       7.37748678      -0.00000091       0.00002382       0.00001514
Pb       2.45827957       4.17650722      10.40504044      -0.00000882      -0.00001208      -0.00000364
Pb      -3.95960236       4.16980626      10.39091310      -0.00000525       0.00000726       0.00000746
Pb       2.44014441      10.69296357       4.01041604      -0.00000913       0.00001775      -0.00001684
Pb       2.40301888       4.25520281       3.99889170       0.00000431      -0.00000853       0.00000138
I        5.63438452       4.74919902      10.70911226      -0.00000001      -0.00000477      -0.00000593
I       -0.72164156      16.66249445      10.20823184      -0.00000830      -0.00000725      -0.00000784
I       -0.77451064       3.68200176       4.28658262       0.00000673       0.00000196      -0.00001189
I        5.63650708       4.62955598       3.79309645       0.00000797      -0.00000280       0.00000515
I        2.86805525      13.84722296      10.22495690       0.00000482      -0.00001082      -0.00000551
I        1.95153038       7.43827784      -2.12066361      -0.00000244      -0.00000166      -0.00001320
I        2.04836620       7.44650935       3.80224889       0.00000578      -0.00000009       0.00000315
I        3.00685311      13.87519111       4.29598030      -0.00001367       0.00000790      -0.00001636
I        2.33564262      16.81391129       0.81678741      -0.00000988       0.00001347       0.00000250
I       -3.66119889       4.38596126       0.78141911       0.00000225      -0.00001238       0.00000507
I       -4.26523535       4.05770693       7.18486517      -0.00000143       0.00000087       0.00002198
I        2.60391973       4.49004024       7.20145971      -0.00001004      -0.00000912       0.00001641
H       -1.80800338       7.50061192       1.75179174      -0.00001889      -0.00001737       0.00001157
H       -0.77302344      14.95005778       1.77262547      -0.00002277      -0.00001268       0.00002097
H       -0.67258310      12.78508385       8.17552407       0.00001917      -0.00002254       0.00004374
H        0.30798495       7.36930647       8.16401564      -0.00003898       0.00001046      -0.00004276
H       -1.43956208       5.77302984       0.24790959       0.00003113       0.00004280      -0.00000191
H        0.95861421      14.59147992       0.27161481       0.00001407       0.00001235      -0.00000705
H        3.98360414       6.71307816       6.66954784      -0.00005720      -0.00002734      -0.00000168
H       -0.04573895       9.09883203       6.65859170       0.00002156       0.00002565      -0.00001043
H        6.84872281      15.32276380       0.34370983      -0.00003888       0.00001120       0.00005941
H        4.22507735       6.29488791       0.33176554       0.00000280       0.00004910       0.00003031
H        4.82439131       8.03521539       5.86306043       0.00000690       0.00002790      -0.00000872
H       -1.36346925       8.25894160       5.84346806      -0.00004051       0.00000607      -0.00003292
H        6.31447325      13.04699771      -0.53214732       0.00001082       0.00000468       0.00001073
H        6.50200010       6.83911969      -0.53767660      -0.00000846       0.00001873       0.00002430
H        7.09652500       8.57935522       6.74333684       0.00000840      -0.00001189       0.00002067
H        5.06967750      14.68913639       5.86960211      -0.00000030       0.00000335      -0.00000692
H       -0.53198086       9.44204034       1.68168166      -0.00001498      -0.00002009       0.00000282
H        7.33928492       8.16021055       0.27426117       0.00002371       0.00002746       0.00000583
H        1.26461052      14.06708555       8.10902716      -0.00001154      -0.00000326      -0.00000657
H        6.38754127      15.52890506       6.68463756       0.00001945       0.00000334       0.00000984
C       -1.02336594       7.59971679       0.99508000       0.00003641       0.00001057      -0.00004644
C        5.51232308       7.73581057       1.01599533       0.00002863      -0.00002120      -0.00000181
C        5.80701576       7.13721980       7.42030441      -0.00003453       0.00001904      -0.00001951
C        5.96113399      13.70300453       7.42824367      -0.00001356      -0.00003617       0.00006509
N        6.08780804      15.15413379       1.00098183       0.00003660      -0.00000649      -0.00006657
N        4.39022770       7.05425177       0.99172734       0.00004011      -0.00004229      -0.00007052
N        4.79612364       7.32988905       6.60539434       0.00005051      -0.00002922       0.00002288
N       -0.66122239       8.28574633       6.58898798       0.00003099      -0.00005128       0.00004623
N        5.60768085      13.01767878       0.20896059      -0.00000448      -0.00001506       0.00000755
N        6.52700316       7.54357272       0.20569421      -0.00005287      -0.00005156      -0.00002181
N        0.54816399      14.25060333       7.39967125       0.00000559      -0.00000159       0.00000696
N        5.77198033      14.71587246       6.61507265      -0.00005037       0.00001231      -0.00006204
Pb      -3.92243888      10.60805666      10.40251681       0.00000598      -0.00000283      -0.00001265
Pb       2.47356131      10.59994031      10.41707850      -0.00001507      -0.00000780       0.00000350
Pb      -3.99306609       4.26285914       3.98424171       0.00000443      -0.00000020       0.00000088
Pb      -3.97765661      10.68679120       3.99642118       0.00000105       0.00000298       0.00001337
I       -0.74631408      11.18069488      10.70652812       0.00000618      -0.00000939       0.00001703
I        5.65911053      10.23089562      10.21065861      -0.00000816      -0.00000132      -0.00000945
I        5.65870569      10.11203969       4.31274415       0.00000611      -0.00000229       0.00000597
I       -0.74413933      11.06113795       3.79066228      -0.00000541      -0.00000404      -0.00000345
I       -3.56513445       7.41710323      10.19870588       0.00000745       0.00001471      -0.00000416
I       -4.42913246      13.86986891      -2.12322886      -0.00000423      -0.00001585       0.00000400
I       -4.33242396      13.87811677       3.79980536       0.00000414       0.00000321       0.00000546
I       -3.42628147       7.44509310       4.26982669      -0.00001623       0.00000834      -0.00001005
I        8.71647697      10.38246505       0.81922381      -0.00000747       0.00001183      -0.00000909
I        2.77209479      10.81604293       0.80757739       0.00001001      -0.00000407       0.00001661
I        2.16793546      10.48774195       7.21102856      -0.00001152       0.00000528       0.00000066
I       -3.77672310      10.92175552       7.19897275      -0.00000828      -0.00000161      -0.00000491
