40
Lattice="15.803963048497504 -0.11655927783987768 0.2763643386637199 -0.10037365208840024 14.55415536154363 -0.6395063421268142 -0.09459178746402873 0.36382799469659066 8.499577080773761" Properties=species:S:1:pos:R:3:forces:R:3 energy=-123.33237727448946 stress="0.0013746043007978406 -0.00044239990488871724 5.522166556493945e-05 -0.00044239990488871724 0.003217609735854771 -7.978424502651246e-05 5.522166556493945e-05 -7.978424502651246e-05 0.001932854482200992" free_energy=-123.33237727448946 pbc="T T T"
Cs       7.67698939       5.07712144       2.67831796      -0.00000301      -0.00001303       0.00000667
Cs      11.44281332       7.82759164       6.87680961       0.00000228      -0.00000902      -0.00000161
Cs       7.55364454      12.22227655      -1.88681456      -0.00001153       0.00000144       0.00000434
Cs      11.56040239      14.87254909       2.30285191       0.00001263      -0.00000168      -0.00000325
Cs      15.57896711       5.01879232       2.81655853      -0.00001395      -0.00000750      -0.00000416
Cs      19.34494377       7.76911047       7.01501910      -0.00003019       0.00000272      -0.00000690
Cs      15.45565406      12.16408295      -1.74862113      -0.00000108      -0.00000957       0.00000891
Cs      19.46244438      14.81441278       2.44102346      -0.00000364      -0.00000070       0.00000356
Pb      10.10347563      17.46322687       6.44581756       0.00001475       0.00004546       0.00001222
Pb      14.05126213      17.43614566       6.50041465      -0.00000548       0.00000868       0.00000061
Pb       8.91596852       9.99552594       2.46982949       0.00008562      -0.00000667       0.00000962
Pb       4.96818647      10.02262116       2.41530030      -0.00003017      -0.00000769      -0.00000642
Pb      18.00544674      17.40496819       6.58403018       0.00003876       0.00002941      -0.00003135
Pb      21.95326269      17.37780804       6.63849649      -0.00000092       0.00003736       0.00001342
Pb      16.81797818       9.93718423       2.60800287       0.00001296      -0.00001332       0.00001697
Pb      12.87021240       9.96433909       2.55341731      -0.00005780      -0.00000302      -0.00000609
I       12.31269940       3.77099473       0.86188592       0.00000026       0.00001562       0.00000004
I        6.90171360       8.76971004       0.19377708      -0.00000771      -0.00002357      -0.00000836
I       12.27306443       4.28486987       4.95593509      -0.00000832      -0.00001266       0.00000597
I        6.84679054       8.61980455       4.59931523       0.00005930      -0.00000823       0.00000472
I       10.80549935       7.41856688       2.43416095       0.00001814       0.00003612      -0.00000587
I        8.31432604       5.48603393       7.12099410      -0.00002040      -0.00002417      -0.00000554
I       10.78624023      11.24411271       4.74373046      -0.00002806      -0.00002727      -0.00001632
I        8.23331470      16.21471467       4.17180723       0.00000473       0.00000185       0.00000370
I       10.88305439      11.35295041       0.33709388      -0.00002466      -0.00000339       0.00000229
I        8.23095574      15.74188860       0.07890004       0.00001219       0.00001526      -0.00000943
I       12.14573123      14.88029083       6.38139379       0.00001492      -0.00003644       0.00000886
I        6.87370874      12.57848442       2.53424700       0.00000657       0.00000629       0.00000359
I       20.21478276       3.71291769       0.99988715      -0.00000441      -0.00001901       0.00000775
I       14.80371465       8.71144884       0.33187656      -0.00002037      -0.00000034       0.00002389
I       20.17500426       4.22635044       5.09393395      -0.00000571       0.00003757      -0.00000123
I       14.74871876       8.56145662       4.73743012       0.00005471       0.00001157      -0.00001052
I       18.70751615       7.36023140       2.57236999       0.00000887       0.00003775      -0.00000505
I       16.21630139       5.42777400       7.25922334       0.00000640       0.00000013      -0.00001137
I       18.68815910      11.18571495       4.88199818       0.00000051      -0.00001480      -0.00001831
I       16.13524530      16.15641768       4.31009277       0.00000082      -0.00000846      -0.00000637
I       18.78507883      11.29465802       0.47531867      -0.00002726       0.00000728       0.00002549
I       16.13300718      15.68369884       0.21717963      -0.00003524      -0.00001196       0.00000362
I       20.04767897      14.82199332       6.51967300       0.00001321      -0.00004709      -0.00000792
I       14.77577811      12.52017469       2.67239899      -0.00002771       0.00001514      -0.00000018
