96
Lattice="19.182165979817878 -0.04441622712015033 0.004849961469771238 -0.012893457973678303 10.823774727958481 0.024361219847922888 -0.05317564676564321 -0.002006031872857015 9.396459285090721" Properties=species:S:1:pos:R:3:forces:R:3 energy=-419.37295541002544 stress="0.0005790656546565745 -0.00011239022223752659 -0.0001366389133087934 -0.00011239022223752659 0.0023497324128621154 2.3984009568610796e-05 -0.0001366389133087934 2.3984009568610796e-05 0.0020044595309044975" free_energy=-419.37295541002544 pbc="T T T"
I       17.88661647       2.21894303       1.57183627      -0.00000310      -0.00000349      -0.00003224
I       17.57717264       5.75220079      -0.76446639      -0.00000035       0.00001130       0.00000952
I        7.96949021       7.63411442       1.62748088       0.00002721      -0.00000657      -0.00001202
I        8.30287470       0.33500057      -0.72246744       0.00000402       0.00000967      -0.00000547
I       15.86075900      -0.97672384      -0.75053708       0.00000227      -0.00001765       0.00001167
I        0.52954905       8.95714268       1.64718593      -0.00001354       0.00001419      -0.00000228
I       10.13899117       4.46470744      -0.75975450      -0.00003091      -0.00000865       0.00000511
I        6.24942604       3.53619307       1.57046466       0.00000212       0.00001574       0.00000445
I        2.72219972       1.59509010      -0.75042574       0.00001134      -0.00000456       0.00000031
I       13.73214707       6.33045435       1.61565410       0.00002833      -0.00000201       0.00000747
I        4.16441108       7.06711980      -0.75470510      -0.00000583       0.00001351       0.00000358
I       12.28880162       0.99170180       1.58959816       0.00000308       0.00002423       0.00001887
H        5.09711992       0.45916979       2.58059364      -0.00000169       0.00001108      -0.00001483
H       10.44165870       8.25962412      -1.23728971       0.00001214       0.00000195       0.00000659
H        1.04021059       4.17700069       0.61096543       0.00001786       0.00002462      -0.00000617
H       15.51347828       2.79378060      -0.27473870       0.00000064       0.00000787       0.00001411
H        5.71169135      -1.23641939       2.60383227      -0.00002462       0.00000354       0.00001606
H       11.20932240       7.53441272       0.21255973      -0.00000642       0.00000709       0.00001108
H        0.84537167       5.16420144       2.08738534      -0.00001344      -0.00001984      -0.00000159
H       14.70555072       2.10415801      -1.71993464       0.00001763      -0.00001865      -0.00000820
H        5.92634188      -0.22665578       1.14568530       0.00000823      -0.00000411      -0.00000062
H       10.63793201       9.24501278       0.24041948      -0.00000594      -0.00001123      -0.00001722
H        1.63183058       5.88041737       0.64310420      -0.00000680       0.00002497      -0.00001333
H       15.32590238       3.79773215      -1.74045171       0.00000070      -0.00001171       0.00000463
H        3.29043482      -1.15220295       2.22179269      -0.00000073       0.00002998       0.00003018
H       12.34687517       9.78183601      -1.40849060       0.00002057      -0.00004671       0.00001221
H        2.73222097       3.62082117       2.27353217      -0.00000326      -0.00003134       0.00003083
H       13.65103818       4.36616362      -0.06149092      -0.00000792      -0.00001603       0.00001330
H        4.06470236      -1.79217155       0.89460658       0.00001740      -0.00000557      -0.00001688
H       12.86658608       8.17591815      -1.44674647       0.00000467      -0.00002969       0.00000654
H        3.26870567       5.22098635       2.31310118       0.00002366       0.00000459      -0.00000853
H       13.08828495       2.77510739      -0.03812107      -0.00001797      -0.00003229      -0.00000643
H        3.50526495      -0.19953943       0.86998373      -0.00000825      -0.00002625      -0.00000787
H       13.06816914       9.09643139      -0.07120894      -0.00000690       0.00001782       0.00001315
H        3.46974210       4.29472540       0.93988333       0.00000064       0.00002910      -0.00001656
H       12.89877878       3.72071889      -1.39874326      -0.00002293       0.00002585      -0.00001521
C        5.26740123      -0.44722372       1.99216199       0.00003216      -0.00001897       0.00000663
C       11.08039637       8.45236260      -0.36854825      -0.00001223      -0.00001008       0.00000573
C        1.48797043       4.96404751       1.22321797       0.00003125      -0.00001148       0.00003873
C       14.86900407       3.01262669      -1.13275088      -0.00005128      -0.00003149      -0.00002656
Pb      -0.26647146       0.32988944      -0.74395136       0.00000833      -0.00001675      -0.00001737
Pb      16.66804677       7.61382553       1.61864666       0.00001808      -0.00002279      -0.00001200
Pb       7.09714981       5.76923191      -0.76286694       0.00001278      -0.00001066      -0.00001865
Pb       9.30436020       2.26911041       1.59544092      -0.00001643       0.00000840      -0.00001233
N        3.95803907      -0.92708834       1.46917627      -0.00004251      -0.00000518      -0.00000823
N       12.41692961       8.90453334      -0.84642773      -0.00000235       0.00006586      -0.00003023
N        2.81566040       4.49617879       1.71040102      -0.00000599      -0.00000977      -0.00003056
N       13.55250069       3.49842572      -0.63356157       0.00003788       0.00001207       0.00000993
I       17.91559309       2.19292564       6.32086285       0.00000029       0.00000612       0.00000817
I       17.60610380       5.72616747       3.98456589      -0.00001304       0.00000710       0.00001264
I        8.00772572       7.65449455       6.27399265      -0.00000273       0.00001050       0.00000426
I        8.34106270       0.35544300       3.92407168      -0.00000283      -0.00001871      -0.00000223
I       15.78107022      -0.96763368       3.90436649      -0.00002418       0.00001617       0.00000316
I        0.44976677       8.96626680       6.30208560       0.00000426       0.00000767      -0.00000628
I       10.06114397       4.45330831       3.98103812       0.00000674       0.00001456       0.00000719
I        6.17164219       3.52481780       6.31128811       0.00000378       0.00001170       0.00002435
I        2.57842406       1.65912641       3.93593203      -0.00000374      -0.00000013       0.00000030
I       13.58833783       6.39442520       6.30190239      -0.00000529       0.00000902      -0.00000012
I        4.02181010       6.99785551       3.96191839      -0.00001240       0.00000669      -0.00002220
I       12.14620748       0.92241309       6.30625385       0.00000889      -0.00000721       0.00001963
H        5.10120132       0.45508618       5.33900629      -0.00001549       0.00000597      -0.00000750
H       10.38420927       8.21641469       4.40592374       0.00002285       0.00000037      -0.00003646
H        0.98460256       4.19200002       7.29175918       0.00000721      -0.00002343       0.00001378
H       15.27047137       3.81225049       4.94043830      -0.00001790       0.00001041      -0.00001550
H        5.86871371      -0.26987381       6.78905660       0.00002110       0.00000425       0.00000340
H       10.59894035       9.22593158       2.94761656      -0.00000754       0.00001552       0.00000577
H        1.60505004       5.88553914       7.27131040       0.00001910      -0.00001716       0.00000116
H       14.67876384       2.10887281       4.90808640       0.00000773       0.00001210      -0.00000204
H        5.67282222      -1.25544138       5.31141866      -0.00000833      -0.00001513      -0.00001621
H       11.21340402       7.53031119       2.97112998       0.00001042      -0.00003110      -0.00001205
H        0.79730289       5.19594323       5.82600702       0.00000440      -0.00001967       0.00000200
H       15.46507419       2.82529429       3.46382563       0.00001299       0.00000859      -0.00000080
H        3.24249831      -1.10711320       5.62263659      -0.00002025      -0.00002905      -0.00004647
H       12.80533459       8.18915792       4.68156404      -0.00000686      -0.00000118      -0.00000280
H        3.41179616       4.26890507       6.95040241       0.00000683      -0.00000829      -0.00002843
H       13.57827670       4.36877113       3.27814645      -0.00003924      -0.00000190      -0.00000591
H        3.44378132      -0.18647119       6.99814291      -0.00000238       0.00001028       0.00001997
H       12.24592868       9.78180018       4.65685339       0.00000909       0.00000235       0.00000792
H        3.22250190       5.21447156       5.58970829      -0.00000595      -0.00000446       0.00002287
H       12.84090126       3.69471226       4.61181378       0.00000748       0.00000264      -0.00002591
H        3.96366610      -1.79233765       6.96007322      -0.00000254       0.00002918      -0.00000960
H       13.02014655       9.14171617       3.32968077       0.00000398      -0.00001479       0.00000632
H        2.65968223       3.62343628       5.61307553       0.00000683       0.00000479      -0.00002635
H       13.04170710       2.76863692       3.23843522       0.00001004      -0.00001516       0.00001170
C        5.23014764      -0.46278779       5.92022864       0.00001487      -0.00004321       0.00000835
C       11.04317363       8.43680659       3.55941787      -0.00002103       0.00002687       0.00004572
C        1.44164007       4.97706869       6.68411624      -0.00002401       0.00003148       0.00000357
C       14.82259214       3.02533378       4.32810613       0.00000050       0.00001025       0.00006634
Pb      -0.35745432       0.37572208       3.93290960      -0.00000005      -0.00000571       0.00000301
Pb      16.57701629       7.65963970       6.29551374       0.00001469      -0.00000643       0.00000288
Pb       7.00623813       5.72039078       3.95608648       0.00000767       0.00000208      -0.00001029
Pb       9.21346587       2.22028621       6.31442124      -0.00001716       0.00001281       0.00000771
N        3.89359485      -0.91508119       6.39793873       0.00003194       0.00004898       0.00002856
N       12.35256154       8.91667733       4.08233654       0.00000241      -0.00001313      -0.00002186
N        2.75818773       4.49119200       6.18512251      -0.00002976      -0.00000728       0.00004970
N       13.49486306       3.49334482       3.84117327       0.00000499       0.00002477      -0.00003066
