768
Lattice="38.42932232328852 0.39493935294422494 -0.1354659791419477 -0.2661737847703794 21.88944780815638 -0.0951616578971801 0.021465871351484686 -0.0043229637202767705 19.033072748430197" Properties=species:S:1:pos:R:3:forces:R:3 energy=-3354.833597306462 stress="0.002520907216457737 -3.255811337199854e-05 -6.471822052034633e-05 -3.255811337199854e-05 0.0008985959426793636 -0.00023014354463719147 -6.471822052034633e-05 -0.00023014354463719147 0.0009378801222298985" free_energy=-3354.833597306462 pbc="T T T"
I       16.59859953       3.32609180       1.85235629      -0.00000465       0.00000307       0.00000803
I       17.20133069       7.06126257      18.47886480       0.00000458      -0.00000044      -0.00000544
I        7.55333768       8.70816747       1.85954843       0.00000570      -0.00000825      -0.00000811
I        7.03195797       1.48171593      18.53943704       0.00000428       0.00000421      -0.00000544
I       14.67987784      21.76904874      18.43166432      -0.00000232      -0.00000075       0.00000741
I       38.06855659      10.70521154       1.73669087      -0.00000156       0.00000163      -0.00000262
I        9.32875080       5.30078888      18.53310159       0.00000265       0.00000145      -0.00000061
I        5.25656466       4.88909747       1.86587772      -0.00000596      -0.00000336       0.00000097
I        1.37303054       2.98141285      18.55124673       0.00000361      -0.00000289       0.00000120
I       13.21224107       7.20848143       1.84775633       0.00000571       0.00000125       0.00000313
I        3.61200897       8.46932781      18.51490556      -0.00000128       0.00000139       0.00000054
I       10.97329503       1.72054249       1.88405351       0.00000494      -0.00000255       0.00000151
H        3.96811310       1.61804055       2.79148935      -0.00000285      -0.00000527       0.00000526
H       10.60881956       8.57399296      19.39449553      -0.00000469      -0.00000559       0.00000507
H        2.21823904       6.09471932       1.88291096       0.00001165      -0.00000592       0.00000149
H       12.36705472       4.09510247      18.51600577      -0.00001593      -0.00000187       0.00000524
H        3.97661589       1.61592653       1.00449137       0.00000112      -0.00000570      -0.00000397
H       10.61726567       8.57186212      17.60749561      -0.00000360       0.00000098      -0.00000782
H        0.99750770       7.06130117       0.99021676      -0.00000777       0.00000890      -0.00000811
H       13.57995284       3.12037675      17.62171864       0.00000350      -0.00000830      -0.00001615
H        2.78037587       0.61596957       1.89368976       0.00000787      -0.00000079      -0.00000499
H       11.80496138       9.57402182      18.50525006       0.00000636      -0.00000747       0.00000198
H        1.00541846       7.06949920       2.77724321      -0.00000212       0.00001219       0.00002111
H       13.58780102       3.12857852      19.40874505      -0.00000064       0.00000455      -0.00000239
H        5.60576002      11.12424544       1.86267030       0.00000522      -0.00000182      -0.00000342
H        8.84644984      10.01033373      18.48877756      -0.00001090       0.00000805       0.00000086
H        0.42925188       4.68412856       2.72476568      -0.00000031      -0.00002057       0.00001628
H       14.15600961       5.50577509      17.67420893      -0.00000457       0.00001329      -0.00001278
H        4.60406495      -0.75187286       2.73152663       0.00000323       0.00000580      -0.00000504
H        9.84808381      21.88644005      17.61989111      -0.00000182      -0.00000109      -0.00000485
H        0.42194230       4.67807529       1.06793495       0.00001401       0.00000783      -0.00001634
H       15.31355965       4.60624197      18.49996692       0.00001328      -0.00002126       0.00000260
H        5.73886153       0.17945685       1.91026347      -0.00000946       0.00001329      -0.00000661
H        9.83940462      21.88703156      19.27680331       0.00000947       0.00000672       0.00000435
H       -0.72828905       5.58372710       1.89906488      -0.00001810      -0.00000534      -0.00001031
H       14.16324900       5.51183567      19.33104148      -0.00000107      -0.00000231       0.00000451
C        3.80221537       1.00961996       1.89789819      -0.00001711       0.00001217       0.00000870
C       10.78314901       9.18030124      18.50107640       0.00000184      -0.00000332       0.00000498
C        1.18685286       6.46256668       1.88571113       0.00001107       0.00001029      -0.00002347
C       13.39845793       3.72730298      18.51324290       0.00000017      -0.00001121       0.00001221
Pb      37.14438448       1.69990630      18.43796918       0.00000120       0.00000663       0.00000173
Pb      15.87022844       8.88490551       1.82553832      -0.00000807       0.00000538      -0.00000243
Pb       6.30700734       6.85248783      18.51747060       0.00000726      -0.00000107       0.00000378
Pb       8.27830167       3.33738726       1.88149704      -0.00000225       0.00001224      -0.00000078
N        4.75554266      -0.13071208       1.90360894       0.00000794      -0.00002145       0.00000303
N        9.82974686      10.32057048      18.49538561      -0.00000678       0.00000442       0.00000234
N        0.26260082       5.29863653       1.89494150      -0.00000846      -0.00001070       0.00001393
N       14.32265378       4.89127807      18.50404231       0.00000335       0.00001612       0.00001272
I       16.60394394       3.32499308       6.61062738       0.00000589      -0.00000450       0.00000636
I       17.18524135       7.06451868       4.20407150       0.00000340      -0.00000786      -0.00000038
I        7.55870373       8.70709646       6.61781310       0.00000228      -0.00000950      -0.00000741
I        7.01587412       1.48495097       4.26462987      -0.00000496      -0.00000416       0.00000214
I       14.66376482      21.77228722       4.15684134      -0.00000104       0.00000726       0.00000658
I       38.07390986      10.70414416       6.49497075      -0.00000515       0.00000373       0.00000333
I        9.31265266       5.30403724       4.25829025      -0.00000162      -0.00000304       0.00000251
I        5.26193276       4.88800171       6.62414422      -0.00000566      -0.00000155      -0.00000062
I        1.35695389       2.98465397       4.27641127       0.00000252       0.00000127       0.00000617
I       13.21760284       7.20738749       6.60601902       0.00000281       0.00000719       0.00000193
I        3.59590100       8.47255788       4.24012695      -0.00000748      -0.00000230      -0.00000101
I       10.97867725       1.71946328       6.64232241       0.00000249      -0.00000507       0.00000775
H        3.97339828       1.61692091       7.54974959       0.00000287      -0.00000160      -0.00000095
H       10.59260339       8.57720820       5.11967295       0.00000069      -0.00000486       0.00001026
H        2.22358434       6.09366419       6.64127652       0.00000749      -0.00000047      -0.00000231
H       13.56379925       3.12367346       3.34683561      -0.00000018      -0.00000168       0.00000623
H        3.98189484       1.61480293       5.76274947       0.00000217       0.00000729      -0.00000257
H       10.60121944       8.57515066       3.33267404      -0.00000111       0.00000350       0.00000383
H        1.00287210       7.06022531       5.74853250      -0.00000023       0.00000814      -0.00000331
H       13.57168425       3.13177341       5.13386393      -0.00000344       0.00001534      -0.00001353
H        2.78571676       0.61478086       6.65195429       0.00000056       0.00000097       0.00000444
H       11.78884567       9.57725574       4.23058022       0.00000160      -0.00000360      -0.00000327
H        1.01068904       7.06839787       7.53556030      -0.00000483      -0.00000024      -0.00000076
H       12.35094496       4.09838037       4.24120325       0.00000830      -0.00000469       0.00000072
H        4.48500954      10.19121543       5.78528993      -0.00000447      -0.00000011      -0.00000335
H        8.83034061      10.01361138       4.21386198      -0.00000879      -0.00000054       0.00000189
H       -0.72293109       5.58258572       6.65724613      -0.00000592      -0.00000200      -0.00000008
H       14.13993227       5.50903946       3.39943511       0.00000539      -0.00001122       0.00000368
H        4.60949560      -0.75294123       7.48979932      -0.00000459      -0.00000215       0.00000170
H        8.69726888      20.95833709       4.16636330      -0.00000758       0.00000876      -0.00000009
H        0.43458305       4.68301491       7.48302198      -0.00000188       0.00000481      -0.00000164
H       15.29746423       4.60943673       4.22514956      -0.00001219       0.00000384      -0.00000476
H        5.74422588       0.17843603       6.66849175      -0.00000549       0.00000229      -0.00000430
H        9.83202418      21.88969673       3.34507308       0.00000486       0.00000603      -0.00002187
H        0.42738239       4.67697600       5.82618932      -0.00000392      -0.00000112      -0.00000575
H       14.14718336       5.51503178       5.05626883      -0.00000215      -0.00000867      -0.00001584
C        3.80753350       1.00849011       6.65615941       0.00000376       0.00000699      -0.00000426
C       10.76702762       9.18355091       4.22629578       0.00000035      -0.00000735      -0.00001017
C        1.19218776       6.46148322       6.64402825       0.00000711       0.00000169       0.00000146
C       13.38233921       3.73055382       4.23839899      -0.00001177      -0.00002883       0.00000979
Pb      37.12829932       1.70315467       4.16316563      -0.00000203       0.00000361      -0.00000102
Pb      15.87558070       8.88382291       6.58381775      -0.00000843       0.00000844      -0.00000560
Pb       6.29091004       6.85573014       4.24267909       0.00000170      -0.00000402       0.00000094
Pb       8.28367860       3.33630649       6.63976047      -0.00000106       0.00001167      -0.00000197
N        4.76092470      -0.13178873       6.66186782       0.00000221      -0.00000525      -0.00000208
N        9.81364171      10.32383381       4.22056329      -0.00000704       0.00001153      -0.00001468
N        0.26796821       5.29752573       6.65319229       0.00000083       0.00000567       0.00000376
N       14.30656674       4.89450393       4.22924388       0.00001943       0.00003988       0.00000990
I       16.60930437       3.32390635      11.36891431       0.00000071       0.00000008      -0.00000296
I       17.19060369       7.06343696       8.96233656      -0.00000312      -0.00000815       0.00000729
I        7.56407668       8.70600042      11.37608073       0.00000573      -0.00000722      -0.00000397
I        7.02123538       1.48388244       9.02288592      -0.00001097      -0.00000672       0.00001503
I       14.66911635      21.77119120       8.91513331       0.00000050       0.00000372      -0.00000281
I       38.07924582      10.70305665      11.25321644      -0.00000344       0.00000169       0.00000692
I        9.31801261       5.30295400       9.01656148       0.00000572       0.00000027      -0.00000040
I        5.26728732       4.88694221      11.38241304      -0.00000394      -0.00000835      -0.00000223
I        1.36232002       2.98355670       9.03466614       0.00000270      -0.00000579       0.00001081
I       13.22296748       7.20630001      11.36430425       0.00000729      -0.00000447       0.00000597
I        3.60127493       8.47150018       8.99836171      -0.00000107      -0.00000648      -0.00000146
I       10.98401858       1.71838584      11.40059576       0.00001095      -0.00000527       0.00001354
H        3.98729541       1.61378073      10.52105861      -0.00000424      -0.00000031       0.00000236
H       11.79421046       9.57619252       8.98869945       0.00000280      -0.00000213       0.00000602
H        1.00823732       7.05916636      10.50673871       0.00000128       0.00000277       0.00000476
H       12.35632384       4.09726832       8.99946314       0.00000664      -0.00000597      -0.00000508
H        2.79110775       0.61379865      11.41029756       0.00000008      -0.00000040      -0.00000188
H       10.59806941       8.57614486       9.87792707       0.00000081      -0.00000307       0.00000051
H        1.01604497       7.06738026      12.29376638      -0.00000219       0.00000253       0.00000375
H       13.56919968       3.12259531       8.10508629       0.00000280       0.00000318       0.00000538
H        3.97885470       1.61589325      12.30805890       0.00000080      -0.00000770      -0.00000662
H       10.60651560       8.57404815       8.09092691       0.00000100       0.00000058      -0.00000006
H        2.22897730       6.09266640      11.39951182      -0.00000011      -0.00000695      -0.00000487
H       13.57707826       3.13067320       9.89211394       0.00000426      -0.00000174       0.00002044
H        4.48179028      10.19068403      12.20048386      -0.00000896      -0.00000219       0.00000522
H        9.96178513      10.94447984       9.80784302       0.00000251       0.00000686      -0.00000151
H        0.43281329       4.67590346      10.58444412       0.00000300      -0.00000431       0.00000508
H       15.30283366       4.60838301       8.98343847      -0.00001515       0.00000225      -0.00000020
H        5.74960193       0.17734869      11.42674477      -0.00000362      -0.00000132       0.00000480
H        9.83739631      21.88861657       8.10333863       0.00000279      -0.00000194      -0.00000754
H       -0.71752306       5.58149554      11.41548153      -0.00000863       0.00000486       0.00000868
H       14.15252295       5.51395271       9.81454378       0.00000413       0.00000458      -0.00000042
H        4.62345353      -0.75459242      10.59116492       0.00000694       0.00000088       0.00000263
H        9.82870468      21.88920359       9.76025146      -0.00000178      -0.00000036      -0.00000113
H        0.44001263       4.68197421      12.24127832      -0.00000657       0.00000011      -0.00000405
H       14.14529662       5.50796323       8.15770932       0.00000093       0.00000355      -0.00000201
C        3.81293873       1.00747107      11.41447199       0.00000422      -0.00000097       0.00000021
C       10.77239856       9.18247062       8.98451946      -0.00000253      -0.00000670      -0.00000366
C        1.19756840       6.46045098      11.40224942       0.00000271       0.00000290       0.00000209
C       13.38772480       3.72946065       8.99665683      -0.00000953       0.00001953      -0.00000391
Pb      37.13366021       1.70206551       8.92142868      -0.00000253       0.00000166       0.00000683
Pb      15.88094133       8.88273746      11.34207633      -0.00000035       0.00000722       0.00000709
Pb       6.29627087       6.85465146       9.00093165       0.00000355      -0.00000149       0.00000490
Pb       8.28903189       3.33523358      11.39803303      -0.00000619       0.00000614       0.00000220
N        4.76628998      -0.13284227      11.42014765      -0.00001745      -0.00000042      -0.00000336
N        9.81899253      10.32273718       8.97884881      -0.00000255       0.00000154      -0.00000055
N        0.27338488       5.29646490      11.41143634      -0.00000753       0.00000185      -0.00000781
N       14.31193042       4.89343033       8.98751969       0.00000230      -0.00003460      -0.00000632
I       16.61470222       3.32283717      16.12717282       0.00000235       0.00000744      -0.00000044
I       17.19595840       7.06234520      13.72059921      -0.00000855      -0.00000505       0.00000977
I        7.56944489       8.70492554      16.13434796       0.00000614       0.00000224      -0.00000353
I        7.02661246       1.48278970      13.78116948      -0.00000247       0.00000589       0.00000366
I       14.67450748      21.77012068      13.67340460      -0.00000567       0.00000663       0.00000286
I       38.08464811      10.70197557      16.01148320      -0.00000169      -0.00000096      -0.00000131
I        9.32339140       5.30186866      13.77483239      -0.00000327      -0.00000311       0.00000082
I        5.27266933       4.88584190      16.14067714      -0.00000287      -0.00000110       0.00000610
I        1.36766965       2.98249835      13.79295491       0.00000329      -0.00000364       0.00000541
I       13.22831210       7.20523874      16.12254572       0.00001413       0.00000833       0.00000868
I        3.60664245       8.47040042      13.75665812      -0.00000223       0.00000330       0.00000311
I       10.98940518       1.71728241      16.15889102      -0.00000306       0.00000705       0.00000626
H        3.99265637       1.61271193      15.27935512      -0.00000753       0.00000072      -0.00000813
H       10.61191576       8.57299464      12.84917578      -0.00000342       0.00000008      -0.00000170
H        1.02150494       7.06620890      17.05209717      -0.00000332       0.00000458       0.00000088
H       13.57452837       3.12143656      12.86350308       0.00000691      -0.00001865      -0.00003465
H        2.79645535       0.61266870      16.16850967       0.00000064       0.00000858      -0.00000319
H       11.79958122       9.57509250      13.74703819       0.00000105       0.00000171      -0.00000216
H        2.23432427       6.09147973      16.15770738       0.00000667      -0.00000299       0.00000409
H       13.58238745       3.12964503      14.65052881       0.00001302       0.00000319       0.00001082
H        3.98414428       1.61475456      17.06635510       0.00000230       0.00000594      -0.00000575
H       10.60336557       8.57505325      14.63617468       0.00000042      -0.00000157       0.00001067
H        1.01356077       7.05807474      15.26506980      -0.00000146       0.00000868      -0.00001163
H       12.36166122       4.09619453      13.75779528      -0.00002608       0.00001029      -0.00000786
H        4.49576507      10.18904173      15.30184095       0.00000127      -0.00000233      -0.00000313
H        8.84107786      10.01146451      13.73043658      -0.00001010       0.00000276      -0.00001027
H        0.43805846       4.67482261      15.34272674       0.00000379      -0.00000569      -0.00001015
H       14.15066665       5.50680591      12.91596771      -0.00001049       0.00002545      -0.00003210
H        5.75495782       0.17628268      16.18503261      -0.00000330       0.00000029       0.00000212
H        9.83413299      21.88810280      14.51854042       0.00000473       0.00000289      -0.00000631
H       -0.71219664       5.58043692      16.17386247      -0.00001115       0.00000469      -0.00000080
H       15.30817731       4.60725727      13.74176725       0.00002743      -0.00001132      -0.00001031
H        4.62884433      -0.75566696      15.34941343      -0.00000028      -0.00000576      -0.00000682
H        8.70800740      20.95614860      13.68294596      -0.00000828      -0.00000049      -0.00000029
H        0.44535267       4.68084569      16.99956029      -0.00000067      -0.00000193      -0.00000050
H       14.15787497       5.51289979      14.57279868      -0.00000609       0.00000742       0.00001132
C        3.81827747       1.00636399      16.17273780      -0.00000377      -0.00000421       0.00000750
C       10.77776046       9.18139453      13.74279073       0.00000039      -0.00000743      -0.00000490
C        1.20293235       6.45931122      16.16053915       0.00000102       0.00000760       0.00000084
C       13.39305532       3.72837065      13.75502567      -0.00001158      -0.00002674       0.00001053
Pb      37.13901912       1.70099910      13.67970079      -0.00000155      -0.00000011       0.00000137
Pb      15.88630260       8.88166056      16.10034333       0.00000603       0.00000075      -0.00000421
Pb       6.30164740       6.85356936      13.75921266      -0.00000039      -0.00000118       0.00000304
Pb       8.29441146       3.33414223      16.15630260      -0.00000151      -0.00000104       0.00000840
N        4.77165240      -0.13392879      16.17840868       0.00000332      -0.00000461       0.00000474
N        9.82438058      10.32168267      13.73709150      -0.00000512       0.00000099      -0.00000011
N        0.27869880       5.29536539      16.16974374       0.00000117      -0.00000080       0.00000893
N       14.31727987       4.89232183      13.74581482       0.00001962       0.00002123       0.00002364
I       16.46553612      14.27079751       1.80479611      -0.00000390      -0.00000466       0.00000408
I       17.06826505      18.00599573      18.43128598      -0.00000470      -0.00000187       0.00000300
I        7.42024054      19.65288519       1.81196943      -0.00000125      -0.00000806       0.00000290
I        6.89886783      12.42643852      18.49186318       0.00000217       0.00000629      -0.00000019
I       14.81299120      10.82433162      18.47925200       0.00000079       0.00000190       0.00000007
I       37.93546377      21.64993820       1.68910383       0.00000797       0.00000271      -0.00000024
I        9.19565275      16.24552554      18.48551794       0.00000827      -0.00000254       0.00000156
I        5.12346296      15.83381249       1.81828989      -0.00000608       0.00000063       0.00000278
I        1.23995079      13.92614096      18.50362875       0.00000410      -0.00000437       0.00000416
I       13.07914015      18.15318364       1.80015784       0.00000378      -0.00000504       0.00000168
I        3.47890921      19.41404667      18.46732288      -0.00000401       0.00001283       0.00000457
I       10.84020842      12.66528845       1.83646826       0.00000428      -0.00000214       0.00000556
H        2.64724759      11.56055918       1.84611562      -0.00000561      -0.00000261       0.00000571
H       10.47562421      19.51867360      19.34693395      -0.00000488       0.00000139       0.00000159
H        2.08514213      17.03950634       1.83546542       0.00000462       0.00000008      -0.00000356
H       12.23399821      15.03984196      18.46838655      -0.00001751       0.00000304      -0.00000075
H        3.83491124      12.56269735       2.74393593       0.00000691      -0.00000181       0.00000910
H       10.48418161      19.51657888      17.55993502      -0.00000114      -0.00000015      -0.00000684
H        0.86445314      18.00604145       0.94266175      -0.00000204       0.00000023       0.00000005
H       13.44689748      14.06509627      17.57412028      -0.00000103       0.00000156      -0.00000325
H        3.84342342      12.56060632       0.95693662      -0.00000074       0.00000752      -0.00000385
H       11.67183608      20.51870361      18.45778320       0.00000466       0.00000087      -0.00000943
H        0.87220697      18.01424553       2.72969003       0.00000123       0.00000269      -0.00000155
H       13.45469574      14.07327889      19.36114768      -0.00000119      -0.00000653       0.00000268
H        4.61273800      -0.75245119       1.07461322      -0.00000140       0.00000243       0.00000476
H        8.71333006      20.95505680      18.44116051      -0.00000538       0.00000198      -0.00001040
H        0.28897344      15.62278704       1.02034352       0.00000127       0.00000395      -0.00000184
H       14.02301475      16.45047692      17.62665300      -0.00000697       0.00000303      -0.00001054
H        4.47968082      10.19226206       1.02703911       0.00000419       0.00000187       0.00000263
H        9.98115759      10.94172559      17.66745387      -0.00000364       0.00001282      -0.00001078
H       -0.86136951      16.52840604       1.85134480      -0.00000495      -0.00000358       0.00000622
H       15.18051585      15.55090273      18.45244306       0.00001407      -0.00000146      -0.00000704
H        4.47103526      10.19284078       2.68395297      -0.00001058      -0.00000292       0.00000862
H        9.97254783      10.94232999      19.32436691      -0.00000376      -0.00000103      -0.00000037
H        0.29612320      15.62885982       2.67717754      -0.00000435      -0.00000384      -0.00000449
H       14.03020025      16.45652118      19.28348581       0.00000090       0.00000641      -0.00000902
C        3.66906041      11.95427788       1.85033576       0.00000060       0.00001659      -0.00002048
C       10.65001830      20.12499800      18.45353818       0.00000377      -0.00000432       0.00000272
C        1.05374240      17.40731685       1.83817503       0.00000478       0.00000122       0.00000110
C       13.26539237      14.67201712      18.46564672       0.00000208      -0.00001415      -0.00000092
Pb      37.01130324      12.64463331      18.39040141       0.00001016       0.00000454      -0.00000619
Pb      15.73711745      19.82961975       1.77795062       0.00001322      -0.00000033      -0.00000105
Pb       6.17390833      17.79721131      18.46989671       0.00000225      -0.00000408      -0.00000248
Pb       8.14520254      14.28212525       1.83391133       0.00000041      -0.00000284       0.00000109
N        4.62246291      10.81400871       1.85603295       0.00000238      -0.00000222      -0.00001020
N        9.69663123      21.26527989      18.44781264       0.00000050       0.00000840       0.00000289
N        0.12953177      16.24335251       1.84733084      -0.00000154      -0.00000087       0.00000103
N       14.18961848      15.83596862      18.45648565      -0.00000715       0.00000718       0.00003295
I       16.47090989      14.26972134       6.56305696      -0.00001567       0.00000122       0.00000287
I       17.05213584      18.00923037       4.15648122      -0.00000212      -0.00000368       0.00000052
I        7.42561133      19.65180377       6.57023151       0.00000719      -0.00000174       0.00000011
I        6.88275646      12.42969906       4.21703763       0.00001437      -0.00000214       0.00001358
I       14.79688487      10.82756802       4.20444078       0.00000533      -0.00000317       0.00000671
I       37.94082817      21.64884773       6.44736286      -0.00000079       0.00000264       0.00000423
I        9.17956458      16.24874738       4.21072315       0.00000331       0.00000311      -0.00000013
I        5.12882545      15.83273342       6.57657239       0.00000246      -0.00000053       0.00000434
I        1.22385703      13.92939137       4.22883586      -0.00000288      -0.00000311       0.00000863
I       13.08450169      18.15209655       6.55842970      -0.00000480       0.00000075       0.00000771
I        3.46281333      19.41726911       4.19253488      -0.00000608       0.00001303       0.00000832
I       10.84556477      12.66418871       6.59475813      -0.00000321       0.00000394       0.00000057
H        2.65264184      11.55956516       6.60442280      -0.00000320       0.00000184       0.00000445
H       11.65576049      20.52188223       4.18286989      -0.00000194       0.00000444      -0.00000045
H        0.86981835      18.00495364       5.70097723      -0.00000111      -0.00000614      -0.00000596
H       13.43868060      14.07645669       5.08633013      -0.00000326       0.00000397      -0.00001250
H        3.84036047      12.56165768       7.50222348      -0.00000363       0.00000649      -0.00000248
H       10.45955120      19.52189354       5.07207117       0.00000334      -0.00000570      -0.00000556
H        0.87767730      18.01310400       7.48800481      -0.00000536       0.00000472       0.00000216
H       12.21787331      15.04296128       4.19365287      -0.00000177       0.00000452      -0.00000376
H        3.84881907      12.55959453       5.71522335       0.00000047      -0.00000367      -0.00000265
H       10.46802933      19.51980440       3.28507141      -0.00000345      -0.00001009      -0.00001310
H        2.09052907      17.03835340       6.59368236       0.00000341       0.00000558      -0.00000436
H       13.43078085      14.06830348       3.29930277      -0.00000118      -0.00000606      -0.00000667
H        4.61813006      -0.75354835       5.83288623       0.00000445      -0.00000056      -0.00000740
H        9.82339756      21.89026418       5.00198644      -0.00001109       0.00000701      -0.00001130
H        0.30150765      15.62774403       7.43546310       0.00000330      -0.00000046      -0.00000792
H       15.16436226      15.55419597       4.17754647      -0.00001798       0.00000994       0.00000579
H        4.47642665      10.19179964       7.44220288       0.00000138      -0.00000267      -0.00000104
H        9.96512383      10.94501188       3.39265926      -0.00000160      -0.00000034      -0.00000607
H        0.29428399      15.62170823       5.77862869       0.00000453      -0.00000331      -0.00000767
H       14.01404337      16.45974076       5.00867007       0.00001468      -0.00000743      -0.00001259
H        5.61114364      11.12317192       6.62086937       0.00000043       0.00000053       0.00001004
H        9.95638566      10.94556656       5.04957249       0.00000426       0.00000303       0.00000472
H       -0.85599682      16.52734142       6.60970558      -0.00000887      -0.00000287       0.00000147
H       14.00676713      16.45371509       3.35183730       0.00001013       0.00001956      -0.00002069
C        3.67446517      11.95325712       6.60861832      -0.00000189      -0.00000180      -0.00000065
C       10.63392813      20.12821390       4.17866911       0.00000897       0.00000193       0.00001747
C        1.05914079      17.40619597       6.59646128      -0.00000010       0.00000197       0.00000786
C       13.24928971      14.67519849       4.19084929      -0.00000031       0.00000140       0.00003273