40
Lattice="12.446876313986094 0.18828634646700979 0.10005981350986767 -0.18758166907237556 12.621074304105104 -0.22822997592998745 -0.3802068898266426 0.22934014611706305 12.422177503346706" Properties=species:S:1:pos:R:3:forces:R:3 energy=-123.27154276677676 stress="0.002264516984653928 1.1932412925142317e-06 0.0005262417595467373 1.1932412925142317e-06 0.002922578399998266 1.9678087444384873e-05 0.0005262417595467373 1.9678087444384873e-05 0.0021412594426591836" free_energy=-123.27154276677676 pbc="T T T"
Cs       4.93144567      15.61890425       3.75536896      -0.00001488      -0.00000109      -0.00001429
Cs      -2.11985793       9.21705919       4.70405813      -0.00000091      -0.00001928       0.00000173
Cs      -2.05461221       9.34173206      11.18043835       0.00000617       0.00000375       0.00000412
Cs       4.99675571      15.74363138      10.23190016      -0.00000418       0.00000050       0.00000382
Cs       3.91345170       9.42587512      10.96512779      -0.00001475      -0.00000599       0.00000754
Cs      -1.48207616      15.63945167       9.91650398       0.00001553      -0.00000317      -0.00000847
Cs      -1.03672243      15.53484057       3.97073214       0.00001875      -0.00000911       0.00000565
Cs       4.35886980       9.32125149       5.01955070       0.00001254      -0.00001284      -0.00001478
Pb      -4.69126138       6.07564321       7.53201955       0.00000079       0.00000369       0.00000330
Pb       1.43839613      12.48036869       7.46796559       0.00000718      -0.00003247       0.00001253
Pb      -4.78503739      12.38618629       7.41789669      -0.00000690       0.00000227       0.00000306
Pb       1.53219333       6.16978535       7.58208513       0.00000495       0.00001765       0.00002535
Pb      -4.50113708       5.96101213       1.32093644      -0.00000361      -0.00000247       0.00000093
Pb       1.62851177      12.36566246       1.25688459       0.00001154      -0.00001554      -0.00003177
Pb      -4.59491480      12.27151361       1.20680887      -0.00000223      -0.00001094      -0.00000321
Pb       1.72231487       6.05513287       1.37101782      -0.00000221       0.00002441      -0.00003592
I       -4.27345500       9.24635740       7.94439878       0.00000214       0.00000265      -0.00000224
I        1.83966645      15.65114994       7.89823417      -0.00000707      -0.00002372       0.00000238
I        7.15019499      15.71429258       6.99145592       0.00000822       0.00000224      -0.00000345
I        1.03716921       9.30952484       7.03780305      -0.00001069       0.00003150       0.00000257
I        4.54965684      12.06391598       8.19529974      -0.00000685      -0.00000629      -0.00000854
I       -1.75232278      18.25390514       6.64313881      -0.00003416      -0.00001449       0.00000210
I       -1.67284997      12.89677679       6.74060774       0.00000196       0.00002620      -0.00000921
I        4.62912658       6.70674228       8.29285191       0.00002635       0.00000458      -0.00003985
I        8.25314356      15.63061773       1.73706696       0.00001669      -0.00000158       0.00000970
I        2.14019348       9.22584879       1.78335761      -0.00000756      -0.00002101       0.00001254
I       -5.37632116       9.33005781      13.19867452      -0.00002051      -0.00000195       0.00000912
I        0.73672275      15.73483131      13.15260032      -0.00001454       0.00001279       0.00000364
I       -1.86386984      12.08439203      14.35635012      -0.00001167       0.00000463      -0.00000794
I        4.46860396       5.84165633      13.13246274      -0.00002479      -0.00000857       0.00001141
I        4.74070905      12.87623837       0.57955058      -0.00000654       0.00000994       0.00000029
I       -1.59178175      19.11905182       1.80343859       0.00002635       0.00000286      -0.00000564
I       -4.26968623      18.28157639      10.43781339      -0.00000954       0.00000243       0.00001985
I        0.65404477      12.04380967      10.56316258       0.00001354      -0.00000300       0.00002290
I        7.14646350       6.67910996       4.49806176       0.00002499       0.00000356      -0.00001800
I        2.22273264      12.91688467       4.37275432       0.00000430       0.00002119       0.00001052
I       -5.37926484      11.83490250       4.30201096       0.00001489       0.00001603       0.00000884
I        2.14386038      18.26107111       4.27680215       0.00000129      -0.00001810      -0.00001427
I        8.25611121      13.12569771      10.63383497      -0.00001558       0.00000506       0.00000936
I        0.73296893       6.69956057      10.65915379       0.00000098       0.00001370       0.00002433
