40
Lattice="17.79490360882969 -0.2069999629408724 0.033973594894367666 0.12087643947243559 10.384285202281923 -0.0376179103571881 -0.017900646022297347 0.03493569835507944 9.585389852749739" Properties=species:S:1:pos:R:3:forces:R:3 energy=-124.46935435166718 stress="2.142166638104789e-08 9.084121262168307e-09 -3.2218003459554525e-08 9.084121262168307e-09 -1.6999569444513707e-08 2.5634201279468665e-08 -3.2218003459554525e-08 2.5634201279468665e-08 -4.670984987181945e-08" free_energy=-124.46935435166718 pbc="T T T"
Cs       3.26467345       5.40234369       4.01053327      -0.00000590      -0.00000642      -0.00000290
Cs       9.48506618      13.97476554       1.59452028       0.00000904       0.00001702       0.00000071
Cs       0.54286265      10.62684312       3.98642234       0.00000278      -0.00000500      -0.00000082
Cs      12.20686709       8.75032263       1.61862707       0.00000156      -0.00001221       0.00000995
Cs       3.25570900       5.41978306       8.80323897       0.00000009       0.00000819       0.00000304
Cs       9.47610249      13.99229818       6.38718290       0.00001774      -0.00002426       0.00001851
Cs       0.53394617      10.64429357       8.77912039      -0.00001232       0.00001469      -0.00000984
Cs      12.19790301       8.76778471       6.41134694       0.00001804      -0.00002850      -0.00001662
Pb      -1.47560937       6.25430114       1.60219185       0.00001277       0.00000438       0.00000756
Pb      14.22536824      13.12280604       4.00286617      -0.00000718       0.00000860       0.00000000
Pb       5.31082791      11.36817753       1.59621144       0.00000236       0.00001755       0.00001180
Pb       7.43892082       8.00892105       4.00882677      -0.00001231       0.00000198       0.00000068
Pb      -1.48455134       6.27178585       6.39487724       0.00000614      -0.00002712       0.00000681
Pb      14.21638018      13.14034645       8.79556156       0.00000482      -0.00001141      -0.00001319
Pb       5.30188447      11.38565885       6.38891147      -0.00000168      -0.00001049       0.00000296
Pb       7.42999109       8.02638286       8.80152786      -0.00002235       0.00001158      -0.00000285
I       -2.58609597       8.13029645       3.98967404      -0.00002312      -0.00000597      -0.00000906
I       -2.45906250      11.45385709       1.58137099       0.00001630       0.00001937       0.00001242
I        6.45554771      13.21792451       3.98800663       0.00000436      -0.00000262      -0.00000490
I        6.29420246       6.15917795       1.61703728      -0.00000794       0.00001436       0.00000567
I       13.20149777       4.76575355       1.63506111      -0.00000797       0.00000019      -0.00000552
I       -0.45174584      14.61139159       3.97003096      -0.00000577      -0.00000176       0.00000831
I        8.39796929      10.01447205       1.60693096       0.00001258      -0.00000257      -0.00001173
I        4.35178471       9.36264116       3.99812344      -0.00001355       0.00000845      -0.00000269
I        1.27960657       7.67394645       1.60217222       0.00001201       0.00000268      -0.00000391
I       11.47013714      11.70319275       4.00290670      -0.00000482      -0.00001279      -0.00001074
I        2.58940942      12.85153719       1.58575194       0.00000436       0.00001996      -0.00000657
I       10.16034233       6.52557784       4.01928868       0.00000518      -0.00000241       0.00001107
I       -2.59507868       8.14772774       8.78236330       0.00000380      -0.00000199      -0.00000671
I       -2.46798776      11.47134318       6.37415212      -0.00000542       0.00000123      -0.00002243
I        6.44660597      13.23539355       8.78069168      -0.00000014      -0.00001166       0.00000784
I        6.28522035       6.17667460       6.40974687       0.00001260      -0.00000764      -0.00000367
I       13.19255163       4.78321718       6.42766290       0.00000096       0.00001739       0.00002255
I       -0.46070518      14.62886372       8.76272999      -0.00000228      -0.00000449       0.00000430
I        8.38903099      10.03193086       6.39961267      -0.00001895       0.00000914       0.00000169
I        4.34284494       9.38010153       8.79082539      -0.00000471       0.00000351      -0.00000432
I        1.27067584       7.69140629       6.39487211      -0.00000346       0.00001795      -0.00001301
I       11.46116588      11.72069793       8.79556680       0.00000158      -0.00002268       0.00000409
I        2.58046174      12.86901684       6.37841838       0.00001343       0.00000381       0.00001767
I       10.15140720       6.54301986       8.81201923      -0.00000264      -0.00000006      -0.00000616
