768
Lattice="30.891648801102633 -0.11560258815894484 1.288536362891765 -0.12157584790796332 30.426973461145298 0.0002536169191879973 1.0881528371135705 -0.055231033161818543 17.42609311595833" Properties=species:S:1:pos:R:3:forces:R:3 energy=-3661.4047759968003 stress="7.811927312683614e-09 -2.7101383858505966e-10 -1.1532157613866443e-08 -2.7101383858505966e-10 -2.3109380243598563e-08 1.340764705891615e-08 -1.1532157613866443e-08 1.340764705891615e-08 -5.275813057237683e-08" free_energy=-3661.4047759968003 pbc="T T T"
H       -0.81514163       5.17304285       4.83581683       0.00000874      -0.00001689      -0.00000602
H        1.39082809       5.45353601       5.43785610       0.00000368       0.00001824       0.00001532
H        1.93526091       4.01702182       4.59007738       0.00000797      -0.00001560       0.00000187
H        0.09933552       2.69332519       3.42163962      -0.00000400      -0.00000011       0.00000376
H       -1.49212147       3.38015823       3.51806800      -0.00000422      -0.00000766      -0.00000854
H        4.55824828       7.69806976      10.05546139       0.00000161      -0.00000013       0.00000109
H        4.34133528       5.62590491       2.01528339       0.00000108      -0.00000409       0.00001093
H        4.18244860       4.95144631       0.39296503       0.00000025      -0.00000071      -0.00000778
H        3.78453303       6.61878447      -1.44431620      -0.00000165       0.00000024       0.00000309
H        3.71763656       8.29053926      -0.95443229       0.00001234      -0.00000221       0.00000464
C       -0.07429032       4.43928641       4.50643391      -0.00003283       0.00001580       0.00000872
C        4.02263475       6.98695949       0.56767110      -0.00001014      -0.00000131       0.00000264
N        1.16958220       4.62689902       4.88307115      -0.00001286      -0.00000451      -0.00000577
N       -0.50293612       3.44354176       3.76686344       0.00000767      -0.00000072      -0.00000692
N        4.20195823       5.76719312       1.01399482      -0.00001435       0.00000338      -0.00000787
N        3.80459711       7.30525684      -0.68713962       0.00000668      -0.00000511      -0.00000832
Pb       3.07827271       1.61888962      17.46103618      -0.00000160       0.00000353      -0.00000586
Pb      29.06368629       1.61968612       1.07099861      -0.00000040       0.00000579      -0.00000457
I        3.63101654       2.56737723       2.75434320       0.00000013       0.00000546       0.00000854
I        0.56181840       7.65804759       2.14184895       0.00000054       0.00000551      -0.00000910
I        4.59618417       3.28410616       6.86086159       0.00000196       0.00000399       0.00000149
I        0.34986162       7.89827161       6.55190628      -0.00000039      -0.00000198       0.00000417
I        4.39456950       6.69685382       4.52215320       0.00000289      -0.00000190      -0.00000110
I        0.12519969       4.30352194       0.04257645       0.00000478       0.00000230       0.00000332
H        1.32487563      12.77304510      18.22979279      -0.00000395       0.00000411       0.00000404
H        1.05447970      13.55425706      16.05532594       0.00000142      -0.00000441      -0.00000260
H        1.01761037      11.96319622      15.35543422      -0.00000261      -0.00000501       0.00000888
H        0.69390361       9.98400513       8.18820890       0.00000260       0.00000386      -0.00000400
H        0.97148546      10.35873086       9.86839363      -0.00000635       0.00000229       0.00000112
H        3.39457985      13.84616320       5.70111924      -0.00000436      -0.00000302       0.00001053
H        2.39536610      13.39234022       3.65843459       0.00001178      -0.00000117      -0.00001307
H        3.68620807      14.10362297       2.72372487      -0.00000446      -0.00000269       0.00000260
H        5.66151440      14.98086229       4.11208653       0.00000299       0.00000124      -0.00000099
H       27.45425675      12.38572017       4.04955305      -0.00000008       0.00000058       0.00000419
C        1.25852049      12.05414683      17.40591040      -0.00000366       0.00001848       0.00000199
C        3.90053768      14.13300815       4.77674034       0.00002137       0.00000198      -0.00000668
N        1.08081986      12.54113572      16.19946808      -0.00000078      -0.00000124      -0.00000592
N        0.79904300      10.69501293       8.92156776       0.00000979      -0.00001340      -0.00000959
N        3.29195965      13.88314925       3.64274446      -0.00000013      -0.00000034      -0.00001368
N        5.07655285      14.70400658       4.90554648       0.00000035       0.00000631       0.00000822
Pb       2.33408019       9.19043354       4.31635299       0.00001057       0.00000063      -0.00000166
Pb      29.35560001       8.91561304       5.42452908      -0.00000143      -0.00000504      -0.00000395
I        3.99973176      10.71458285       6.63794035       0.00000725      -0.00000167      -0.00000752
I        0.66727668      15.90603554       6.23514965      -0.00000875      -0.00000219       0.00000117
I        4.33716529      10.52250893       2.15920947       0.00000106      -0.00000267       0.00000598
I       30.73205352      15.30896979       3.33224254       0.00000300       0.00000100       0.00000369
I        4.90191308      14.20005386      17.43838373       0.00000071       0.00000085      -0.00000385
I        0.30326257      11.73485427       3.95839018       0.00000021       0.00000687      -0.00000154
H        7.90333620       5.33153438       3.91893358      -0.00000043       0.00000295      -0.00000964
H        7.95369423       3.09959632       3.33166468      -0.00000390       0.00000734       0.00002390
H        8.10954074       2.53495741       4.98827341      -0.00000361       0.00000834      -0.00001241
H        8.15630337       4.36723131       6.74959737       0.00000512      -0.00000531       0.00001658
H        8.04325690       5.99838159       6.14865097      -0.00000086       0.00001790       0.00000817
H       12.98417663       6.19411891       7.93783729       0.00000512      -0.00000023      -0.00000786
H       14.50366181       5.72779272      18.70817985       0.00002085      -0.00000932       0.00000239
H       13.18352639       6.38440934      19.65016108       0.00000244       0.00000287       0.00002111
H       11.22277451       7.29133562      18.26929323       0.00001724      -0.00001170      -0.00000900
H       11.43409814       7.18142021      16.54019007       0.00001023      -0.00000943       0.00002321
C        7.99379634       4.57260196       4.70288088       0.00000145      -0.00001702      -0.00001835
C       12.98810655       6.45528989      17.59601269      -0.00000556       0.00000367      -0.00000196
N        8.00744805       3.31481066       4.32778770       0.00000771      -0.00001030      -0.00001097
N        8.08396837       4.99286310       5.94226679      -0.00000757      -0.00000628      -0.00000798
N       13.59386560       6.19403522      18.73046641      -0.00001891       0.00000656      -0.00002230
N       11.80582981       7.01411376      17.47284683      -0.00003455       0.00001309      -0.00001592
Pb       9.73983440       1.62543215       0.40004162      -0.00000233      -0.00000262      -0.00001348
Pb       5.87743874       1.57813593       0.44369566       0.00000312      -0.00000099      -0.00000231
I       11.65715288       2.71197999       2.78446723       0.00000067       0.00000065       0.00000132
I        8.10497700       7.98919695       2.48720604      -0.00000035      -0.00000251       0.00000745
I       12.10365669       3.14623029       7.06312349       0.00000285      -0.00000227      -0.00000344
I        7.96899644       8.37184666       7.09332452      -0.00000093       0.00000093       0.00000156
I       11.75006556       6.54221319       4.93265659       0.00000008      -0.00000141       0.00000022
I        7.76435273       4.18254908       0.77660511       0.00000082       0.00000031      -0.00000144
H        7.31982645      10.51737142       0.79025537      -0.00000092       0.00001018      -0.00000653
H        9.53184414      11.05171200       1.25624016       0.00000314      -0.00000207       0.00001245
H        9.49134798      12.53667709       0.35664898       0.00002390       0.00001392      -0.00000773
H        7.90413258      12.03194411       7.26611195      -0.00000466       0.00000429      -0.00000535
H        6.60879986      12.66627665       8.25286476      -0.00000238      -0.00000733       0.00000269
H       12.09422801      13.18226697       5.65787173      -0.00000802      -0.00000648       0.00001274
H       12.01051662      15.43225875       6.20374978       0.00000484       0.00000486       0.00002318
H       11.85962175      15.95876202       4.53779805      -0.00000188       0.00001024      -0.00000932
H       11.86218564      14.09923270       2.81145949       0.00000257      -0.00001646       0.00001462
H        5.44931264      14.85204541       5.84208853      -0.00000167       0.00000425      -0.00000362
C        7.74294617      11.44146734       0.38883108       0.00004390      -0.00004848       0.00002788
C       12.00325088      13.92878254       4.86132684      -0.00000271      -0.00001549      -0.00004319
N        8.99338848      11.70713988       0.68923671      -0.00006019      -0.00001229      -0.00000467
N        7.52233547      12.21234680       8.20177021       0.00001503      -0.00000113      -0.00000051
N       11.97058199      15.19247142       5.21329977       0.00000277       0.00001567      -0.00000180
N       11.93282996      13.48678890       3.62771256      -0.00000325       0.00000794       0.00000420
Pb      10.00087845       9.29430313       4.75225063      -0.00000545      -0.00000166       0.00000819
Pb       6.16034816       9.49661307       4.59889866      -0.00000518       0.00000578       0.00000360
I       11.99880809      10.58510512       6.91354207       0.00000105      -0.00000140      -0.00001504
I        8.31196009      15.76389049       6.70255722      -0.00000332       0.00000226       0.00000415
I       12.02689805      10.12590497       2.35533724       0.00000037       0.00000161      -0.00001160
I        7.76042430      15.24325361       2.41216794       0.00000543      -0.00000344       0.00000299
I       12.75936866      14.20227337      17.50253107      -0.00000565       0.00000521      -0.00000159
I        8.21453598      11.95020198       4.59947959       0.00000895       0.00000489      -0.00000427
H        1.77983585       4.58773831      11.78480156       0.00000041      -0.00000141       0.00000051
H        2.77401258       4.98326441      13.82848859       0.00000124       0.00000571       0.00000518
H        1.45042030       4.32250202      14.75796384       0.00000213      -0.00000296       0.00001456
H       -0.53584320       3.48997560      13.32826467      -0.00000041       0.00000699       0.00000387
H       -0.28549247       3.64288771      11.59684104       0.00000902      -0.00000280       0.00000068
H        4.06732612       7.80876332       1.28905600       0.00000425       0.00000022       0.00000547
H        4.92054279       5.47439286      10.58937029      -0.00000375      -0.00000788       0.00000231
H        4.72322567       4.92636223       8.92692971      -0.00000303      -0.00000226       0.00000060
H        4.23311668       6.73217548       7.23864606       0.00000184      -0.00000253      -0.00000458
H        4.13793871       8.35339408       7.86092823      -0.00000254       0.00000111      -0.00000503
C        1.25237016       4.30809377      12.69832023      -0.00001232      -0.00000544      -0.00001561
C        4.51355356       6.93983229       9.26958253      -0.00000283       0.00000600      -0.00000319
N        1.85532070       4.53696939      13.84113489       0.00000690      -0.00000072      -0.00001539
N        0.06371093       3.77071165      12.54675867       0.00000055       0.00000697       0.00000771
N        4.73750116       5.69300456       9.61047332       0.00000474       0.00000152       0.00000360
N        4.25085008       7.35330874       8.05215423      -0.00000040       0.00000293      -0.00000205
Pb       2.46440084       1.69746972       8.72661068      -0.00001072       0.00000607       0.00000140
Pb      29.53459434       1.53911559       9.74395985       0.00000425      -0.00000595       0.00000242
I        4.31198372       2.46592005      11.34468794       0.00000504       0.00000940       0.00000562
I        1.14097260       7.65099728      10.90716479      -0.00000046      -0.00000026       0.00000454
I        5.21325591       3.26000833      15.68899471      -0.00000148      -0.00000627       0.00000199
I        0.91822753       7.99666990      15.34749520       0.00000407      -0.00000854       0.00000503
I        4.95319977       6.55260292      13.18242452      -0.00000418       0.00000560       0.00000132
I        0.45586758       4.21918809       8.86691873      -0.00000091      -0.00000466       0.00000329
H        0.78506200      12.65982945       9.55132249       0.00000200       0.00001130       0.00001613
H        0.38249364      13.54335896       7.43065637       0.00000157      -0.00000530       0.00001362
H        0.31718937      11.98293604       6.66652876       0.00000124       0.00000009       0.00001002
H        1.26966874      10.03169745      17.00037572      -0.00000104       0.00000428      -0.00000236
H        1.46729946      10.49771701      18.67305073       0.00000041       0.00000333      -0.00000124
H        4.92227919      13.08168131      13.98632678      -0.00000203       0.00001495      -0.00000506
H        4.36232528      12.86344856      11.74006186       0.00000067      -0.00000437      -0.00000244
H        4.30045321      14.59479289      11.48156097      -0.00000479      -0.00000051      -0.00000081
H        4.88512648      16.02458608      13.43798865       0.00000308       0.00001444      -0.00000348
H       27.97554804      12.39888809      12.77034463      -0.00000226       0.00000060      -0.00000083
C        0.67564378      11.98195024       8.69831248      -0.00001126       0.00001155      -0.00001304
C        4.79738521      13.97946574      13.37156652       0.00000674       0.00000423       0.00003591
N        0.41930987      12.52424311       7.53019970       0.00000076      -0.00000318      -0.00000557
N        1.35119716      10.77916902      17.70061062       0.00000535      -0.00002012       0.00001029
N        4.43275735      13.81107768      12.12231734      -0.00000010      -0.00001067      -0.00002015
N        5.01052234      15.14169399      13.94187130      -0.00001049      -0.00001928      -0.00000694
Pb       2.92293056       9.13374660      13.07232704       0.00000555       0.00000091      -0.00001001
Pb      29.95815126       8.90254595      14.24805889      -0.00000655       0.00000235       0.00000033
I        4.71939500      10.63139438      15.40155133       0.00000949       0.00000371      -0.00000517
I        1.32611747      15.94624392      14.95228297       0.00000069      -0.00000354      -0.00001089
I        4.92187881      10.44118463      10.86883468       0.00000513      -0.00000319       0.00000333
I       31.28927539      15.20193936      11.98839864      -0.00000500      -0.00000473       0.00000534
I        4.34743403      14.21235560       8.54332918       0.00000377      -0.00000104       0.00000529
I        0.96076507      11.65130038      12.67704577       0.00000524      -0.00000703      -0.00000367
H        8.41026048       5.21402500      12.62865537       0.00000629      -0.00000010       0.00000130
H        8.20685766       2.99060297      12.01514579       0.00000175      -0.00000805      -0.00001157
H        8.42082096       2.39543156      13.65525561       0.00000150      -0.00000782       0.00000985
H        8.75749505       4.17450368      15.41971851      -0.00000434       0.00000473       0.00001031
H        8.74082540       5.82089255      14.85058022      -0.00000045      -0.00000597      -0.00000365
H       13.50677942       6.19244926      16.67216240       0.00000103      -0.00000566      -0.00000900
H       13.91944495       5.79844893      10.00601460       0.00000179      -0.00000259      -0.00000381
H       12.56030670       6.44637278      10.89717610       0.00000205      -0.00000105       0.00000582
H       10.62402124       7.27719757       9.42904906       0.00000782       0.00000177      -0.00000005
H       10.90239853       7.13097309       7.70487496      -0.00000024      -0.00000952      -0.00000721
C        8.47958728       4.43364864      13.39388607       0.00000448       0.00000579       0.00000340
C       12.42596622       6.46632008       8.83536029       0.00000840      -0.00000440       0.00000959
N        8.34267799       3.18782214      13.00665710      -0.00000324       0.00001040       0.00000590
N        8.70157431       4.81979855      14.62882038       0.00000568      -0.00000443       0.00000328
N       12.99726102       6.23916267       9.99503814      -0.00001055       0.00000509      -0.00000249
N       11.23914627       6.99893293       8.65726531      -0.00001141       0.00000267       0.00000992
Pb      10.19361471       1.53181183       9.14892086      -0.00000931      -0.00000291       0.00000276
Pb       6.33538596       1.51467276       8.98630583       0.00000667       0.00000512       0.00000208
I       12.08089106       2.69226269      11.52237982      -0.00000432       0.00000172       0.00000195
I        8.76545220       7.78799029      11.27193018       0.00000257      -0.00000601      -0.00000546
I       12.72526093       3.13125079      15.78048447      -0.00000283      -0.00000148       0.00000631
I        8.59179506       8.22292478      15.75950669      -0.00000536       0.00000321       0.00000142
I       12.43509045       6.50053532      13.66846791      -0.00000430       0.00000582      -0.00000740
I        8.25284811       4.10407126       9.44039826      -0.00000001      -0.00000773      -0.00000064
H        7.66396315      12.17890918      10.25835401       0.00000279       0.00000369       0.00000851
H        9.73307358      11.19971542      10.32620536      -0.00000082       0.00000387       0.00000858
H        9.91084650      11.11528617       8.58998591      -0.00000125      -0.00000561       0.00000190
H        7.27650907      13.08538318      -0.76330159       0.00000495       0.00001560      -0.00000123
H        6.00694424      11.90968349      -0.53187654       0.00001262       0.00000274       0.00000394
H       12.77406796      13.10934340      14.33880421       0.00000325       0.00000406       0.00000491
H       12.70930541      15.35864574      14.88643750      -0.00000568       0.00000460      -0.00000339
H       12.51841925      15.88784279      13.22527521       0.00000980      -0.00000075      -0.00000453
H       12.45792996      14.02538440      11.49872719      -0.00000207      -0.00000392      -0.00000467
H        5.20894916      15.16756588      14.94310321      -0.00000439      -0.00000047       0.00001024
C        8.15653133      11.93206848       9.31579662      -0.00001724       0.00001115      -0.00000244
C       12.66114058      13.85674164      13.54572210      -0.00000007      -0.00003306      -0.00002001
N        9.34283994      11.37421404       9.40192114       0.00000491      -0.00000019      -0.00000396
N        6.96594624      12.20104436      -0.34976167      -0.00003722       0.00000276      -0.00000719
N       12.63813142      15.12059965      13.89829566      -0.00000450       0.00003319       0.00000551
N       12.55622159      13.41482762      12.31476196      -0.00000011       0.00000973       0.00002400
Pb      10.64871747       9.24425185      13.46789699       0.00001208       0.00000685      -0.00000032
Pb       6.80256555       9.33218448      13.27380746      -0.00001665      -0.00000664       0.00000250
I       12.68694876      10.51237990      15.59730586      -0.00000438      -0.00000048      -0.00000191
I        8.89515269      15.53327485      15.50186082      -0.00000267       0.00000474      -0.00001269
I       12.64517014      10.05338062      11.05055980      -0.00000667      -0.00000342       0.00000877
I        8.14687714      15.23751248      11.17614376      -0.00000637       0.00000345      -0.00000457
I       12.18167328      14.24802179       8.80728572       0.00000744      -0.00000150      -0.00000330
I        8.77769249      11.81792438      13.17552463      -0.00000288       0.00000651      -0.00000177
H        1.04899962      19.80648923       3.08482269       0.00000193      -0.00000320      -0.00000309
H        2.13147866      20.22219745       5.08908672       0.00001491      -0.00000080       0.00000502
H        0.83799964      19.57925498       6.07236015       0.00001013       0.00000417      -0.00000053
H       -1.20424187      18.74798475       4.74984761      -0.00000247       0.00000074      -0.00000724
H       -1.04593143      18.86237842       3.01696264       0.00000415      -0.00000122       0.00000476
H        4.41051862      22.89178078      10.07400845      -0.00000005       0.00000481       0.00001104
H        4.35610647      20.82223212       1.95662977      -0.00000574       0.00000180       0.00001288
H        4.13647487      20.18562343       0.33052993       0.00000118       0.00000018      -0.00001716
H        3.56121100      21.88160363      -1.43595118       0.00000336      -0.00000206      -0.00000012
H        3.46398562      23.53629675      -0.90220645      -0.00000839       0.00000345       0.00000491
C        0.56183142      19.54048333       4.02553140       0.00003295       0.00001492       0.00002016
C        3.90536401      22.21039402       0.56769258       0.00001004       0.00000716       0.00001244
N        1.21296533      19.77728526       5.13955133      -0.00002240      -0.00000802      -0.00002069
N       -0.63682312      19.00996509       3.93791361      -0.00003003      -0.00001120      -0.00000214
N        4.16347799      20.98838719       0.96858185       0.00000379       0.00000296       0.00000004
N        3.59724880      22.54917563      -0.66239538       0.00000429       0.00000388      -0.00001234
Pb       3.03962422      16.86347134      17.64813673       0.00000526       0.00000641      -0.00000154
Pb      28.98635033      16.85600212       1.09587699      -0.00000498      -0.00000606      -0.00000223
I        3.81303688      17.74830585       2.69795692      -0.00000317      -0.00000306       0.00000168
I        0.49741052      22.88298173       2.12732985       0.00000015      -0.00000913      -0.00001059
I        4.55199109      18.45621658       6.91247079       0.00000095       0.00000268       0.00000878
I        0.20921913      23.20825499       6.61090122      -0.00000352      -0.00000435      -0.00000392
I        4.27700368      21.82415841       4.51939668       0.00000073       0.00000351       0.00000080
I        0.05052601      19.51828446       0.15636194      -0.00000103      -0.00000770       0.00000677
H        1.23399788      27.88342941      18.21805072       0.00000283       0.00000206       0.00001370
H        0.96869178      28.75415271      16.06658321      -0.00000162      -0.00000458       0.00000484
H        0.84275634      27.18701830      15.32521294      -0.00000211       0.00000720       0.00000427
H        0.49452235      25.25213977       8.27855418       0.00000153       0.00000882      -0.00000518
H        0.73438936      25.74607155       9.94035708      -0.00000613      -0.00000148       0.00000888
H        4.32657371      28.38168943       5.20418681      -0.00000928       0.00002757      -0.00001712
H        2.48479693      28.47853437       3.77324915      -0.00001283      -0.00001787       0.00000016
H        2.78820160      30.14509780       3.34320470      -0.00000135       0.00001968      -0.00001183
H        4.71456932      31.24074048       4.40292777       0.00000289       0.00001167      -0.00001043
H       27.36725016      27.50010698       4.04189698      -0.00000215       0.00001360       0.00000337
C        1.11649420      27.20014188      17.37082085      -0.00000543      -0.00000326      -0.00001195
C        4.10754494      29.30904460       4.66658079       0.00003776      -0.00001179       0.00003189
N        0.94624356      27.73592224      16.18458474       0.00000315       0.00000312      -0.00000684
N        0.61020483      26.00927732       8.96366746       0.00000409      -0.00000612      -0.00000297
N        3.06830766      29.31148498       3.86247550      -0.00000142      -0.00000976       0.00000320
N        4.88881286      30.34453484       4.86789156      -0.00001571      -0.00002369      -0.00000237
Pb       2.20904881      24.37738752       4.33931373      -0.00000155       0.00000360       0.00000425
Pb      29.21861827      24.06568889       5.46547775      -0.00002142       0.00000811       0.00000712
I        3.93908496      25.88232575       6.65643588       0.00000739       0.00000354       0.00000741
I        0.71616872       0.71914506       6.20018959       0.00000894       0.00000279      -0.00000153
I        4.23698268      25.76390861       2.23686933      -0.00000226       0.00000257       0.00000943
I       30.84482169       0.06631413       3.31730679       0.00000242      -0.00000467       0.00000140
I        4.86638907      29.40450235      17.43927868      -0.00001204       0.00000040      -0.00000101
I        0.21190945      26.88201518       3.90480644      -0.00000034      -0.00000015       0.00000308
H        7.79637408      20.52287684       3.94912373      -0.00000333       0.00000204      -0.00001262
H        7.78941820      18.29915931       3.30682349      -0.00000083      -0.00001159      -0.00003368
H        7.97551998      17.69823156       4.94807753       0.00000091      -0.00001266      -0.00000101
H        8.10476048      19.48051668       6.74488426       0.00000523      -0.00000013      -0.00000991
H        7.99972195      21.12763860       6.18722518      -0.00000137      -0.00003777      -0.00001605
H       12.85755092      21.40772713       7.98982673       0.00000329      -0.00000689      -0.00000967
H       14.36598703      20.95560385      18.73835693      -0.00000975      -0.00000465       0.00000078
H       13.03057420      21.61529508      19.65327096       0.00000045       0.00000268      -0.00000360
H       11.08957594      22.50446222      18.22378883      -0.00000530      -0.00000093       0.00000302
H       11.34360228      22.38024585      16.49605854      -0.00000213       0.00000255      -0.00001130
C        7.89167262      19.74041774       4.70961632       0.00001089       0.00001369       0.00003139
C       12.87085512      21.67092659      17.59402103       0.00000896      -0.00000012       0.00001265
N        7.87128911      18.49224799       4.30450244      -0.00000044      -0.00000404       0.00001296
N        8.02452915      20.12731992       5.95652986      -0.00000300       0.00003968       0.00000915
N       13.45337522      21.41486474      18.74223413      -0.00000149       0.00000747      -0.00000983
N       11.69114106      22.22702013      17.44123541      -0.00000594      -0.00000196       0.00000084
Pb       9.70765217      16.83181381       0.39661034       0.00000147      -0.00000152      -0.00000583
Pb       5.81964297      16.78324699       0.38828902       0.00000012      -0.00000191       0.00000031
I       11.55925887      17.94250646       2.82916422      -0.00000077      -0.00000396       0.00000103
I        8.02346765      23.06813151       2.54438650       0.00000287       0.00000073       0.00000368
I       12.07625825      18.34109958       7.13576226       0.00000803      -0.00000599       0.00000875
I        7.88650749      23.52487001       7.10979032       0.00000324       0.00000087       0.00000493
I       11.71597123      21.73142449       4.98493890       0.00000154      -0.00000089       0.00000066
I        7.74683180      19.36702479       0.69981104       0.00000204       0.00000890       0.00000572
H        7.00098190      27.43110835       1.54579129       0.00001076       0.00000432      -0.00000145
H        9.08014798      26.44646934       1.64259673       0.00000710      -0.00000097       0.00000797
H        9.27570364      26.36746170      -0.08931322      -0.00001293       0.00000491      -0.00000224
H        7.75290365      27.23163676       7.27472496      -0.00000584      -0.00000089       0.00000454
H        6.46403204      27.86601605       8.27188398       0.00001517      -0.00000478      -0.00000630
H       12.05077753      28.37479610       5.60123999       0.00000586      -0.00002328       0.00001469
H       12.02997733      30.61916410       6.16577540       0.00000055      -0.00000059      -0.00001503
H       11.87196963      31.16424802       4.50521443      -0.00000327      -0.00004334       0.00003182
H       11.79626018      29.31616621       2.76296134      -0.00000503       0.00002143      -0.00003078
H        5.68780589      30.27977789       5.49804593       0.00001330      -0.00000357       0.00000847
C        7.51158952      27.18141789       0.61367032      -0.00000517       0.00000054       0.00000980
C       11.96632318      29.12916991       4.81150058       0.00000886       0.00005853       0.00001903
N        8.69693190      26.62425214       0.71664127      -0.00000160      -0.00000711      -0.00001382
N        7.37675491      27.40932288       8.21137829      -0.00000688      -0.00000305      -0.00001166
N       11.96614148      30.39007325       5.17430446      -0.00000098       0.00002865      -0.00002321
N       11.86861280      28.69774480       3.57567173       0.00000269      -0.00002658       0.00003353