320
Lattice="25.117167797060432 -0.09942898589547293 0.245739354310531 0.09234873414682507 24.803169083916103 0.36969369071538927 -0.23051060692048364 0.5679749800243742 24.79898651320745" Properties=species:S:1:pos:R:3:forces:R:3 energy=-986.6363403110472 stress="0.0016931874703282103 -1.0687641906621583e-07 1.4060881235257286e-05 -1.0687641906621583e-07 0.00147375035918736 -0.0002717249593593788 1.4060881235257286e-05 -0.0002717249593593788 0.0014803931220381413" free_energy=-986.6363403110472 pbc="T T T"
Cs      10.87483161       6.46096664       3.15760188       0.00001684      -0.00000436       0.00000588
Cs       4.67009929      24.11986572       2.41283160       0.00000127       0.00001986       0.00001102
Cs       4.61604157      24.56717408       8.30499964      -0.00002516      -0.00000033       0.00000014
Cs      10.82068351       6.90815256       9.04981364       0.00000741       0.00001790      -0.00001348
Cs      10.88652433      25.20536887       9.63480088      -0.00000481       0.00000655      -0.00001318
Cs       4.54326731       5.65944991       8.33547646       0.00001682       0.00000881      -0.00002250
Cs       4.60438338       5.82272673       1.82792747      -0.00000965      -0.00002770       0.00001277
Cs      10.85519081       0.56529512       2.75763348       0.00001194       0.00003917      -0.00000183
Pb       1.48930476      21.73967227       5.76233705       0.00001408      -0.00001417       0.00000221
Pb       7.69925211       3.11244666       5.54651250       0.00002613      -0.00002492      -0.00003444
Pb       1.41995148       3.13731402       5.48505289       0.00001629      -0.00000079      -0.00001132
Pb       7.76844962      21.71482171       5.82379137       0.00002108       0.00004833       0.00000362
Pb       1.54674278      21.59763876      -0.43740886       0.00002973      -0.00000427       0.00002953
Pb       7.52633460       3.53842673      24.14573167      -0.00001337      -0.00002875       0.00000785
Pb       1.47753189       2.99527700      -0.71471811       0.00003163      -0.00002395       0.00000207
Pb       7.59557502      22.14080594      24.42300772       0.00001801       0.00002755       0.00001955
I        1.99521491      24.84608202       5.09864692      -0.00000748       0.00001480       0.00000053
I        8.19190885       6.20304315       6.31238029       0.00000815       0.00001916       0.00001725
I       13.49559073       6.18196200       6.36402383       0.00000514       0.00002073      -0.00000088
I        7.29888700      24.82498869       5.15026675       0.00000503      -0.00001287       0.00000350
I       10.83238349       2.61367974       6.04946185      -0.00001980      -0.00000242      -0.00000683
I        4.57606651       8.85714372       6.09806437       0.00000462       0.00000668       0.00002201
I        4.56612545       3.61118492       5.04358296      -0.00002950      -0.00001409      -0.00001461
I       10.91477378      22.17081021       5.36470814      -0.00002503      -0.00000643      -0.00000235
I       14.31148408       6.61994538      23.54344842       0.00000712       0.00001012      -0.00000519
I        8.31865766      24.66344993       0.38998114       0.00001119      -0.00002737      -0.00001505
I        0.94862513      24.97608936      12.71820217       0.00002739      -0.00002894      -0.00000524
I        7.17216788       6.36465341      11.07276354      -0.00003084      -0.00002371       0.00000693
I        4.49536281       2.79847936      12.20539236       0.00001439       0.00000751       0.00001362
I       10.84400259      21.35820513      12.52646209      -0.00002195       0.00002296      -0.00001416
I       10.67259989       3.99436534      23.68655486      -0.00000537       0.00000473      -0.00001834
I        4.41631219      10.23779690      23.73519356      -0.00001919       0.00001691      -0.00001150
I        0.92941180      10.12556824       8.65913951       0.00001843       0.00000337      -0.00000721
I        7.17987354       2.47059371       8.65538646       0.00001113       0.00000872       0.00001694
I       14.56137546      20.90248795       2.80354815       0.00001588      -0.00001502      -0.00000942
I        8.21865187       3.75433366       2.43762768      -0.00000643      -0.00001771       0.00000959
I        0.96403959       3.78277735       2.36694608      -0.00002717       0.00000247       0.00001447
I        7.26056976       8.52932176       2.54800572      -0.00001296       0.00001812      -0.00000600
I       14.43452214       2.44209856       8.72603951       0.00002575       0.00000809       0.00002845
I        8.23033450      22.49877973       8.91464207      -0.00001158       0.00000748       0.00001178
Cs      10.75958556       6.74516022      15.55702529       0.00000635      -0.00000400       0.00001847
Cs       4.55489364      24.40387949      14.81243964      -0.00000717       0.00000900      -0.00002002
Cs       4.50078525      24.85097000      20.70445609      -0.00000367       0.00001922       0.00000491
Cs      10.70541993       7.19219024      21.44924722       0.00000432      -0.00001386      -0.00000858
Cs      10.77120198      25.48921942      22.03434629      -0.00000494       0.00001280      -0.00000382
Cs       4.42807391       5.94339310      20.73484437      -0.00000497      -0.00000124      -0.00000464
Cs       4.48905166       6.10669078      14.22749531       0.00001165       0.00000548      -0.00000030
Cs      10.73999498       0.84947302      15.15705174      -0.00001250      -0.00001632       0.00000762
Pb       1.37396809      22.02366769      18.16183974       0.00000656      -0.00003748      -0.00003619
Pb       7.58405288       3.39644083      17.94600023      -0.00002320      -0.00003584       0.00001744
Pb       1.30474947       3.42129574      17.88457120       0.00003421      -0.00001279      -0.00003347
Pb       7.65327276      21.99879507      18.22322138      -0.00000858       0.00001274      -0.00001201
Pb       1.43160549      21.88170188      11.96202422       0.00001342       0.00002860       0.00006000
Pb       7.64164224       3.25447646      11.74628571       0.00002432      -0.00004097      -0.00001418
Pb       1.36231660       3.27930403      11.68481752      -0.00003551      -0.00000491       0.00003167
Pb       7.71085322      21.85685783      12.02349057       0.00002648       0.00000399       0.00000429
I        1.87992420      25.13006997      17.49815900      -0.00001486       0.00002604      -0.00000243
I        8.07664994       6.48707766      18.71180705      -0.00000177      -0.00001659       0.00002010
I       13.38033878       6.46595102      18.76344769      -0.00001069      -0.00003405       0.00001767
I        7.18377693      25.10897631      17.54972767      -0.00001026      -0.00000673       0.00002244
I       10.71710384       2.89757724      18.44904988       0.00000007       0.00001397       0.00000500
I        4.46086119       9.14131747      18.49778646      -0.00001539      -0.00001184      -0.00001468
I        4.45091047       3.89501169      17.44298988      -0.00000807       0.00001535      -0.00001329
I       10.79952383      22.45484093      17.76400094      -0.00002662      -0.00000819       0.00001274
I       14.42692723       6.33602503      11.14405568       0.00000790       0.00001508       0.00000148
I        8.20349446      24.94746640      12.78943008      -0.00000146       0.00003114       0.00001237
I        1.06374459      24.69202048       0.31863199       0.00000163       0.00000897       0.00001830
I        7.05686214       6.64858386      23.47218608       0.00001204       0.00002776       0.00001395
I        4.61057380       2.51447486      -0.19407275       0.00000435       0.00000048      -0.00000036
I       10.95928091      21.07429041       0.12697025      -0.00004938       0.00000242      -0.00000638
I       10.78793101       3.71042019      11.28711046      -0.00003851      -0.00000759       0.00000065
I        4.53154060       9.95392264      11.33562871       0.00000716       0.00000714       0.00000167
I        0.81426786      10.40966944      21.05867871       0.00000348      -0.00000039      -0.00002123
I        7.06452977       2.75450016      21.05485937       0.00002270       0.00001341      -0.00002736
I       14.44605209      21.18635699      15.20302080       0.00000125       0.00001136      -0.00000343
I        8.10347468       4.03839726      14.83714093      -0.00000826      -0.00000790      -0.00000162
I        0.84878775       4.06686157      14.76647355       0.00000955      -0.00000682       0.00001706
I        7.14517425       8.81341545      14.94751548       0.00001316      -0.00002205      -0.00001971
I       14.31910074       2.72594249      21.12550925       0.00000433       0.00001281      -0.00005026
I        8.11501234      22.78265985      21.31414358       0.00000140       0.00000355      -0.00002946
Cs      10.92097187      18.86268369       3.34253019       0.00000871      -0.00000357      -0.00001671
Cs       4.62397194      11.71834573       2.22794284      -0.00001241      -0.00001575       0.00000812
Cs       4.56984993      12.16541640       8.11998029      -0.00001461       0.00000582       0.00003239
Cs      10.86681714      19.31001249       9.23450624       0.00001576      -0.00001772       0.00000260
Cs      10.84027151      12.80364694       9.45002410       0.00000863       0.00001171      -0.00002440
Cs       4.58950769      18.06077974       8.52029316      -0.00002712       0.00004419      -0.00000937
Cs       4.65060800      18.22424776       2.01264318      -0.00000617      -0.00000076       0.00001798
Cs      10.90141135      12.96698201       2.94240317      -0.00001230      -0.00000862       0.00001851
Pb       1.44305276       9.33808434       5.57748045      -0.00002459      -0.00000446      -0.00003449
Pb       7.74547177      15.51398677       5.73131065       0.00002395      -0.00001569       0.00000206
Pb       1.46623406      15.53889668       5.66985065       0.00000621      -0.00001388      -0.00000438
Pb       7.72231886       9.31321323       5.63889709       0.00000275      -0.00001107      -0.00003635
Pb       1.50064862       9.19601542      -0.62226039      -0.00002097       0.00000965       0.00002062
Pb       7.57262519      15.94000286      24.33053011      -0.00000706       0.00000306      -0.00000098
Pb       1.52375756      15.39687042      -0.52991181       0.00000244       0.00001993       0.00000648
Pb       7.54943227       9.73920453      24.23812485       0.00000300      -0.00001758      -0.00000215
I        1.94901875      12.44449466       4.91372521      -0.00000226      -0.00000127       0.00001422
I        8.23802777      18.60462526       6.49718692       0.00002009      -0.00001817       0.00002410
I       13.54178630      18.58356802       6.54885487      -0.00000830      -0.00005165      -0.00000760
I        7.25276388      12.42338032       4.96534990       0.00000985      -0.00000339       0.00000323
I       10.87854004      15.01515897       6.23440658      -0.00004185       0.00001853      -0.00003698
I        4.62226735      21.25877662       6.28326806      -0.00001706       0.00001145      -0.00003226
I        4.61236660      16.01269407       5.22825983      -0.00000809      -0.00000131       0.00000068
I       10.86856257       9.76918883       5.17966001       0.00001146       0.00001520      -0.00000510
I       14.35788964      19.02156547      23.72830337      -0.00000438      -0.00000139       0.00000699
I        8.27258052      12.26185274       0.20502943      -0.00000824       0.00002178       0.00001652
I        0.90236877      12.57450678      12.53322970       0.00002609       0.00001387       0.00000549
I        7.21824208      18.76625036      11.25759652       0.00001224      -0.00000220      -0.00001753
I        4.54151741      15.20020369      12.39013600      -0.00000253      -0.00003406       0.00000004
I       10.79785118       8.95677325      12.34151527      -0.00002922       0.00000524       0.00003106
I       10.71887242      16.39599516      23.87123666      -0.00006647      -0.00000360       0.00002847
I        4.46244365      22.63940997      23.92003591       0.00002285      -0.00000629      -0.00000728
I        0.97571204      22.52732358       8.84397865      -0.00001032      -0.00000791      -0.00000640
I        7.22597161      14.87205614       8.84016116       0.00000352       0.00000735      -0.00003115
I       14.51513678       8.50075669       2.61867039       0.00000562       0.00001759       0.00002612
I        8.26493503      16.15590401       2.62242808      -0.00000349      -0.00000798       0.00000300
I        1.01037490      16.18443948       2.55174741      -0.00000754      -0.00000588       0.00003515
I        7.30665795      20.93098200       2.73291523      -0.00001017      -0.00003248      -0.00004060
I       14.48058727      14.84360871       8.91080269      -0.00002020       0.00001373      -0.00002114
I        8.18410319      10.09707693       8.72976481      -0.00001316       0.00001770       0.00002987
Cs      10.80582467      19.14659791      15.74195728      -0.00002524      -0.00001153       0.00000393
Cs       4.50866383      12.00243784      14.62739649      -0.00000686      -0.00000444       0.00001916
Cs       4.45461018      12.44958324      20.51974040      -0.00000878      -0.00001690      -0.00001407
Cs      10.75157909      19.59382072      21.63415579       0.00002571       0.00001302      -0.00002318
Cs      10.72509513      13.08767577      21.84943867      -0.00001095       0.00000501      -0.00003443
Cs       4.47426853      18.34494552      20.91969143      -0.00002037       0.00001776      -0.00000030
Cs       4.53525506      18.50831144      14.41230150      -0.00000185       0.00000926       0.00000450
Cs      10.78619143      13.25087224      15.34194392      -0.00000171      -0.00000740      -0.00002174
Pb       1.32787121       9.62211998      17.97703387      -0.00001943       0.00002123      -0.00002618
Pb       7.63024209      15.79800311      18.13074381       0.00000744       0.00001559       0.00000341
Pb       1.35087159      15.82289858      18.06931209      -0.00000778       0.00001278      -0.00000733
Pb       7.60707756       9.59728564      18.03838038       0.00004846      -0.00000502       0.00004380
Pb       1.38536530       9.48010648      11.77722948      -0.00005414       0.00000137       0.00001391
Pb       7.68781547      15.65607098      11.93101643       0.00002161      -0.00000629       0.00000661
Pb       1.40844376      15.68092646      11.86955892      -0.00000156      -0.00003087       0.00001057
Pb       7.66464217       9.45526221      11.83866460       0.00004327       0.00005982      -0.00003629
I        1.83374756      12.72851361      17.31324177       0.00002077      -0.00002957       0.00001051
I        8.12292083      18.88861728      18.89665560      -0.00001717       0.00000112       0.00000723
I       13.42646992      18.86754234      18.94834845       0.00000549      -0.00002732       0.00000760
I        7.13747532      12.70741210      17.36483627       0.00000969      -0.00000285       0.00000532
I       10.76333563      15.29913348      18.63378033      -0.00002261       0.00002936       0.00000561
I        4.50700048      21.54275560      18.68244185       0.00003464       0.00000769      -0.00000438
I        4.49706787      16.29665719      17.62781789       0.00002181      -0.00000404      -0.00000484
I       10.75338955      10.05322761      17.57931843      -0.00006104       0.00000274      -0.00002978
I       14.47302230      18.73762249      11.32876430      -0.00002854       0.00002728      -0.00000140
I        8.15728431      12.54591079      12.60458425      -0.00000771      -0.00002835      -0.00000531
I        1.01775354      12.29044282       0.13377009       0.00000988      -0.00001632       0.00000278
I        7.10303817      19.05018472      23.65707252       0.00002062      -0.00001150       0.00000037
I        4.65682403      14.91602356      -0.00948696       0.00003394       0.00000680       0.00002730
I       10.91307730       8.67264481      -0.05791182      -0.00001835      -0.00001101       0.00001097
I       10.83404021      16.11214787      11.47162472      -0.00001551      -0.00003427       0.00002400
I        4.57777337      22.35559732      11.52056038      -0.00004040      -0.00000494      -0.00001081
I        0.86033387      22.81115083      21.24349928      -0.00000191      -0.00000880       0.00001248
I        7.11085821      15.15617106      21.23962761       0.00000122      -0.00001657       0.00000573
I       14.40004442       8.78503190      15.01818300      -0.00000355      -0.00002294      -0.00002454
I        8.14969837      16.43988622      15.02187991      -0.00000415       0.00001681       0.00004129
I        0.89488811      16.46837112      14.95121500      -0.00000989       0.00000223       0.00001477
I        7.19145539      21.21492390      15.13235101      -0.00000052       0.00000282       0.00003365
I       14.36545044      15.12769474      21.31032457       0.00002090      -0.00000817       0.00000027
I        8.06885708      10.38114235      21.12926164      -0.00000195       0.00000013       0.00000922
Cs      23.43339863       6.41116351       3.28066986      -0.00000016      -0.00000554       0.00001243
Cs      17.22879594      24.07025490       2.53566522       0.00000722      -0.00000092      -0.00001107
Cs      17.17455902      24.51725848       8.42798756      -0.00000172       0.00001098       0.00000450
Cs      23.37926116       6.85840085       9.17264416      -0.00001066       0.00002828       0.00000269
Cs      23.44505025      25.15570423       9.75756848      -0.00000456       0.00001474      -0.00000722
Cs      17.10180513       5.60991360       8.45821460      -0.00000066      -0.00000817      -0.00001966
Cs      17.16296452       5.77298180       1.95055886      -0.00000168       0.00001837       0.00003842
Cs      23.41377883       0.51557980       2.88067483       0.00002087       0.00001104      -0.00001860
Pb      14.04783367      21.68997059       5.88520002       0.00000541       0.00002988       0.00001180
Pb      20.25771698       3.06273386       5.66937479       0.00000243       0.00005112       0.00000494
Pb      13.97854962       3.08756877       5.60793976      -0.00001218       0.00002236      -0.00001675
Pb      20.32701188      21.66510768       5.94664344      -0.00000324      -0.00001430       0.00000626
Pb      14.10549836      21.54797336      -0.31454383      -0.00000838      -0.00002254      -0.00002285
Pb      20.08506418       3.48867310      24.26855364      -0.00003118      -0.00000316       0.00000492
Pb      14.03613063       2.94555239      -0.59182200       0.00000469       0.00000922       0.00000499
Pb      20.15428340      22.09103098      24.54588700      -0.00001177      -0.00001233       0.00000811
I       14.55395220      24.79637037       5.22152787      -0.00003031      -0.00001613       0.00000284
I       20.75034066       6.15335689       6.43532578       0.00002871       0.00000116       0.00000272
I        0.93709025       6.23168304       6.24116911      -0.00001264       0.00002294       0.00001408
I       19.85747559      24.77530054       5.27318557       0.00000264      -0.00003805      -0.00000848
I       23.39090272       2.56426292       6.17235656       0.00001542      -0.00003414      -0.00001101
I       17.13463961       8.80766219       6.22089842       0.00000283      -0.00000907      -0.00000411
I       17.12465817       3.56160828       5.16629570       0.00004829      -0.00000675       0.00001494
I       23.47335788      22.12095334       5.48762548      -0.00000312       0.00000338      -0.00000538
I        1.75308666       6.66962016      23.42053299       0.00000145       0.00005231       0.00001728
I       20.87757090      24.61367714       0.51274453      -0.00002927       0.00000968      -0.00000538
I       13.50736501      24.92637929      12.84111005      -0.00000496      -0.00002711      -0.00001004
I       19.73058109       6.31492423      11.19567073      -0.00000071      -0.00000658      -0.00000700
I       17.05395419       2.74870568      12.32856577      -0.00001362       0.00001174      -0.00001784
I       23.40262110      21.30843280      12.64928037       0.00002414       0.00000336       0.00000975
I       23.23124373       3.94482033      23.80920169      -0.00003238      -0.00001161      -0.00000998
I       16.97492621      10.18799147      23.85812600       0.00000288      -0.00001151       0.00000646
I       13.48807275      10.07586847       8.78197488       0.00001591       0.00001023       0.00001282
I       19.73825737       2.42088843       8.77826003       0.00000918      -0.00000347      -0.00004910
I        2.00291385      20.95215634       2.68068309      -0.00003289       0.00000083       0.00001974
I       20.77722117       3.70455073       2.56047384       0.00001179      -0.00000761       0.00001068
I       13.52264473       3.73307923       2.48984295      -0.00002457      -0.00001304       0.00000583
I       19.81911646       8.47957350       2.67092145       0.00001773      -0.00000505       0.00000945
I        1.87582445       2.49182151       8.60314999       0.00002056      -0.00002467      -0.00001574
I       20.78886349      22.44911334       9.03751612      -0.00002281      -0.00001663      -0.00001339
Cs      23.31818477       6.69527502      15.68025709      -0.00000121      -0.00001968      -0.00000900
Cs      17.11354661      24.35396492      14.93533839      -0.00000253       0.00001540       0.00001008
Cs      17.05931972      24.80133449      20.82727749      -0.00000282       0.00000684       0.00001250
Cs      23.26406318       7.14261635      21.57191204      -0.00002047      -0.00001383       0.00002522
Cs      23.32982304      25.43973499      22.15682957      -0.00000492       0.00000027       0.00002056
Cs      16.98650927       5.89344737      20.85788405       0.00000633       0.00003691      -0.00000601
Cs      17.04771014       6.05702495      14.35045119      -0.00000541      -0.00000358      -0.00000662
Cs      23.29854734       0.79979595      15.28001797      -0.00000353      -0.00002118      -0.00001361
Pb      13.93251662      21.97393804      18.28467392      -0.00001523       0.00003081      -0.00001417
Pb      20.14252244       3.34674634      18.06882364      -0.00002315      -0.00002001       0.00000516
Pb      13.86320180       3.37154559      18.00740557       0.00002092       0.00001447       0.00003017
Pb      20.21188854      21.94909078      18.34615329       0.00002142      -0.00000755      -0.00002225
Pb      13.99014774      21.83199033      12.08495149      -0.00000072      -0.00001162       0.00000097
Pb      20.20016870       3.20473728      11.86913021      -0.00001652       0.00002109       0.00000087
Pb      13.92098266       3.22960324      11.80771618       0.00000861      -0.00000338       0.00000019
Pb      20.26951780      21.80710577      12.14636650       0.00000774       0.00001174       0.00001021
I       14.43853373      25.08033754      17.62095468      -0.00001651       0.00000542       0.00000052
I       20.63502318       6.43734972      18.83480461       0.00000911      -0.00000750       0.00000220
I        0.82201473       6.51569703      18.64067722       0.00000433      -0.00000002       0.00000809
I       19.74240556      25.05926736      17.67261258       0.00000216       0.00001306       0.00001174
I       23.27569707       2.84837759      18.57176466       0.00003400      -0.00002689       0.00000601
I       17.01936565       9.09139727      18.62082255       0.00005194       0.00000147      -0.00001424
I       17.00939826       3.84532088      17.56590760       0.00000152      -0.00001465      -0.00000786
I       23.35812499      22.40510678      17.88692474      -0.00000023       0.00000360      -0.00002048
I        1.86830762       6.38571506      11.02115842      -0.00000169       0.00001773      -0.00000536
I       20.76209761      24.89773800      12.91229671       0.00000648      -0.00000598       0.00001289
I       13.62255817      24.64233614       0.44162599       0.00000698      -0.00000536      -0.00000104
I       19.61548450       6.59883109      23.59502936      -0.00000207      -0.00000838       0.00000594
I       17.16922547       2.46475394      -0.07145601       0.00003187       0.00000147       0.00000813
I       23.51784074      21.02402159       0.25001495      -0.00001514       0.00001259      -0.00000264
I       23.34644377       3.66071372      11.40995488       0.00000735      -0.00000555      -0.00000152
I       17.09020541       9.90434995      11.45849125      -0.00000942       0.00000449      -0.00001422
I       13.37281729      10.35987039      21.18151265       0.00001855      -0.00000366       0.00001471
I       19.62319838       2.70470386      21.17768651       0.00002086       0.00002217      -0.00000380
I        1.88748949      21.23619322      15.08015488       0.00000601       0.00000261      -0.00002702
I       20.66203235       3.98868183      14.95998385      -0.00001746       0.00000356       0.00002141
I       13.40727863       4.01718252      14.88935202       0.00000723      -0.00001942       0.00000141
I       19.70379288       8.76376667      15.07042796      -0.00000456      -0.00000382       0.00000398
I        1.76069206       2.77567845      21.00262640      -0.00001861       0.00001645      -0.00001038
I       20.67371997      22.73292504      21.43703781       0.00000519       0.00000790      -0.00003105
Cs      23.47965134      18.81265409       3.46573978      -0.00000894       0.00001457      -0.00002860
Cs      17.18256884      11.66842070       2.35094991       0.00001765      -0.00000163       0.00001134
Cs      17.12842239      12.11587753       8.24285661      -0.00000131      -0.00001541       0.00001592
Cs      23.42543740      19.26030842       9.35730771       0.00000834      -0.00000748       0.00000359
Cs      23.39890501      12.75416619       9.57241828      -0.00000125       0.00000612       0.00002052
Cs      17.14799490      18.01110998       8.64316286       0.00000555       0.00001874       0.00000172
Cs      17.20909626      18.17457278       2.13571384       0.00001060      -0.00001485      -0.00001219
Cs      23.46000461      12.91738728       3.06523548      -0.00000505      -0.00003106       0.00000538
Pb      14.00157113       9.28838692       5.70031502       0.00002017      -0.00004781      -0.00000444
Pb      20.30396674      15.46432972       5.85412440      -0.00003212      -0.00001230      -0.00002176
Pb      14.02462221      15.48916188       5.79272589       0.00000903       0.00000841       0.00003761
Pb      20.28094031       9.26351748       5.76178859       0.00000792       0.00000163      -0.00000465
Pb      14.05924224       9.14638298      -0.49938402       0.00002268      -0.00002081      -0.00002641
Pb      20.13105738      15.89027164      24.45339501       0.00000770       0.00003866       0.00001516
Pb      14.08238273      15.34719457      -0.40698923       0.00001327       0.00000531      -0.00000265
Pb      20.10810166       9.68944488      24.36104668      -0.00002102      -0.00001048      -0.00000968
I       14.50753092      12.39477836       5.03655174       0.00000227       0.00001157       0.00001629
I       20.79646268      18.55494496       6.62016238       0.00000810      -0.00000327      -0.00000531
I        0.98338501      18.63327099       6.42608630       0.00001611      -0.00001145      -0.00001080
I       19.81150093      12.37368681       5.08820472      -0.00000751       0.00004995       0.00000856
I       23.43716015      14.96595358       6.35695438       0.00000693      -0.00001123       0.00000773
I       17.18080486      21.20899020       6.40598399       0.00002479       0.00002307      -0.00000122
I       17.17082192      15.96290114       5.35122777       0.00002313      -0.00002227      -0.00000741
I       23.42720192       9.71951686       5.30254217      -0.00002331       0.00000326      -0.00002522
I        1.79927162      19.07124311      23.60537175      -0.00000768      -0.00001229       0.00000460
I       20.83117474      12.21211480       0.32789160       0.00001256      -0.00002207       0.00001406
I       13.46113115      12.52483670      12.65614007       0.00000545      -0.00003529       0.00002482
I       19.77696787      18.71650999      11.38032909      -0.00000183      -0.00001725       0.00001791
I       17.10013405      15.15052711      12.51276689       0.00002903      -0.00001018       0.00002529
I       23.35639802       8.90666784      12.46458665       0.00000791       0.00000634      -0.00001513
I       23.27736892      16.34622856      23.99436838      -0.00000701      -0.00000858      -0.00001162
I       17.02113643      22.58976548      24.04286931       0.00002580       0.00001941       0.00000923
I       13.53431483      22.47756083       8.96685546      -0.00001040      -0.00000365       0.00003109
I       19.78471689      14.82235417       8.96299511      -0.00001051      -0.00000518      -0.00000841
I        1.95660378       8.55054712       2.49582726      -0.00000346       0.00000807      -0.00000432
I       20.82334111      16.10628635       2.74526829       0.00000197      -0.00001268       0.00003081
I       13.56864972      16.13472841       2.67464263       0.00001370       0.00000286       0.00001353
I       19.86523536      20.88126164       2.85576798       0.00000360      -0.00000853       0.00002538
I        1.92206260      14.89325026       8.78792430       0.00001124       0.00001398      -0.00003095
I       20.74277952      10.04741340       8.85267816      -0.00001394      -0.00001612      -0.00003455