320
Lattice="25.290226820985534 -0.24910213588256794 -0.26223396746044314 0.235650164811407 25.023589357995988 1.0850922526817068 0.18573296399695735 -1.2006138283410719 25.021193503022033" Properties=species:S:1:pos:R:3:forces:R:3 energy=-985.2922471425023 stress="0.004026408324128056 -1.730218255992868e-05 -7.011544548714163e-05 -1.730218255992868e-05 0.0033165325470272985 0.0007038215110030353 -7.011544548714163e-05 0.0007038215110030353 0.0034562734769952065" free_energy=-985.2922471425023 pbc="T T T"
Cs      11.47514426       5.59443977       0.24819264      -0.00000760       0.00000340       0.00001205
Cs       5.32784934      23.56485595       1.91246245       0.00001168       0.00000879       0.00000429
Cs       5.37272630      23.46090876       8.38294396      -0.00000178       0.00001011      -0.00000959
Cs      11.51979566       5.49060016       6.71840399       0.00001215      -0.00000631       0.00000507
Cs      11.69829971      24.06191101       7.31721962       0.00000733       0.00000426      -0.00000142
Cs       5.19769508       4.49645416       7.35356287      -0.00001140       0.00002271       0.00000942
Cs       5.14932979       4.99335349       1.31383959      -0.00000332       0.00000079      -0.00000746
Cs      11.65007838      24.55858231       1.27734786       0.00001593      -0.00000332      -0.00000129
Pb       2.16019919      20.84584176       4.65233268      -0.00000279      -0.00003594      -0.00003054
Pb       8.30605924       2.01584041       3.77291585      -0.00001656      -0.00001061      -0.00000426
Pb       1.98329936       2.07812873       3.83855606       0.00000064       0.00001722       0.00001350
Pb       8.48271421      20.78354248       4.58680076       0.00000513      -0.00000261       0.00000522
Pb       2.29963690      19.94536849      23.41818855      -0.00001857       0.00001153       0.00000190
Pb       8.44532431       1.11540203      22.53881955      -0.00002345       0.00001051       0.00000436
Pb       2.12278921       1.17767050      22.60440407       0.00001368      -0.00000134      -0.00000907
Pb       8.62206623      19.88313086      23.35270248       0.00000782      -0.00000670      -0.00000727
I        1.69958126      24.00640873       4.15127802       0.00000995       0.00000566       0.00000930
I        7.85494971       5.11988541       4.55727770      -0.00002786      -0.00000222       0.00000638
I       15.14797687       5.04888786       4.47967757       0.00000293       0.00001190      -0.00001047
I        8.99289852      23.93538716       4.07373916       0.00000282       0.00001898      -0.00001169
I       11.47672554       2.41656907       4.25849282      -0.00001148      -0.00000297       0.00000627
I        5.21310110       8.78001610       4.55401503       0.00001976      -0.00000536       0.00000367
I        5.13533000       1.61513069       3.28754149      -0.00000771       0.00002041      -0.00002497
I       11.63454980      20.27519655       4.07679560      -0.00000494      -0.00002336       0.00000709
I       14.30731641       4.21370285      21.97220959      -0.00001009       0.00004304      -0.00001480
I        8.17063450      22.98715770      24.13702018       0.00000548       0.00002594      -0.00001439
I        2.72587110      23.64097133      11.68002603      -0.00000264      -0.00000048      -0.00000398
I        8.86292085       4.86755400       9.51516879      -0.00001769       0.00000948       0.00000934
I        5.20068755       2.22400304      10.53814345       0.00000107      -0.00000324      -0.00001559
I       11.69989700      20.88433848      11.32829097       0.00001591      -0.00001002      -0.00001776
I       11.59712835       0.60680845      22.02886173      -0.00003090      -0.00000804      -0.00000418
I        5.33363671       6.97050247      22.32449629      -0.00000323       0.00002565      -0.00001096
I        1.58706777       8.83064585       7.27176812      -0.00000754      -0.00001054      -0.00000603
I        7.83833817       1.22753517       6.87420468      -0.00001181      -0.00002431      -0.00001251
I       15.26069610      20.22467420       1.35917160      -0.00000628       0.00000985      -0.00000333
I        8.77387727       2.80419162       0.67164448      -0.00000764       0.00000190       0.00003243
I        1.48148409       2.87475769       0.74533208       0.00000376      -0.00000099       0.00001434
I        7.85065505       7.78346515       0.89014602      -0.00000606       0.00000759       0.00002231
I       15.13057357       1.15702710       6.80058814      -0.00001009      -0.00001571       0.00003469
I        8.99721306      21.27158722       7.74083727      -0.00001974       0.00000442       0.00002158
Cs      11.56801028       4.99423600      12.75877005      -0.00000630       0.00000387       0.00002584
Cs       5.42077195      22.96432943      14.42283428      -0.00000406       0.00000011       0.00000964
Cs       5.46551782      22.86054873      20.89324750      -0.00000884      -0.00000339       0.00000883
Cs      11.61265531       4.89026580      19.22901832       0.00001428       0.00000196       0.00002545
Cs      11.79119623      23.46163845      19.82778616      -0.00000640       0.00000476       0.00001264
Cs       5.29050201       3.89657294      19.86446468      -0.00000333       0.00000900      -0.00000913
Cs       5.24217172       4.39302178      13.82409286       0.00000708       0.00000126       0.00000306
Cs      11.74300918      23.95843757      13.78803899       0.00000822      -0.00001312      -0.00000684
Pb       2.25300899      20.24559351      17.16289623      -0.00001985       0.00000628       0.00004055
Pb       8.39880190       1.41561410      16.28350305      -0.00004699      -0.00000611      -0.00000014
Pb       2.07630229       1.47791663      16.34911597       0.00003326      -0.00000672      -0.00000234
Pb       8.57563720      20.18334121      17.09737225      -0.00000280      -0.00003067      -0.00001007
Pb       2.20665104      20.54567565      10.90759738      -0.00002319      -0.00003914       0.00000767
Pb       8.35259995       1.71572681      10.02824840      -0.00002782      -0.00000352      -0.00000379
Pb       2.02990880       1.77797683      10.09380255       0.00001738       0.00000289       0.00002635
Pb       8.52936002      20.48340407      10.84215043       0.00001335      -0.00002694      -0.00003315
I        1.79253654      23.40618716      16.66183576       0.00001053      -0.00001998      -0.00000850
I        7.94755229       4.51963904      17.06786440      -0.00000295      -0.00000401      -0.00000524
I       15.24076722       4.44865373      16.99035336      -0.00000633      -0.00000520       0.00000559
I        9.08564917      23.33516843      16.58421104       0.00000756      -0.00000302       0.00002564
I       11.56950399       1.81625930      16.76907476       0.00003566       0.00001633      -0.00000590
I        5.30596158       8.18003200      17.06479666      -0.00001647       0.00000824       0.00000153
I        5.22819337       1.01476235      15.79770796       0.00003557      -0.00001052       0.00000330
I       11.72749645      19.67515447      16.58743324       0.00000418      -0.00002233      -0.00000678
I       14.21430101       4.81402439       9.46163522       0.00003197       0.00002116       0.00000219
I        8.07796296      23.58744028      11.62639136      -0.00000109       0.00002624       0.00001628
I        2.81888380      23.04068162      24.19059332       0.00001266       0.00001676      -0.00001707
I        8.95572237       4.26726044      22.02575093      -0.00001583      -0.00002694      -0.00000070
I        5.29349738       1.62393721      23.04891254       0.00002059       0.00000211      -0.00000911
I       11.79265966      20.28396168      23.83863544      -0.00001098       0.00001560      -0.00001272
I       11.50435279       1.20700370       9.51824128       0.00000587       0.00003073       0.00001257
I        5.24081431       7.57053770       9.81342577       0.00001523       0.00000307       0.00000982
I        1.67977925       8.23025467      19.78238913       0.00000832       0.00000778       0.00001955
I        7.93103669       0.62725943      19.38476763      -0.00001533      -0.00000098       0.00001554
I       15.35390860      19.62446400      13.86978182      -0.00002639      -0.00000479      -0.00000803
I        8.86677322       2.20398932      13.18225508       0.00000732       0.00000721       0.00001274
I        1.57442556       2.27453508      13.25589937       0.00000275      -0.00000502       0.00000394
I        7.94334504       7.18334324      13.40075582       0.00000572       0.00000146      -0.00002894
I       15.22323558       0.55662375      19.31119450      -0.00000264      -0.00000560      -0.00002521
I        9.08996849      20.67147156      20.25141921      -0.00000260      -0.00000111       0.00001343
Cs      11.59287955      18.10620380       0.79083850       0.00000902       0.00001915       0.00000229
Cs       5.21006448      11.05268995       1.36959947      -0.00000681       0.00002043       0.00000957
Cs       5.25486411      10.94895348       7.84003875      -0.00000299       0.00001218      -0.00003006
Cs      11.63762677      18.00196028       7.26090954      -0.00001078       0.00004325       0.00002394
Cs      11.58047328      11.55013473       6.77456796      -0.00000444       0.00001896       0.00000890
Cs       5.31546911      17.00879912       7.89646297       0.00000332       0.00000537       0.00000847
Cs       5.26716566      17.50513795       1.85616615      -0.00000417      -0.00002297      -0.00001206
Cs      11.53221213      12.04691609       0.73487455       0.00000913      -0.00001871      -0.00001518
Pb       2.04232969       8.33405027       4.10970343       0.00001374       0.00000084       0.00001260
Pb       8.42366638      14.52765240       4.31542599      -0.00001325      -0.00002437       0.00001308
Pb       2.10127903      14.58996596       4.38107144       0.00001462      -0.00001868       0.00000137
Pb       8.36497567       8.27174232       4.04417268      -0.00002143       0.00001583      -0.00003992
Pb       2.18167464       7.43356304      22.87559315       0.00003076      -0.00001554      -0.00000285
Pb       8.56315533      13.62724827      23.08138206      -0.00001385      -0.00002583      -0.00002769
Pb       2.24061926      13.68950320      23.14693606       0.00001626      -0.00001024       0.00000512
Pb       8.50434886       7.37129189      22.81011556      -0.00000246       0.00000813      -0.00001506
I        1.58186176      11.49463820       3.60868759       0.00000806       0.00000907      -0.00001336
I        7.97252100      17.63169492       5.09981232      -0.00001824      -0.00001682      -0.00000380
I       15.26564001      17.56066096       5.02233993       0.00000577      -0.00003288      -0.00001079
I        8.87490024      11.42360625       3.53109585       0.00001968       0.00000472       0.00000132
I       11.59442394      14.92823723       4.80069801       0.00002845       0.00000944       0.00003291
I        5.33091549      21.29210238       5.09683579       0.00000149      -0.00000496       0.00000804
I        5.25312404      14.12672935       3.82957505      -0.00001432       0.00001187      -0.00001615
I       11.51681239       7.76352948       3.53409596      -0.00000314      -0.00001311       0.00001728
I       14.42512975      16.72551149      22.51475368      -0.00001305      -0.00002208      -0.00002254
I        8.05294979      10.47535178      23.59437885      -0.00000082       0.00001076       0.00001445
I        2.60836351      11.12916569      11.13723560      -0.00000757      -0.00001460       0.00003164
I        8.98072569      17.37934640      10.05779473      -0.00001519      -0.00001734      -0.00000295
I        5.31845578      14.73613311      11.08090332       0.00001738      -0.00000011      -0.00001502
I       11.58198262       8.37263366      10.78538941      -0.00000119      -0.00000938      -0.00000754
I       11.71495025      13.11868456      22.57149066       0.00002639      -0.00000087      -0.00001344
I        5.45146178      19.48223197      22.86677429      -0.00000109      -0.00001617      -0.00001255
I        1.70483940      21.34238535       7.81440254      -0.00001224      -0.00000359      -0.00000021
I        7.95592770      13.73942651       7.41671166      -0.00000227      -0.00000759       0.00000749
I       15.14314987       7.71290827       0.81651818      -0.00001026       0.00001089      -0.00000244
I        8.89154793      15.31608238       1.21418603       0.00001187      -0.00000245       0.00002172
I        1.59941536      15.38660422       1.28785286      -0.00000043       0.00000471      -0.00000858
I        7.96832348      20.29544775       1.43276503      -0.00000164      -0.00001656      -0.00000824
I       15.24808266      13.66869749       7.34309860       0.00002053      -0.00000015      -0.00002538
I        8.87930771       8.75993439       7.19820440       0.00000459      -0.00001108       0.00000291
Cs      11.68581744      17.50593526      13.30167255      -0.00000255      -0.00000971      -0.00002042
Cs       5.30289760      10.45294143      13.88052892       0.00001391      -0.00001151      -0.00000545
Cs       5.34773670      10.34878471      20.35088397       0.00000082      -0.00000728       0.00000292
Cs      11.73044617      17.40201679      19.77160506       0.00001461       0.00000116       0.00001685
Cs      11.67326116      10.94996210      19.28533031       0.00000759      -0.00000933       0.00000069
Cs       5.40837107      16.40823343      20.40675467      -0.00001167       0.00000459       0.00001220
Cs       5.35996100      16.90495015      14.36695998       0.00000434      -0.00001472      -0.00000648
Cs      11.62507471      11.44651901      13.24539548      -0.00000094      -0.00001068       0.00000895
Pb       2.13522917       7.73378614      16.62031472       0.00003054      -0.00004367       0.00000973
Pb       8.51666932      13.92739378      16.82605027       0.00000055      -0.00001729       0.00001815
Pb       2.19395303      13.98968077      16.89173608       0.00001595       0.00004460      -0.00002076
Pb       8.45775014       7.67146886      16.55477186       0.00001292       0.00001286       0.00000625
Pb       2.08902454       8.03383467      10.36493805       0.00000214       0.00001317       0.00000719
Pb       8.47024047      14.22750747      10.57076542       0.00000852       0.00001489      -0.00001790
Pb       2.14777719      14.28975139      10.63632848       0.00000167       0.00000443      -0.00000464
Pb       8.41139438       7.97161498      10.29949417      -0.00004124      -0.00003407      -0.00000993
I        1.67459146      10.89436707      16.11940622      -0.00000268       0.00001217      -0.00002068
I        8.06565994      17.03144771      17.61043101      -0.00002611       0.00001570       0.00000706
I       15.35858373      16.96040036      17.53282010       0.00001171       0.00004316       0.00000815
I        8.96785863      10.82334760      16.04176773       0.00000311      -0.00000103      -0.00001700
I       11.68737079      14.32811592      17.31149098       0.00000036       0.00000162       0.00002092
I        5.42377698      20.69158311      17.60725870       0.00000552       0.00001436      -0.00001002
I        5.34597900      13.52678136      16.34062345      -0.00001827      -0.00002401      -0.00001719
I       11.60962420       7.16321428      16.04474637      -0.00000941      -0.00001637       0.00001071
I       14.33218004      17.32579408      10.00424215       0.00001147       0.00002410       0.00001979
I        7.95981867      11.07563151      11.08370214       0.00000589       0.00004005       0.00003260
I        2.70094176      10.52887949      23.64795941       0.00000270       0.00001683       0.00000911
I        9.07349039      16.77908366      22.56836079      -0.00001191       0.00000727      -0.00002152
I        5.41131983      14.13567062      23.59127869       0.00001795       0.00000478       0.00000946
I       11.67492145       7.77226639      23.29609953       0.00000604      -0.00001336      -0.00001496
I       11.62205823      13.71880142      10.06076612      -0.00001548       0.00001788       0.00000878
I        5.35862530      20.08266801      10.35658031      -0.00002780      -0.00000539      -0.00002047
I        1.79771405      20.74216296      20.32498813       0.00000349      -0.00000239       0.00001096
I        8.04896041      13.13904476      19.92732516      -0.00000176       0.00000206       0.00000056
I       15.23582334       7.11274718      13.32715271      -0.00000401      -0.00002800       0.00000671
I        8.98446056      14.71568405      13.72478123       0.00002931       0.00000514       0.00000589
I        1.69208815      14.78610959      13.79845273       0.00000891       0.00001016       0.00001421
I        8.06130856      19.69500658      13.94336940       0.00001530       0.00000616       0.00002534
I       15.34097019      13.06840271      19.85370308       0.00001931       0.00001209       0.00003442
I        8.97218708       8.15958186      19.70882641      -0.00000607       0.00000413       0.00000114
Cs      24.12021715       5.46993413       0.11702659       0.00001051       0.00000382       0.00001305
Cs      17.97300841      23.43995307       1.78113781      -0.00000022       0.00000248       0.00000958
Cs      18.01757378      23.33619615       8.25155233      -0.00000358       0.00000037      -0.00000431
Cs      24.16490693       5.36638055       6.58765785       0.00000263       0.00000523       0.00000923
Cs      24.34335850      23.93740323       7.18648131      -0.00000830       0.00001214      -0.00000504
Cs      17.84272320       4.37235759       7.22267510      -0.00000126      -0.00000789       0.00000623
Cs      17.79464453       4.86867369       1.18242027      -0.00000032      -0.00000364      -0.00000040
Cs      24.29521810      24.43368777       1.14587219      -0.00001553      -0.00000738       0.00001084
Pb      14.80529142      20.72124017       4.52127517       0.00000026       0.00001800      -0.00001954
Pb      20.95115850       1.89127393       3.64185900      -0.00000591       0.00001199       0.00001568
Pb      14.62868399       1.95356293       3.70736613       0.00003685       0.00000038       0.00000413
Pb      21.12794458      20.65899237       4.45565103      -0.00001431      -0.00001489      -0.00000239
Pb      14.94449553      19.82078693      23.28716976       0.00002272       0.00003170       0.00000645
Pb      21.09050061       0.99083569      22.40773613      -0.00002417      -0.00001564       0.00001832
Pb      14.76781626       1.05313178      22.47329976       0.00002346      -0.00002146       0.00000167
Pb      21.26711735      19.75854195      23.22155729      -0.00002159       0.00001213      -0.00000891
I       14.34495606      23.88183407       4.02021669      -0.00001601      -0.00000255      -0.00002683
I       20.49976567       4.99535636       4.42604361       0.00000149       0.00001103       0.00001763
I        2.50272265       5.17345179       4.61087891      -0.00001102      -0.00003010      -0.00000997
I       21.63824906      23.81083513       3.94264955       0.00000133      -0.00002451      -0.00000660
I       24.12171853       2.29218080       4.12797398       0.00004641      -0.00000048      -0.00002630
I       17.85823202       8.65577206       4.42316698      -0.00000304       0.00001733      -0.00002382
I       17.78053913       1.49038900       3.15593770       0.00000336       0.00000369       0.00000715
I       24.27971914      20.15032628       3.94563587       0.00002706       0.00002320      -0.00000820
I        1.66231875       4.33825166      22.10329751      -0.00000069      -0.00001415       0.00000028
I       20.81595790      22.86256467      24.00596929      -0.00000195       0.00001554      -0.00000808
I       15.37131135      23.51644101      11.54877619      -0.00000281       0.00001730       0.00001072
I       21.50768714       4.74300688       9.38396796      -0.00001055      -0.00001328       0.00001087
I       17.84572092       2.09984243      10.40726556       0.00000900      -0.00000283      -0.00002556
I       24.34488697      20.75955301      11.19644673       0.00001308       0.00000807       0.00000738
I       24.24228432       0.48237072      21.89770408       0.00002635       0.00000713      -0.00000070
I       17.97866182       6.84589936      22.19303391       0.00001840      -0.00000157       0.00000871
I       14.23199979       8.70597320       7.14069495       0.00000742      -0.00002053       0.00000441
I       20.48306349       1.10297082       6.74312806       0.00001104       0.00000181       0.00000605
I        2.61568250      20.34937590       1.49020991      -0.00001255       0.00000426       0.00003560
I       21.41918647       2.67956949       0.54060401      -0.00001561      -0.00000095      -0.00002823
I       14.12673926       2.75028274       0.61416528      -0.00001003      -0.00000142       0.00000782
I       20.49568627       7.65910152       0.75898753      -0.00000722      -0.00001293      -0.00000022
I        2.48529194       1.28132994       6.93175465       0.00000692      -0.00000888      -0.00003902
I       21.64213003      21.14710099       7.60967310       0.00001385       0.00002710       0.00000522
Cs      24.21312047       4.86956846      12.62736155      -0.00000801      -0.00001660       0.00002138
Cs      18.06595069      22.84007039      14.29195973      -0.00000937      -0.00002174       0.00000086
Cs      18.11048135      22.73608596      20.76256500       0.00000352       0.00001153      -0.00002396
Cs      24.25774272       4.76601740      19.09823263       0.00001238      -0.00000705      -0.00000635
Cs      24.43628602      23.33712887      19.69675201      -0.00001437       0.00000588       0.00000071
Cs      17.93555327       3.77174129      19.73321724       0.00001243       0.00002150       0.00000820
Cs      17.88748516       4.26866872      13.69328389      -0.00000611      -0.00000360      -0.00000086
Cs      24.38800881      23.83342789      13.65651009       0.00000765       0.00001393       0.00001695
Pb      14.89827485      20.12101275      17.03183740       0.00003365      -0.00000641       0.00000484
Pb      21.04411471       1.29109341      16.15246662      -0.00000981       0.00000915       0.00002136
Pb      14.72148455       1.35335184      16.21797471       0.00002639      -0.00001830       0.00000294
Pb      21.22067637      20.05875661      16.96626325      -0.00001860      -0.00002836       0.00003699
Pb      14.85170588      20.42111478      10.77662673       0.00001028      -0.00000713      -0.00006801
Pb      20.99746079       1.59116658       9.89714892      -0.00000248       0.00001520      -0.00003305
Pb      14.67504027       1.65346913       9.96270311       0.00000948      -0.00003008      -0.00003862
Pb      21.17414918      20.35880912      10.71094798       0.00001852      -0.00000294      -0.00003095
I       14.43795637      23.28160882      16.53073372      -0.00001533       0.00001271      -0.00000329
I       20.59266292       4.39512793      16.93676263       0.00001272      -0.00001224       0.00000501
I        2.59586752       4.57320383      17.12136501      -0.00001447       0.00001322       0.00001184
I       21.73101151      23.21062569      16.45325191       0.00000615      -0.00000737      -0.00003595
I       24.21469816       1.69199903      16.63837060      -0.00003206      -0.00000958      -0.00000715
I       17.95113816       8.05543604      16.93357734       0.00001365      -0.00002393      -0.00001236
I       17.87343338       0.89039091      15.66684290      -0.00004957       0.00000900       0.00000884
I       24.37251162      19.55034939      16.45626990      -0.00001214      -0.00000985       0.00000633
I        1.56959075       4.93853901       9.59265255      -0.00000350       0.00000693      -0.00001259
I       20.72289603      23.46289337      11.49518503       0.00000893      -0.00000353       0.00001639
I       15.46392222      22.91611360      24.05947988      -0.00000900       0.00000316      -0.00000090
I       21.60061764       4.14267416      21.89466183      -0.00000588       0.00000362       0.00000908
I       17.93861205       1.49910267      22.91765938       0.00000593       0.00000564      -0.00000988
I       24.43783415      20.15918551      23.70696526       0.00001332      -0.00000889       0.00000450
I       24.14936302       1.08292865       9.38725863      -0.00003169      -0.00003165      -0.00000703
I       17.88577984       7.44624038       9.68269482      -0.00002768       0.00000312       0.00000403
I       14.32480911       8.10576274      19.65133285       0.00000540      -0.00002262       0.00002693
I       20.57614459       0.50264459      19.25372503      -0.00000006      -0.00000241      -0.00000014
I        2.70833141      19.74899070      14.00082411       0.00000865       0.00001827      -0.00001367
I       21.51191415       2.07932964      13.05119019       0.00000561       0.00000151      -0.00002089
I       14.21962215       2.15005099      13.12477082      -0.00000921      -0.00001563       0.00001591
I       20.58871615       7.05885684      13.26959344       0.00001134      -0.00001873       0.00000710
I        2.57828306       0.68116354      19.44232178       0.00001413       0.00000631       0.00001267
I       21.73493582      20.54696178      20.12029855       0.00001383       0.00000982      -0.00002202
Cs      24.23804497      17.98159370       0.65946860       0.00000174       0.00000993       0.00000500
Cs      17.85529499      10.92841846       1.23862627      -0.00000553      -0.00000124       0.00002350
Cs      17.89978425      10.82460080       7.70928765      -0.00001260       0.00000726      -0.00003219
Cs      24.28271171      17.87799319       7.13023734       0.00000250      -0.00002085       0.00000607
Cs      24.22560873      11.42557566       6.64352700      -0.00000782       0.00001915       0.00000974
Cs      17.96051207      16.88388088       7.76514754      -0.00000068       0.00001489      -0.00000133
Cs      17.91238557      17.38061203       1.72504271       0.00000680      -0.00000472       0.00001635
Cs      24.17734517      11.92206182       0.60339912       0.00001640       0.00000108      -0.00000703
Pb      14.68757881       8.20946974       3.97857740       0.00001340       0.00000168       0.00003347
Pb      21.06903866      14.40313418       4.18439512      -0.00002990      -0.00000531      -0.00001919
Pb      14.74646008      14.46536279       4.24986736       0.00001463      -0.00003159      -0.00002453
Pb      21.00999328       8.14722890       3.91303704      -0.00002424      -0.00000433       0.00001816
Pb      14.82677014       7.30903631      22.74455316      -0.00000716       0.00002136      -0.00003011
Pb      21.20820686      13.50265945      22.95024741      -0.00003009      -0.00000506       0.00000312
Pb      14.88567139      13.56493423      23.01582442       0.00001163      -0.00002691      -0.00000634
Pb      21.14927509       7.24673385      22.67890634      -0.00001805      -0.00000865      -0.00001345
I       14.22723247      11.37004770       3.47748678      -0.00001231       0.00003925      -0.00000735
I       20.61761841      17.50713967       4.96869959       0.00001518       0.00000077       0.00000662
I        2.62074820      17.68524705       5.15341219       0.00001519       0.00003575      -0.00001370
I       21.52028004      11.29907488       3.39997802       0.00000664       0.00002963       0.00000308
I       24.23962385      14.80403530       4.67020394       0.00000651      -0.00001725       0.00001586
I       17.97606292      21.16730325       4.96556606      -0.00002040       0.00000715      -0.00000184
I       17.89835616      14.00235587       3.69867610      -0.00000127       0.00000964       0.00001863
I       24.16182764       7.63885399       3.40307538       0.00000631      -0.00003414       0.00000670
I        1.78028099      16.85007594      22.64584583      -0.00000541       0.00000841      -0.00001065
I       20.69811317      10.35078396      23.46321029      -0.00002453      -0.00000309       0.00002415
I       15.25333712      11.00463623      11.00624944      -0.00001286      -0.00000950       0.00001328
I       21.62563194      17.25476051       9.92674147      -0.00002377       0.00001635      -0.00000660
I       17.96358034      14.61121406      10.94953093      -0.00000272      -0.00000568       0.00000401
I       24.22719134       8.24767587      10.65357218       0.00000434       0.00000248       0.00001294
I       24.36007276      12.99449975      22.44037806      -0.00000236      -0.00003054       0.00000975
I       18.09644937      19.35772371      22.73598407       0.00001818       0.00000560      -0.00000869
I       14.34972529      21.21766756       7.68335139       0.00001525      -0.00000372       0.00005367
I       20.60109024      13.61473996       7.28565389       0.00001283      -0.00000037      -0.00000536
I        2.49767905       7.83745552       0.94760912       0.00001857      -0.00000097       0.00000308
I       21.53677887      15.19143172       1.08312111       0.00001088      -0.00000465      -0.00000040
I       14.24461596      15.26214872       1.15667171       0.00000190      -0.00000484       0.00004216
I       20.61365276      20.17080628       1.30161110       0.00000744      -0.00000338       0.00000491
I        2.60335744      13.79326988       7.47424961      -0.00001438       0.00000492       0.00001852
I       21.52424300       8.63546973       7.06704920       0.00000344      -0.00000495      -0.00000940