320
Lattice="31.801152176814412 -0.5468112784037048 1.1517111604624475 0.36059192049544603 29.98117307155178 -3.0933744153212364 -0.5122748587133839 1.8648137531568851 17.083217280452775" Properties=species:S:1:pos:R:3:forces:R:3 energy=-983.5622544942083 stress="0.0034717575654583128 8.603232502846198e-06 -8.038466857470746e-05 8.603232502846198e-06 0.005074943551470537 -3.053824226636218e-05 -8.038466857470746e-05 -3.053824226636218e-05 0.003820070371616264" free_energy=-983.5622544942083 pbc="T T T"
Cs      26.95276077      10.79842343       2.04156723       0.00000754       0.00000435      -0.00001023
Cs      30.61066828      13.97131815       5.95317430      -0.00000792      -0.00000742       0.00001597
Cs      26.56282677      19.96085987      13.92941957       0.00000763      -0.00001146       0.00000573
Cs      30.92495112      20.73196275       1.06036711      -0.00000084      -0.00002813      -0.00001103
Cs       3.10188821      11.20858683       1.17764015      -0.00001833       0.00000339       0.00002809
Cs       6.75997180      14.38122359       5.08950049       0.00001947      -0.00000185       0.00000973
Cs       2.71189223      20.37077673      13.06557772       0.00000914      -0.00000038       0.00001785
Cs       7.07399160      21.14206123       0.19655249      -0.00001238      -0.00002025      -0.00001348
Pb      29.53326119      23.87633833       5.09923231      -0.00001176       0.00002473       0.00000050
Pb       1.68871626      24.34899334       4.07582590       0.00001595      -0.00001383      -0.00000717
Pb      28.21055812      15.88400670       1.34890495      -0.00002750      -0.00001078      -0.00000382
Pb      24.25394303      15.95809053       1.22059180       0.00000584      -0.00000604       0.00000576
Pb       5.68238942      24.28638380       4.23533602      -0.00000217      -0.00002119       0.00001468
Pb       9.63899352      24.21225552       4.36382497       0.00000814      -0.00001092      -0.00000908
Pb       4.35968861      16.29394474       0.48515808       0.00000659       0.00002641      -0.00000225
Pb       0.40308606      16.36819774       0.35671712      -0.00000634       0.00002051       0.00000937
I       31.60398610       9.08827596       0.46162498       0.00000170       0.00000851       0.00000639
I       25.70342988      16.61386813      16.07480751       0.00000009      -0.00000516       0.00000077
I       31.47923012      10.26147551       4.55611294       0.00001512      -0.00000731      -0.00001824
I       26.08431957      14.50826590       3.43874418      -0.00001217      -0.00000238      -0.00002376
I       30.09646743      13.28723252       1.42075687      -0.00002805      -0.00001029       0.00002287
I       27.46699364      11.48248336       6.57394502       0.00000547      -0.00000197       0.00000484
I       30.06988730      17.21011329       3.61829862       0.00000456       0.00000041       0.00000937
I       27.67397148      22.55019601       2.82983844      -0.00000629      -0.00000370       0.00001746
I       29.74821782      19.03560561      16.30845375       0.00001262      -0.00000040      -0.00000785
I       27.22718471      23.52204153      15.76457138       0.00000881      -0.00002338      -0.00001808
I       31.54025280      21.24525601       5.07435738      -0.00000603       0.00000162       0.00000638
I       26.20350669      18.51505533       1.37378661       0.00001655      -0.00000298       0.00000150
I        7.75299123       9.49842787      -0.40223364       0.00002428      -0.00000865      -0.00002141
I        1.85255491      17.02380791      15.21103264       0.00000407       0.00000037      -0.00001529
I        7.62847640      10.67140931       3.69223760      -0.00001562       0.00002396      -0.00000266
I        2.23328771      14.91830916       2.57492168       0.00001472       0.00001439      -0.00000192
I        6.24567212      13.69722935       0.55711332      -0.00000117       0.00001032      -0.00000542
I        3.61622898      11.89257604       5.71015919      -0.00002500       0.00000586      -0.00001850
I        6.21893025      17.62002161       2.75462801       0.00000804       0.00001932      -0.00000271
I        3.82303413      22.96038085       1.96587583       0.00001727      -0.00000864       0.00001167
I        5.89735095      19.44560117      15.44475107      -0.00002025       0.00000606      -0.00000184
I        3.37632725      23.93194379      14.90057210      -0.00000320       0.00002640       0.00000908
I        7.68937490      21.65530129       4.21062107       0.00000531      -0.00000239      -0.00000558
I        2.35278289      18.92508134       0.50991606      -0.00001384       0.00001296       0.00000229
Cs      26.69662334      11.73083031      10.58317587       0.00000754       0.00000435      -0.00001023
Cs      30.35453085      14.90372503      14.49478294      -0.00000792      -0.00000742       0.00001597
Cs      26.81896420      19.02845300       5.38781093       0.00000763      -0.00001146       0.00000573
Cs      30.66881369      21.66436963       9.60197575      -0.00000084      -0.00002813      -0.00001103
Cs       2.84575078      12.14099371       9.71924879      -0.00001833       0.00000339       0.00002809
Cs       6.50383437      15.31363047      13.63110913       0.00001947      -0.00000185       0.00000973
Cs       2.96802966      19.43836986       4.52396908       0.00000914      -0.00000038       0.00001785
Cs       6.81785417      22.07446811       8.73816113      -0.00001238      -0.00002025      -0.00001347
Pb      29.27712376      24.80874521      13.64084095      -0.00001175       0.00002471       0.00000051
Pb       1.43257883      25.28140022      12.61743454       0.00001594      -0.00001385      -0.00000716
Pb      27.95442069      16.81641358       9.89051359      -0.00002750      -0.00001078      -0.00000381
Pb      23.99780560      16.89049741       9.76220044       0.00000584      -0.00000604       0.00000576
Pb       5.42625199      25.21879068      12.77694466      -0.00000217      -0.00002121       0.00001469
Pb       9.38285609      25.14466240      12.90543361       0.00000814      -0.00001094      -0.00000907
Pb       4.10355118      17.22635162       9.02676672       0.00000659       0.00002642      -0.00000225
Pb       0.14694863      17.30060462       8.89832576      -0.00000634       0.00002051       0.00000937
I       31.34784867      10.02068284       9.00323362       0.00000170       0.00000851       0.00000639
I       25.95956731      15.68146126       7.53319887       0.00000008      -0.00000517       0.00000076
I       31.22309269      11.19388239      13.09772158       0.00001512      -0.00000732      -0.00001824
I       25.82818214      15.44067278      11.98035282      -0.00001217      -0.00000238      -0.00002376
I       29.84033000      14.21963940       9.96236551      -0.00002805      -0.00001029       0.00002287
I       27.21085621      12.41489024      15.11555366       0.00000547      -0.00000200       0.00000484
I       29.81374987      18.14252017      12.15990726       0.00000456       0.00000041       0.00000937
I       27.41783405      23.48260289      11.37144708      -0.00000629      -0.00000371       0.00001746
I       30.00435525      18.10319874       7.76684511       0.00001262      -0.00000041      -0.00000784
I       27.48332214      22.58963466       7.22296274       0.00000881      -0.00002339      -0.00001807
I       31.28411537      22.17766289      13.61596602      -0.00000603       0.00000162       0.00000638
I       25.94736926      19.44746221       9.91539525       0.00001655      -0.00000298       0.00000150
I        7.49685380      10.43083475       8.13937500       0.00002428      -0.00000866      -0.00002142
I        2.10869234      16.09140104       6.66942400       0.00000407       0.00000036      -0.00001529
I        7.37233897      11.60381619      12.23384624      -0.00001562       0.00002396      -0.00000266
I        1.97715028      15.85071604      11.11653032       0.00001472       0.00001439      -0.00000192
I        5.98953469      14.62963623       9.09872196      -0.00000117       0.00001032      -0.00000543
I        3.36009155      12.82498292      14.25176783      -0.00002501       0.00000585      -0.00001850
I        5.96279282      18.55242849      11.29623665       0.00000804       0.00001932      -0.00000271
I        3.56689670      23.89278773      10.50748447       0.00001727      -0.00000864       0.00001167
I        6.15348838      18.51319430       6.90314243      -0.00002025       0.00000606      -0.00000184
I        3.63246468      22.99953692       6.35896346      -0.00000320       0.00002639       0.00000908
I        7.43323747      22.58770817      12.75222971       0.00000531      -0.00000240      -0.00000558
I        2.09664546      19.85748822       9.05152470      -0.00001384       0.00001296       0.00000229
Cs      27.13305673      25.78900997       0.49488002       0.00000754       0.00000435      -0.00001023
Cs      30.79096424      28.96190469       4.40648709      -0.00000792      -0.00000742       0.00001597
Cs      26.38253081       4.97027334      15.47610678       0.00000763      -0.00001146       0.00000573
Cs      30.74465516       5.74137622       2.60705432      -0.00000084      -0.00002813      -0.00001103
Cs       3.28218417      26.19917337      -0.36904706      -0.00001833       0.00000339       0.00002809
Cs       6.94026776      29.37181013       3.54281328       0.00001947      -0.00000185       0.00000974
Cs       2.53159627       5.38019020      14.61226493       0.00000914      -0.00000038       0.00001785
Cs       6.89369564       6.15147469       1.74323970      -0.00001238      -0.00002025      -0.00001348
Pb      29.35296523       8.88575180       6.64591952      -0.00001175       0.00002471       0.00000051
Pb       1.50842030       9.35840680       5.62251311       0.00001595      -0.00001382      -0.00000717
Pb      28.03026216       0.89342017       2.89559216      -0.00002750      -0.00001078      -0.00000382
Pb      24.07364707       0.96750400       2.76727901       0.00000584      -0.00000604       0.00000575
Pb       5.50209346       9.29579726       5.78202323      -0.00000217      -0.00002118       0.00001469
Pb       9.45869756       9.22166898       5.91051218       0.00000813      -0.00001092      -0.00000907
Pb       4.17939265       1.30335820       2.03184529       0.00000659       0.00002644      -0.00000226
Pb       0.22279010       1.37761120       1.90340433      -0.00000635       0.00002053       0.00000936
I       31.78428206      24.07886250      -1.08506223       0.00000170       0.00000851       0.00000639
I       25.52313392       1.62328160      17.62149472       0.00000008      -0.00000516       0.00000076
I       31.65952608      25.25206205       3.00942573       0.00001512      -0.00000732      -0.00001824
I       26.26461553      29.49885244       1.89205697      -0.00001217      -0.00000238      -0.00002375
I       30.27676339      28.27781906      -0.12593034      -0.00002806      -0.00001030       0.00002287
I       27.64728960      26.47306990       5.02725781       0.00000547      -0.00000200       0.00000484
I       29.88959134       2.21952676       5.16498583       0.00000456       0.00000040       0.00000936
I       27.49367552       7.55960948       4.37652565      -0.00000629      -0.00000371       0.00001746
I       29.56792186       4.04501908      17.85514096       0.00001262      -0.00000041      -0.00000784
I       27.04688875       8.53145500      17.31125859       0.00000881      -0.00002339      -0.00001807
I       31.35995684       6.25466948       6.62104459      -0.00000604       0.00000160       0.00000638
I       26.02321073       3.52446880       2.92047382       0.00001655      -0.00000298       0.00000150
I        7.93328719      24.48901441      -1.94892085       0.00002428      -0.00000865      -0.00002141
I        1.67225895       2.03322138      16.75771985       0.00000407       0.00000036      -0.00001530
I        7.80877236      25.66199585       2.14555039      -0.00001562       0.00002396      -0.00000266
I        2.41358367      29.90889570       1.02823447       0.00001472       0.00001438      -0.00000190
I        6.42596808      28.68781589      -0.98957389      -0.00000116       0.00001031      -0.00000542
I        3.79652494      26.88316258       4.16347198      -0.00002501       0.00000585      -0.00001850
I        6.03863429       2.62943507       4.30131522       0.00000803       0.00001932      -0.00000270
I        3.64273817       7.96979431       3.51256304       0.00001727      -0.00000864       0.00001167
I        5.71705499       4.45501464      16.99143828      -0.00002025       0.00000605      -0.00000184
I        3.19603129       8.94135726      16.44725931      -0.00000320       0.00002639       0.00000908
I        7.50907894       6.66471475       5.75730828       0.00000531      -0.00000239      -0.00000558
I        2.17248693       3.93449480       2.05660327      -0.00001384       0.00001297       0.00000229
Cs      26.87691930      26.72141684       9.03648866       0.00000754       0.00000435      -0.00001023
Cs      30.53482681      29.89431156      12.94809573      -0.00000792      -0.00000741       0.00001597
Cs      26.63866824       4.03786646       6.93449814       0.00000763      -0.00001146       0.00000573
Cs      30.48851773       6.67378309      11.14866296      -0.00000085      -0.00002813      -0.00001103
Cs       3.02604674      27.13158024       8.17256158      -0.00001833       0.00000339       0.00002809
Cs       6.68413033      30.30421700      12.08442192       0.00001947      -0.00000185       0.00000974
Cs       2.78773370       4.44778332       6.07065629       0.00000914      -0.00000038       0.00001785
Cs       6.63755821       7.08388157      10.28484834      -0.00001238      -0.00002025      -0.00001348
Pb      29.09682780       9.81815867      15.18752816      -0.00001175       0.00002473       0.00000050
Pb       1.25228287      10.29081368      14.16412175       0.00001594      -0.00001383      -0.00000717
Pb      27.77412473       1.82582704      11.43720080      -0.00002749      -0.00001078      -0.00000382
Pb      23.81750964       1.89991087      11.30888765       0.00000584      -0.00000604       0.00000575
Pb       5.24595603      10.22820414      14.32363187      -0.00000217      -0.00002119       0.00001469
Pb       9.20256013      10.15407586      14.45212082       0.00000813      -0.00001092      -0.00000908
Pb       3.92325522       2.23576508      10.57345393       0.00000660       0.00002642      -0.00000225
Pb      -0.03334733       2.31001808      10.44501297      -0.00000635       0.00002051       0.00000936
I       31.52814463      25.01126937       7.45654641       0.00000170       0.00000851       0.00000639
I       25.77927135       0.69087472       9.07988608       0.00000008      -0.00000516       0.00000076
I       31.40338865      26.18446892      11.55103437       0.00001512      -0.00000731      -0.00001825
I       26.00847810      30.43125931      10.43366561      -0.00001217      -0.00000238      -0.00002375
I       30.02062596      29.21022593       8.41567830      -0.00002805      -0.00001029       0.00002287
I       27.39115217      27.40547677      13.56886645       0.00000547      -0.00000197       0.00000484
I       29.63345391       3.15193363      13.70659447       0.00000456       0.00000041       0.00000937
I       27.23753809       8.49201635      12.91813429      -0.00000629      -0.00000370       0.00001746
I       29.82405929       3.11261220       9.31353232       0.00001262      -0.00000041      -0.00000784
I       27.30302618       7.59904812       8.76964995       0.00000881      -0.00002338      -0.00001808
I       31.10381941       7.18707635      15.16265323      -0.00000603       0.00000162       0.00000638
I       25.76707330       4.45687567      11.46208246       0.00001655      -0.00000298       0.00000150
I        7.67714976      25.42142128       6.59268779       0.00002428      -0.00000865      -0.00002141
I        1.92839638       1.10081450       8.21611121       0.00000407       0.00000036      -0.00001529
I        7.55263493      26.59440272      10.68715903      -0.00001562       0.00002397      -0.00000267
I        2.15744624      30.84130257       9.56984311       0.00001472       0.00001439      -0.00000191
I        6.16983065      29.62022276       7.55203475      -0.00000117       0.00001033      -0.00000542
I        3.54038751      27.81556945      12.70508062      -0.00002501       0.00000588      -0.00001850
I        5.78249686       3.56184195      12.84292386       0.00000804       0.00001932      -0.00000271
I        3.38660074       8.90220119      12.05417168       0.00001727      -0.00000864       0.00001167
I        5.97319242       3.52260776       8.44982964      -0.00002025       0.00000606      -0.00000184
I        3.45216872       8.00895038       7.90565067      -0.00000320       0.00002639       0.00000908
I        7.25294151       7.59712163      14.29891692       0.00000531      -0.00000239      -0.00000558
I        1.91634950       4.86690168      10.59821191      -0.00001384       0.00001296       0.00000229
Cs      11.05218468      11.07182907       1.46571165       0.00000754       0.00000435      -0.00001023
Cs      14.71009219      14.24472379       5.37731872      -0.00000792      -0.00000742       0.00001597
Cs      10.66225068      20.23426551      13.35356399       0.00000763      -0.00001146       0.00000573
Cs      15.02437503      21.00536839       0.48451153      -0.00000084      -0.00002813      -0.00001103
Cs      19.00246430      10.93518119       1.75349573      -0.00001834       0.00000339       0.00002809
Cs      22.66054789      14.10781795       5.66535607       0.00001947      -0.00000185       0.00000973
Cs      18.61246832      20.09737109      13.64143330       0.00000914      -0.00000038       0.00001785
Cs      22.97456769      20.86865559       0.77240807      -0.00001238      -0.00002025      -0.00001348
Pb      13.63268510      24.14974397       4.52337673      -0.00001175       0.00002473       0.00000050
Pb      17.58929235      24.07558770       4.65168148       0.00001594      -0.00001383      -0.00000717
Pb      12.30998203      16.15741234       0.77304937      -0.00002750      -0.00001078      -0.00000381
Pb       8.35336694      16.23149617       0.64473622       0.00000584      -0.00000604       0.00000576
Pb      21.58296551      24.01297816       4.81119160      -0.00000217      -0.00002119       0.00001468
Pb      25.53956961      23.93884988       4.93968055       0.00000814      -0.00001092      -0.00000908
Pb      20.26026470      16.02053910       1.06101366       0.00000659       0.00002642      -0.00000225
Pb      16.30366215      16.09479210       0.93257270      -0.00000635       0.00002051       0.00000937
I       15.70341001       9.36168160      -0.11423060       0.00000170       0.00000851       0.00000638
I        9.80285379      16.88727377      15.49895193       0.00000009      -0.00000516       0.00000076
I       15.57865403      10.53488115       3.98025736       0.00001512      -0.00000731      -0.00001824
I       10.18374348      14.78167154       2.86288860      -0.00001217      -0.00000238      -0.00002376
I       14.19589134      13.56063816       0.84490129      -0.00002805      -0.00001029       0.00002287
I       11.56641755      11.75588900       5.99808944       0.00000546      -0.00000199       0.00000484
I       14.16931121      17.48351893       3.04244304       0.00000456       0.00000040       0.00000936
I       11.77339539      22.82360165       2.25398286      -0.00000630      -0.00000370       0.00001746
I       13.84764173      19.30901125      15.73259817       0.00001263      -0.00000041      -0.00000784
I       11.32660862      23.79544717      15.18871580       0.00000881      -0.00002338      -0.00001808
I       15.63967671      21.51866165       4.49850180      -0.00000603       0.00000162       0.00000638
I       10.30293060      18.78846097       0.79793103       0.00001655      -0.00000298       0.00000150
I       23.65356732       9.22502223       0.17362194       0.00002428      -0.00000865      -0.00002141
I       17.75313100      16.75040227      15.78688822       0.00000407       0.00000037      -0.00001529
I       23.52905249      10.39800367       4.26809318      -0.00001562       0.00002397      -0.00000267
I       18.13386380      14.64490352       3.15077726       0.00001472       0.00001439      -0.00000192
I       22.14624821      13.42382371       1.13296890      -0.00000117       0.00001032      -0.00000542
I       19.51680507      11.61917040       6.28601477      -0.00002501       0.00000588      -0.00001850
I       22.11950634      17.34661597       3.33048359       0.00000804       0.00001932      -0.00000271
I       19.72361022      22.68697521       2.54173141       0.00001726      -0.00000864       0.00001167
I       21.79792704      19.17219553      16.02060665      -0.00002025       0.00000606      -0.00000184
I       19.27690334      23.65853815      15.47642768      -0.00000320       0.00002640       0.00000908
I       23.58995099      21.38189565       4.78647665       0.00000531      -0.00000239      -0.00000558
I       18.25335898      18.65167570       1.08577164      -0.00001384       0.00001296       0.00000229
Cs      10.79604725      12.00423595      10.00732029       0.00000754       0.00000435      -0.00001023
Cs      14.45395476      15.17713067      13.91892736      -0.00000792      -0.00000742       0.00001597
Cs      10.91838811      19.30185864       4.81195535       0.00000763      -0.00001146       0.00000573
Cs      14.76823760      21.93777527       9.02612017      -0.00000084      -0.00002813      -0.00001103
Cs      18.74632687      11.86758807      10.29510437      -0.00001834       0.00000339       0.00002809
Cs      22.40441046      15.04022483      14.20696471       0.00001947      -0.00000185       0.00000973
Cs      18.86860575      19.16496422       5.09982466       0.00000914      -0.00000038       0.00001785
Cs      22.71843026      21.80106247       9.31401671      -0.00001238      -0.00002025      -0.00001347
Pb      13.37654767      25.08215085      13.06498537      -0.00001175       0.00002471       0.00000052
Pb      17.33315492      25.00799458      13.19329012       0.00001594      -0.00001385      -0.00000716
Pb      12.05384460      17.08981922       9.31465801      -0.00002749      -0.00001078      -0.00000381
Pb       8.09722951      17.16390305       9.18634486       0.00000584      -0.00000604       0.00000576
Pb      21.32682808      24.94538504      13.35280024      -0.00000217      -0.00002121       0.00001469
Pb      25.28343218      24.87125676      13.48128919       0.00000814      -0.00001094      -0.00000907
Pb      20.00412727      16.95294598       9.60262230       0.00000659       0.00002642      -0.00000225
Pb      16.04752472      17.02719898       9.47418134      -0.00000635       0.00002051       0.00000937
I       15.44727258      10.29408848       8.42737804       0.00000170       0.00000851       0.00000639
I       10.05899122      15.95486690       6.95734329       0.00000008      -0.00000516       0.00000076
I       15.32251660      11.46728803      12.52186600       0.00001513      -0.00000732      -0.00001823
I        9.92760605      15.71407842      11.40449724      -0.00001217      -0.00000238      -0.00002376
I       13.93975391      14.49304504       9.38650993      -0.00002805      -0.00001029       0.00002287
I       11.31028012      12.68829588      14.53969808       0.00000547      -0.00000200       0.00000484
I       13.91317378      18.41592581      11.58405168       0.00000456       0.00000040       0.00000936
I       11.51725796      23.75600853      10.79559150      -0.00000629      -0.00000371       0.00001746
I       14.10377916      18.37660438       7.19098953       0.00001262      -0.00000041      -0.00000784
I       11.58274605      22.86304030       6.64710716       0.00000881      -0.00002339      -0.00001807
I       15.38353928      22.45106853      13.04011044      -0.00000603       0.00000162       0.00000638
I       10.04679317      19.72086785       9.33953967       0.00001655      -0.00000298       0.00000150
I       23.39742989      10.15742911       8.71523058       0.00002428      -0.00000865      -0.00002141
I       18.00926843      15.81799540       7.24527958       0.00000407       0.00000036      -0.00001529
I       23.27291506      11.33041055      12.80970182      -0.00001562       0.00002396      -0.00000266
I       17.87772637      15.57731040      11.69238590       0.00001472       0.00001439      -0.00000192
I       21.89011078      14.35623059       9.67457754      -0.00000117       0.00001032      -0.00000543
I       19.26066764      12.55157728      14.82762341      -0.00002501       0.00000585      -0.00001850
I       21.86336891      18.27902285      11.87209223       0.00000804       0.00001932      -0.00000271
I       19.46747279      23.61938209      11.08334005       0.00001727      -0.00000864       0.00001167
I       22.05406447      18.23978866       7.47899801      -0.00002025       0.00000605      -0.00000184
I       19.53304077      22.72613128       6.93481904      -0.00000320       0.00002639       0.00000908
I       23.33381356      22.31430253      13.32808529       0.00000531      -0.00000240      -0.00000558
I       17.99722155      19.58408258       9.62738028      -0.00001384       0.00001296       0.00000229
Cs      11.23248064      26.06241561      -0.08097556       0.00000754       0.00000435      -0.00001023
Cs      14.89038815      29.23531033       3.83063151      -0.00000792      -0.00000742       0.00001597
Cs      10.48195472       5.24367898      14.90025120       0.00000763      -0.00001146       0.00000573
Cs      14.84407907       6.01478186       2.03119874      -0.00000084      -0.00002813      -0.00001103
Cs      19.18276026      25.92576773       0.20680852      -0.00001834       0.00000339       0.00002809
Cs      22.84084385      29.09840449       4.11866886       0.00001947      -0.00000185       0.00000974
Cs      18.43217236       5.10678456      15.18812051       0.00000914      -0.00000038       0.00001785
Cs      22.79427173       5.87806906       2.31909528      -0.00001238      -0.00002025      -0.00001347
Pb      13.45238914       9.15915744       6.07006394      -0.00001175       0.00002471       0.00000051
Pb      17.40899639       9.08500117       6.19836869       0.00001594      -0.00001385      -0.00000716
Pb      12.12968607       1.16682581       2.31973658      -0.00002749      -0.00001079      -0.00000382
Pb       8.17307098       1.24090964       2.19142343       0.00000584      -0.00000604       0.00000575
Pb      21.40266955       9.02239163       6.35787881      -0.00000217      -0.00002121       0.00001469
Pb      25.35927365       8.94826335       6.48636776       0.00000814      -0.00001094      -0.00000907
Pb      20.07996874       1.02995257       2.60770087       0.00000659       0.00002641      -0.00000225
Pb      16.12336619       1.10420557       2.47925991      -0.00000635       0.00002051       0.00000936
I       15.88370597      24.35226814      -1.66091781       0.00000170       0.00000851       0.00000638
I        9.62255783       1.89668724      17.04563914       0.00000009      -0.00000516       0.00000076
I       15.75894999      25.52546769       2.43357015       0.00001513      -0.00000732      -0.00001823
I       10.36403944      29.77225808       1.31620139      -0.00001217      -0.00000238      -0.00002375
I       14.37618730      28.55122470      -0.70178592      -0.00002805      -0.00001029       0.00002287
I       11.74671351      26.74647554       4.45140223       0.00000547      -0.00000200       0.00000484
I       13.98901525       2.49293240       4.58913025       0.00000456       0.00000040       0.00000936
I       11.59309943       7.83301512       3.80067007      -0.00000629      -0.00000371       0.00001746
I       13.66734577       4.31842472      17.27928538       0.00001262      -0.00000041      -0.00000784
I       11.14631266       8.80486064      16.73540301       0.00000881      -0.00002339      -0.00001807
I       15.45938075       6.52807512       6.04518901      -0.00000603       0.00000161       0.00000638
I       10.12263464       3.79787444       2.34461824       0.00001655      -0.00000298       0.00000150
I       23.83386328      24.21560877      -1.37306527       0.00002428      -0.00000865      -0.00002141
I       17.57283504       1.75981574      17.33357543       0.00000407       0.00000037      -0.00001529
I       23.70934845      25.38859021       2.72140597      -0.00001562       0.00002396      -0.00000266
I       18.31415976      29.63549006       1.60409005       0.00001472       0.00001439      -0.00000191
I       22.32654417      28.41441025      -0.41371831      -0.00000117       0.00001033      -0.00000542
I       19.69710103      26.60975694       4.73932756      -0.00002501       0.00000585      -0.00001850
I       21.93921038       2.35602944       4.87717080       0.00000804       0.00001932      -0.00000271
I       19.54331426       7.69638868       4.08841862       0.00001727      -0.00000864       0.00001167
I       21.61763108       4.18160900      17.56729386      -0.00002025       0.00000606      -0.00000184
I       19.09660738       8.66795162      17.02311489      -0.00000320       0.00002639       0.00000908
I       23.40965503       6.39130912       6.33316386       0.00000531      -0.00000240      -0.00000558
I       18.07306302       3.66108917       2.63245885      -0.00001384       0.00001296       0.00000229