96
Lattice="12.85262193041454 0.021234258494014144 0.12124620652069061 0.03882688022574585 12.884860393677874 0.04692730239119428 -0.04404089753687509 -0.008611955156172546 12.847134762169455" Properties=species:S:1:pos:R:3:forces:R:3 energy=-457.0206599351337 stress="0.0032717386527188115 0.00011483330187944324 0.0001474268128965935 0.00011483330187944324 0.0046006974601179255 0.0009135028109614447 0.0001474268128965935 0.0009135028109614447 0.004274215464971264" free_energy=-457.0206599351337 pbc="T T T"
H        7.43931371      10.12029934       2.50932151      -0.00002612      -0.00000048      -0.00002225
H        7.43045236       4.72866288       1.45091149       0.00001139       0.00001123       0.00001099
H        7.39780760       3.67361357       8.90906432       0.00001351       0.00001437      -0.00001071
H        7.42790182      11.16684439       7.89787212      -0.00001632       0.00000515       0.00000904
H        7.48825404      11.39728387       0.56894021       0.00001163      -0.00001394      -0.00000661
H        7.46394087       2.77494680       2.70830834      -0.00003253      -0.00002214      -0.00001392
H        2.51114390       9.53485790       9.64150477       0.00000895      -0.00002311       0.00000475
H        7.46115274       9.21314068       9.15529525      -0.00002117      -0.00002939      -0.00000395
H        3.31798532       3.94790883       1.87711614       0.00000185      -0.00000934       0.00001870
H        3.33380065      10.59765839       1.69796754      -0.00000411       0.00001924       0.00001138
H        3.31524958      10.38585672       8.32420786       0.00002863       0.00001538      -0.00002429
H        8.81045567       9.74132514      10.13345537       0.00003837      -0.00000215       0.00003323
H        2.41102975       6.21107710       1.32874584       0.00000730       0.00000689      -0.00003944
H        2.41206340      10.03820597       3.95286606      -0.00002883       0.00003319      -0.00000160
H        2.40853484      12.64907434       7.77568886      -0.00001108       0.00000083       0.00002713
H        3.29243099       4.15093242       8.09820343       0.00006092      -0.00005958      -0.00003908
H        8.94014581      10.50564586       4.23427213      -0.00001932       0.00000945      -0.00003363
H        1.04307396      10.98675250       4.48787033      -0.00001111       0.00000915       0.00000594
H        7.44714379       4.95083329       6.96885729      -0.00002980      -0.00000803      -0.00003174
H        2.50197614       5.48045789       7.25384191       0.00000625       0.00004096      -0.00004093
C        8.18630322      10.91393929       2.40924583      -0.00004811      -0.00001771      -0.00005598
C        1.76494785      11.49521405       2.66356060       0.00001854       0.00002137      -0.00003207
C        1.74526515      11.35224351       9.21878123       0.00000583       0.00001601      -0.00000195
C        1.72350913       5.04852079       9.06364135       0.00002476      -0.00000348       0.00004776
N        2.57436950       3.91223796       2.58116264       0.00000042       0.00003086      -0.00002806
N        2.59508044      11.30675064       1.66428948      -0.00000374      -0.00000164      -0.00002422
N        2.57160758      10.35029158       9.02822750      -0.00001431       0.00002866       0.00000971
N        8.17001380       9.92389715       9.36145218      -0.00000771       0.00001096      -0.00001100
N        1.75525816       6.03620173       2.08963314       0.00000516      -0.00007977       0.00002199
N        1.76196505      10.80452801       3.78036993       0.00001358      -0.00005338       0.00003790
N        8.15384781       5.14577178       7.68501536       0.00002374       0.00000362       0.00002714
N        2.55369680       4.86000390       8.06442817      -0.00001627      -0.00003441       0.00003864
Pb       5.11693228       1.50339454      12.09416904      -0.00000083      -0.00002045      -0.00002292
Pb      -1.31106370       1.55469263      12.11388259       0.00000295       0.00001475      -0.00001979
Pb       5.15836965       7.95017295       5.69404965       0.00000199      -0.00002032      -0.00000229
Pb       5.13904348       1.49815257       5.68328595      -0.00001328       0.00000199       0.00000168
I        8.33536959       1.81814415      12.00354583       0.00000052       0.00000048      -0.00000240
I        1.94550735      14.14220287      12.31780657      -0.00000469      -0.00000265      -0.00001250
I        1.93196577       1.69165718       5.39816986      -0.00000827       0.00001252       0.00000740
I        8.35369280       1.39102487       6.03052982       0.00000025       0.00000335       0.00000014
I        5.35008842      11.19467926      11.77786034      -0.00000182       0.00000402       0.00001824
I        4.89615664       4.75681883      -0.18578693       0.00000136       0.00001402       0.00000104
I        5.35284820       4.75658525       5.33087738       0.00000154       0.00000744       0.00000502
I        4.89347968      11.19496684       6.26130801       0.00000633       0.00001167      -0.00000057
I        5.39920819      14.03376980       2.53930522      -0.00000088      -0.00000351      -0.00000675
I       -1.57434024       0.99729351       2.44641015      -0.00000344       0.00000462      -0.00001362
I       -1.09719078       1.92786825       8.87076688      -0.00000047       0.00001176       0.00002191
I        4.84271503       2.06524157       8.91244096       0.00000722      -0.00000029       0.00000264
H        0.98938052       4.80769223       3.55366205      -0.00000050      -0.00000812       0.00000376
H        1.01235669      12.28302245       2.55919162       0.00002970      -0.00001677       0.00000429
H        0.98670331      11.24596326      10.00066264       0.00000131      -0.00000196       0.00000640
H        0.97091419       5.83631014       8.95917786      -0.00004439       0.00001087       0.00000384
H        2.51398472       3.09675550       3.19438269       0.00000487       0.00000736      -0.00000110
H        2.54333119      11.92726510       0.85374838       0.00000089      -0.00001212       0.00000934
H        8.89851778       4.05854615      10.63423509      -0.00001862       0.00000886      -0.00000837
H        1.00154226       4.54017941      10.88794979       0.00002173      -0.00002315      -0.00001670
H        8.84071466      12.36245237       1.11297427       0.00000258      -0.00003444       0.00002832
H        8.81331007       3.30320932       3.68634634       0.00000211      -0.00000536      -0.00000481
H        9.69053592       5.38805946       9.79147660       0.00001334       0.00003662      -0.00000324
H        2.37057579       3.59161760      10.35309898      -0.00000701       0.00000864      -0.00002127
H        9.73193095      11.83514037       3.39125658       0.00000961       0.00000581       0.00000277
H        9.71765268       5.58190653       3.18749483       0.00001773      -0.00000188       0.00002547
H        8.79967209       5.91576647       7.51318951       0.00000216      -0.00001493       0.00001419
H        9.71500695      12.01996668       9.63464363      -0.00001979      -0.00000913      -0.00002452
H        1.03948236       6.74658515       2.27250365      -0.00002767       0.00002288       0.00001727
H        8.93729492       6.44263718       1.86249285      -0.00002192      -0.00001023       0.00000451
H        1.03702495      13.18478197       8.71940340      -0.00000031      -0.00000828       0.00002123
H        8.93479847      12.88073183       8.30957135      -0.00000564      -0.00001440       0.00000804
C        1.74791917       4.91408862       2.77177430      -0.00001190       0.00003659       0.00000147
C        8.17265962       4.61702574       2.24756491      -0.00001781       0.00000346      -0.00002913
C        8.14490942       4.46717368       8.80917713      -0.00001000       0.00002615       0.00002686
C        8.17002903      11.05516981       8.69459346       0.00005053       0.00004411      -0.00002770
N        8.19502709      11.59238383       1.28498853       0.00003703       0.00003136       0.00000369
N        8.17277984       3.48574162       2.91440582       0.00003953       0.00005724       0.00003837
N        8.95654516       4.67354636       9.82011424       0.00000260      -0.00003020       0.00002859
N        1.72047879       4.35791703      10.18050311      -0.00004749       0.00002298       0.00003881
N        8.99802465      11.12054172       3.42006376       0.00005676       0.00001090       0.00007489
N        8.98793241       5.62176005       2.46906474      -0.00002410      -0.00000719      -0.00001150
N        1.75274054      12.47432270       8.53658796      -0.00000303      -0.00002249      -0.00004395
N        8.98534940      12.05985339       8.91614849      -0.00000683       0.00001098       0.00001681
Pb      -1.29205332       8.00841468      12.12340789      -0.00000270      -0.00000222       0.00000047
Pb       5.13637278       7.93624118      12.13028835       0.00000584       0.00002879      -0.00000903
Pb      -1.28937757       1.57037017       5.67638783       0.00000804      -0.00000952       0.00000200
Pb      -1.26964024       8.00152350       5.71376677      -0.00000211      -0.00002858      -0.00000639
I        1.92928707       8.12980863      11.84531867       0.00001492      -0.00001622      -0.00000767
I        8.35101860       7.82920087      12.47753419      -0.00000533       0.00000059       0.00000330
I        8.37679581       8.26508661       5.60342704      -0.00000857      -0.00000733      -0.00001207
I        1.94810425       7.70398031       5.87071195       0.00000758      -0.00000063       0.00000891
I       -1.11198211       4.74936955      12.48759642       0.00000890      -0.00001491      -0.00000508
I       -1.52020825      11.20688838      -1.26463807      -0.00000694       0.00000118      -0.00000083
I       -1.07044192      11.19612473       6.08751013       0.00000133      -0.00001450      -0.00000955
I       -1.56163870       4.76017137       5.13539898      -0.00000476      -0.00000164       0.00000468
I       11.79677240       8.39586127       2.59191457      -0.00000171      -0.00000169      -0.00001343
I        4.88414602       8.51198427       2.51231682      -0.00000774      -0.00000415      -0.00000247
I        5.35771175       7.58698363       8.93938800      -0.00000934      -0.00000267       0.00000645
I       -1.57703963       7.43534276       8.89342871      -0.00000168      -0.00000882      -0.00000603
