40
Lattice="17.978426247409743 0.1524483647032698 -0.043503548720641314 -0.08465202817648951 10.523747960871804 0.01619280357645233 0.016997597328328153 -0.011237363466672744 9.653562307644972" Properties=species:S:1:pos:R:3:forces:R:3 energy=-124.4047301343137 stress="0.0022211374193428788 1.3846453597681006e-05 -2.7492637568342045e-05 1.3846453597681006e-05 0.002306056977325906 2.243217752459061e-05 -2.7492637568342045e-05 2.243217752459061e-05 0.002203681736318579" free_energy=-124.4047301343137 pbc="T T T"
Cs       0.21406895      11.15629992       3.32359146      -0.00000014      -0.00001728      -0.00000109
Cs       6.33364562      20.00744596       0.90785242       0.00000705       0.00002820      -0.00000954
Cs      -2.62266051      16.39450692       3.33800965      -0.00001651      -0.00001114       0.00000445
Cs       9.17035596      14.76930604       0.89342248       0.00001483      -0.00000694       0.00000269
Cs       0.22256546      11.15067105       8.15037699       0.00000469       0.00000083       0.00001664
Cs       6.34212075      20.00183369       5.73461997       0.00001880       0.00002442      -0.00000400
Cs      -2.61415628      16.38884986       8.16479479      -0.00001310       0.00001332      -0.00000977
Cs       9.17888523      14.76366927       5.72021744      -0.00000703       0.00000210      -0.00000612
Pb      -4.59732177      11.95218633       0.92304553      -0.00002661      -0.00001487      -0.00000378
Pb      11.14502844      19.21162437       3.30838077       0.00001690       0.00000679       0.00001674
Pb       2.16622356      17.27189871       0.91410002      -0.00001437       0.00002259       0.00000761
Pb       4.38148421      13.89186077       3.31734673       0.00004708      -0.00001600      -0.00000960
Pb      -4.58881509      11.94655789       5.74981816      -0.00004720      -0.00001310      -0.00000094
Pb      11.15353031      19.20602921       8.13515996      -0.00000454      -0.00002201      -0.00000141
Pb       2.17470035      17.26628050       5.74088772       0.00002032       0.00001650      -0.00001689
Pb       4.38999617      13.88621345       8.14412127       0.00003881      -0.00000344       0.00000541
I       -5.72868816      13.80206618       3.34106177       0.00001583      -0.00000662       0.00001228
I       -5.70202677      17.20930796       0.93385843      -0.00001250       0.00000275      -0.00000844
I        3.27606688      19.14008524       3.32761507      -0.00002600      -0.00002249       0.00001418
I        3.27166506      12.02365559       0.90384020      -0.00001208       0.00000199      -0.00002085
I       10.29331435      10.71968436       0.88298045      -0.00000155       0.00001994      -0.00000319
I       -3.74561103      20.44411489       3.34844821       0.00001090      -0.00000182       0.00000213
I        5.27658548      15.93853760       0.90488972      -0.00001452       0.00000504      -0.00000601
I        1.27111318      15.22521761       3.32653592       0.00001203      -0.00000755       0.00001697
I       -1.85527393      13.41934596       0.91835000       0.00002265      -0.00000114      -0.00000103
I        8.40299295      17.74443765       3.31310959      -0.00002121      -0.00000889      -0.00000895
I       -0.59968660      18.69295492       0.92348033       0.00001656       0.00000787      -0.00000239
I        7.14739389      12.47081059       3.30796033      -0.00001953      -0.00000003      -0.00000192
I       -5.72018581      13.79644182       8.16784054       0.00001265      -0.00001097       0.00001548
I       -5.69352492      17.20368810       5.76065414      -0.00000676       0.00000691      -0.00000834
I        3.28456685      19.13446384       8.15438964      -0.00002012      -0.00000187       0.00000883
I        3.28014088      12.01804465       5.73060213       0.00000221       0.00000095      -0.00000218
I       10.30180647      10.71407753       5.70974800       0.00001663      -0.00000690      -0.00000595
I       -3.73710504      20.43851038       8.17523446      -0.00000084      -0.00002125       0.00000453
I        5.28507834      15.93291251       5.73168705      -0.00001769       0.00002468      -0.00000393
I        1.27964487      15.21958839       8.15333116      -0.00002558      -0.00001151       0.00000247
I       -1.84677052      13.41371306       5.74511740       0.00003033       0.00001989       0.00000176
I        8.41148894      17.73882713       8.13986459       0.00000743       0.00001156       0.00000169
I       -0.59118923      18.68736414       5.75027302       0.00000358      -0.00002011      -0.00000242
I        7.15590247      12.46516033       8.13473052      -0.00001140       0.00000957       0.00000491
