96
Lattice="15.724535259884204 0.182585980475804 -0.027927942709997357 0.22699678997147998 14.974890373819019 0.3421949047507008 -0.014028187657755474 -0.15301790117147052 8.658653108877864" Properties=species:S:1:pos:R:3:forces:R:3 energy=-419.0381756136434 stress="0.0013914685586772768 0.0007675206707106445 0.0003373194255976694 0.0007675206707106445 0.002737567603570706 2.927768365276646e-05 0.0003373194255976694 2.927768365276646e-05 0.0027432467797530993" free_energy=-419.0381756136434 pbc="T T T"
I        7.60280681       5.04318614       3.39956097       0.00003084       0.00002888      -0.00000890
I        2.21992484       9.92580383       2.59342171       0.00001652      -0.00000468       0.00000034
I        7.54533266       5.18590359       7.68991742       0.00002398       0.00001775      -0.00002131
I        2.26346457       9.63013614       6.96172142      -0.00001104       0.00000930      -0.00002431
I        6.15332718       8.63945472       4.73693141      -0.00001984      -0.00003369       0.00001197
I        3.65547321       6.17657353       9.91463176      -0.00002285       0.00002284       0.00002860
H        4.32815283       6.25269551       5.87113594       0.00001474       0.00000511      -0.00000933
H        7.05043119       9.26205548      -0.58825904      -0.00001635      -0.00000493       0.00000371
H        2.77218124       5.70686586       6.58112436       0.00003082       0.00003017      -0.00000298
H        5.49455120       8.71627414       0.12196816       0.00003189      -0.00000921      -0.00001518
H        3.44954907       4.86004712       5.14895148       0.00001634      -0.00000967       0.00000266
H        6.37321504      10.10899927       0.84391860       0.00002079       0.00002074       0.00000476
H        1.67440787       6.37366276       4.49939602      -0.00000059       0.00000115       0.00000797
H        6.71519032       8.05338005       2.12951951       0.00001441       0.00000582      -0.00001950
H        3.10769515       6.91570704       3.86345488       0.00000717       0.00002455      -0.00000756
H        8.14841486       8.59550185       1.49350113       0.00001488       0.00000426      -0.00002799
H        2.45919564       7.68504332       5.22138645      -0.00001410      -0.00000926      -0.00002393
H        7.36368729       7.28404272       0.77158875      -0.00000755       0.00000432       0.00000529
C        3.34371989       5.82505750       5.65578670      -0.00003498      -0.00001399       0.00001702
C        6.47900594       9.14394553       0.33715856      -0.00000866      -0.00000999       0.00000369
Pb       5.78757527      18.57064380      10.12750938      -0.00000288      -0.00001345      -0.00000251
Pb       1.85624472      18.58803135      10.12733425      -0.00001759       0.00000235      -0.00002323
N        2.60421510       6.76189172       4.75825215      -0.00002672      -0.00002456       0.00001308
N        7.21862432       8.20720112       1.23469433      -0.00003014      -0.00000119       0.00001921
I        6.17113087      12.65059099       7.02396322      -0.00000234      -0.00000214      -0.00001122
I        3.86464113      17.14036257       7.96982550       0.00001793      -0.00001458      -0.00004394
I        6.14612165      12.56795121       2.65497393      -0.00001059      -0.00001474       0.00000725
I        3.90368256      17.37598591       3.68017406      -0.00001018       0.00000675      -0.00000435
I        7.86453429      16.20969702       1.49619987       0.00001814       0.00000304      -0.00000374
I        2.18528321      13.73424511       4.83891796      -0.00001277      -0.00001096       0.00002533
H        2.43675896      12.29574365       9.55775513       0.00002676      -0.00000914      -0.00001901
H        6.79445312      16.67186848       6.81433024      -0.00000619       0.00001171       0.00003503
H        1.64427276      13.69928400       8.76180712       0.00000432      -0.00000258       0.00000403
H        8.39175729      16.09179013       6.23171681      -0.00002838      -0.00000881       0.00000927
H        3.24160208      13.11875913       8.17970100      -0.00002363       0.00000460      -0.00002245
H        7.59880789      17.49534491       5.43626157      -0.00002227      -0.00000795       0.00001424
H        3.48106781      15.10389265       9.55364371       0.00000043       0.00000396       0.00001779
H        5.84507684      16.01098531       4.66586000       0.00002768      -0.00001233      -0.00000557
H        4.19068087      13.77999188      10.32811047       0.00002157       0.00001144      -0.00001471
H        6.55489987      14.68704906       5.44005848      -0.00002525       0.00000029       0.00000151
H        2.71977896      14.34975863      10.85391971       0.00000547       0.00001539      -0.00001719
H        7.31596652      15.44143126       4.13978984      -0.00001286      -0.00002053      -0.00002317
C        2.60031814      13.25506155       9.05548728      -0.00002726      -0.00000091       0.00003294
C        7.43555299      16.53588673       5.93836091       0.00002886      -0.00000397      -0.00003023
Pb       4.24819634      11.22028538       4.86628787       0.00000598       0.00001259      -0.00000604
Pb       8.17952406      11.20289939       4.86647532       0.00000697       0.00001206       0.00000345
N        3.28638332      14.18285241      10.00277889      -0.00003721      -0.00000688       0.00002548
N        6.74945139      15.60816475       4.99102708       0.00001394       0.00001833      -0.00000533
I       15.46510234       5.13458876       3.38558952       0.00000757      -0.00002161      -0.00000822
I       10.08225016      10.01710797       2.57943744      -0.00001803       0.00000421      -0.00001973
I       15.40758836       5.27720858       7.67596858      -0.00001095       0.00001211       0.00001249
I       10.12573440       9.72140036       6.94769192      -0.00001322       0.00000279       0.00001227
I       14.01558375       8.73079463       4.72295757       0.00001218      -0.00001835      -0.00001111
I       11.51767217       6.26789709       9.90067331       0.00002545      -0.00001555       0.00001714
H       12.19069704       6.34401486       5.85678272      -0.00000921       0.00001750       0.00000792
H       14.23544970      10.20038794       0.82968184       0.00000661      -0.00001316      -0.00000942
H       10.63491151       5.79852067       6.56741854      -0.00002449      -0.00000786       0.00000163
H       14.91270525       9.35330738      -0.60239688      -0.00000688      -0.00000055      -0.00000613
H       11.31174935       4.95125055       5.13525079      -0.00000108       0.00001917       0.00000236
H       13.35677383       8.80763633       0.10778987      -0.00000267      -0.00003055       0.00001059
H       10.96980088       7.00679510       3.84941383      -0.00001096      -0.00001133       0.00001587
H       14.57729985       8.14484706       2.11545785       0.00000653      -0.00001648       0.00002807
H       10.32144989       7.77627239       5.20733791       0.00000252      -0.00000122       0.00000042
H       16.01056723       8.68688284       1.47946681       0.00000498       0.00000698      -0.00000465
H        9.53663523       6.46475542       4.48563500      -0.00000393       0.00001320       0.00000772
H       15.22584050       7.37539749       0.75761141      -0.00001179       0.00001187       0.00002146
C       11.20615698       5.91640500       5.64186209       0.00001096      -0.00001152      -0.00000981
C       14.34123032       9.23529024       0.32300134       0.00001176       0.00003650       0.00004091
Pb      13.64982758      18.66196762      10.11357973       0.00002972      -0.00001549      -0.00000748
Pb       9.71851166      18.67929306      10.11334050      -0.00002308      -0.00002109       0.00001254
N       10.46645679       6.85306817       4.74430846       0.00001575      -0.00001558      -0.00001451
N       15.08077665       8.29859179       1.22064562       0.00001742      -0.00001130      -0.00003611
I       14.03334347      12.74196177       7.00997123       0.00000749      -0.00000189       0.00001054
I       11.72695879      17.23159325       7.95591114      -0.00002180       0.00000049      -0.00000754
I       14.00843084      12.65920445       2.64097861      -0.00001228       0.00000022      -0.00000613
I       11.76592665      17.46734401       3.66625883       0.00000863      -0.00001590      -0.00002230
I       15.72679494      16.30100979       1.48218375       0.00001892       0.00002436       0.00001152
I       10.04749306      13.82554987       4.82493158       0.00001846      -0.00001399       0.00000972
H       10.29916805      12.38686259       9.54355711       0.00002736       0.00003183      -0.00002199
H       15.46110339      17.58658688       5.42225534      -0.00001180       0.00004943      -0.00002379
H        9.50626463      13.79046719       8.74814469      -0.00002978       0.00002390      -0.00001261
H       14.65666211      16.76310145       6.80026703       0.00001724       0.00001245      -0.00001373
H       11.10352732      13.21033112       8.16548534       0.00002322       0.00000409      -0.00000299
H       16.25397719      16.18299467       6.21771946      -0.00001407      -0.00001059      -0.00001597
H       11.34318673      15.19511801       9.53979600      -0.00000102       0.00002232      -0.00000266
H       15.17825379      15.53272146       4.12571027      -0.00001487      -0.00001797       0.00000581
H       12.05298112      13.87114327      10.31394699      -0.00000229       0.00000056       0.00001046
H       13.70735827      16.10228320       4.65175597       0.00004046      -0.00002515       0.00002362
H       10.58212438      14.44072930      10.84007164       0.00002671       0.00001961      -0.00002388
H       14.41713748      14.77831665       5.42594175      -0.00002333      -0.00001747       0.00002093
C       10.46245396      13.34632446       9.04147307       0.00000079      -0.00004602       0.00004026
C       15.29780026      16.62712241       5.92432265      -0.00001810      -0.00001873       0.00006049
Pb      12.11045900      11.31160130       4.85230618       0.00001779       0.00000476      -0.00000402
Pb      16.04180397      11.29422806       4.85254342      -0.00001158      -0.00000377       0.00002024
N       11.14861184      14.27400022       9.98881200      -0.00003427      -0.00002193       0.00000871
N       14.61171822      15.69943866       4.97693838       0.00000475       0.00005944      -0.00002982
