768
Lattice="38.57865077396184 -1.3716638027227643 -0.8642038231149866 -1.1329260502481233 23.29057846880869 0.5237035871830085 -0.6462556226636108 0.48956341090934785 18.0943117227355" Properties=species:S:1:pos:R:3:forces:R:3 energy=-3664.6289268230403 stress="-2.994367490701282e-08 -1.664189155426065e-08 -1.0069066688799335e-08 -1.664189155426065e-08 3.212844104700862e-11 2.1646359499249504e-09 -1.0069066688799335e-08 2.1646359499249504e-09 -1.5073649244024485e-08" free_energy=-3664.6289268230403 pbc="T T T"
H        6.91963441      11.77378254       4.43167407       0.00000313       0.00000312       0.00000343
H       11.68165310      12.10962036       1.74741977       0.00000340      -0.00000836      -0.00000152
H        2.16455599       6.60121498       2.94458887       0.00000251       0.00000065       0.00000173
H       17.00318147       5.63700375       2.97270233      -0.00000487      -0.00000645       0.00000113
H        6.41935444      14.28987335      18.91751664      -0.00000278      -0.00000365       0.00000114
H       11.69728090       9.96079104       0.83241201      -0.00001239       0.00000048      -0.00000583
H        3.62486742       5.91343511      17.21316232       0.00000190       0.00000110       0.00000367
H       15.05816396       6.69191326       2.27475798      -0.00000322       0.00000854       0.00000363
H        5.08226017       1.07863930       2.67272264       0.00000252       0.00000338       0.00000124
H       13.15048908       9.50066713       1.71268199      -0.00000170       0.00001015      -0.00000982
H        4.19132620       7.34203664      18.08584272       0.00000850       0.00000774       0.00001138
H       14.49170709       5.26328344       1.40212182       0.00000874       0.00000504       0.00000459
H        6.01725527       2.73749721       4.20468024       0.00000863      -0.00001161       0.00000342
H       14.08547261      11.15957490       3.24458845      -0.00001057       0.00000178      -0.00000803
H        3.23526749       8.97505351       4.40509954       0.00000250      -0.00000134       0.00000083
H       15.93245450       3.26316046       1.51221007       0.00001834       0.00000193       0.00000994
H        7.47046760       2.27734389       5.08492377       0.00000721      -0.00000281       0.00000311
H       13.86093419       1.09757013       3.04540601      -0.00000405      -0.00000555      -0.00000289
H        1.73430395       8.80198901       3.48337324      -0.00000474       0.00000209      -0.00000250
H       14.89657973       6.81428554       6.79841474      -0.00000041       0.00000036       0.00000093
C        6.70318311       0.83774812       3.88508448       0.00000870      -0.00003394      -0.00001151
C       12.46455309      11.40042300       2.03221443      -0.00002787      -0.00001790      -0.00002572
C        2.88482185       7.14952386       3.55478275      -0.00002695       0.00003034      -0.00000001
C       16.28290494       5.08868729       2.36252746       0.00001609       0.00000900       0.00000802
N        5.81122162       0.44012139       3.00715585      -0.00000635       0.00000656       0.00000267
N       12.45417229      10.21001295       1.47592734       0.00000817       0.00000210       0.00001396
N        3.47217558       6.87788894      17.52495632      -0.00000023      -0.00000604      -0.00000323
N       15.21085944       5.72745310       1.96298924      -0.00000917      -0.00001763      -0.00001743
N        6.71357373       2.02814277       4.44140317      -0.00001081       0.00003176       0.00000759
N       13.35650918      11.79807961       2.91013392       0.00003258       0.00000927       0.00003216
N        2.60075133       8.39992679       3.84548686       0.00000375      -0.00002060      -0.00000072
N       16.56698334       3.83829028       2.07180715      -0.00002879      -0.00001024      -0.00001608
Pb       1.40722829       2.37123783       2.08134344      -0.00000885       0.00000055      -0.00000516
Pb      17.76052072       9.86693641       3.83595417       0.00000034       0.00000270       0.00000465
Pb       8.50255196       7.85858199       1.73249608       0.00000023       0.00000430      -0.00000475
Pb      10.66516596       4.37958542       4.18485008      -0.00000175       0.00000491       0.00000336
I        0.37197286       4.51528375       4.26998824      -0.00000324       0.00000501      -0.00000075
I       -0.49353530       8.40872114       2.07941258      -0.00000573      -0.00000146      -0.00000008
I        9.31127205      10.03576699       3.99118533       0.00000424       0.00000702      -0.00000675
I        9.85647755       2.20238780       1.92616839      -0.00000327       0.00000402       0.00000304
I       17.56319954       0.37161168       1.23044561       0.00000215      -0.00000561      -0.00000324
I        1.60455606      11.86657611       4.68686313       0.00000018       0.00000509      -0.00000243
I       11.56469489       6.53812952       1.86763955       0.00000613      -0.00000367       0.00000021
I        7.60302141       5.70003604       4.04970633       0.00000675       0.00000941       0.00000585
I        4.27885639       3.54416685       1.98766413       0.00001167      -0.00000008      -0.00000498
I       14.88887216       8.69404298       3.92966152      -0.00000560      -0.00000367       0.00000930
I        5.60445545       9.03509107       1.47374090      -0.00000464       0.00000379       0.00000257
I       13.56326661       3.20307029       4.44356442       0.00000034      -0.00000059      -0.00000551
H        6.75813688      11.89629337       8.95541457       0.00000333      -0.00001003      -0.00000076
H       11.52002758      12.23195584       6.27097938       0.00000514       0.00000244      -0.00000134
H        2.00296301       6.72357816       7.46820610      -0.00000634      -0.00000483      -0.00000814
H       16.84161272       5.75937495       7.49632029       0.00000688       0.00000312       0.00000319
H        5.30682825      11.14060931       2.87188034       0.00000024      -0.00000828      -0.00000095
H       11.53569675      10.08313056       5.35597199      -0.00000133       0.00000305      -0.00000351
H        4.10954012       5.54628306       3.64259488       0.00000162       0.00001078       0.00000058
H       17.27191086       3.55863718       6.95742627       0.00000163      -0.00000086       0.00000126
H        5.85569189       2.85991605       8.72832732       0.00000555       0.00000105       0.00000301
H       12.98891657       9.62303291       6.23623608      -0.00000562       0.00001169      -0.00000812
H        4.67598899       6.97491091       4.51524095       0.00000129      -0.00000034       0.00000270
H       15.77092863       3.38557428       6.03572876      -0.00000274      -0.00000031       0.00000042
H        4.92079067       1.20099882       7.19637476      -0.00000275       0.00000067       0.00000126
H       13.92386455      11.28195605       7.76814811       0.00000799      -0.00000122       0.00000153
H        3.07370105       9.09736658       8.92877845       0.00000555       0.00001391       0.00000352
H       14.33014319       5.38567759       5.92572760      -0.00000706       0.00000028      -0.00000446
H        5.71186081      -0.38228078       7.13376346      -0.00000115       0.00000250       0.00000089
H       13.69932410       1.21996416       7.56891246      -0.00000061       0.00000003       0.00000011
H        1.57270861       8.92432834       8.00709334      -0.00000503       0.00000732      -0.00000958
H       17.11033573       3.68099569      11.48109703       0.00001230      -0.00000063      -0.00000046
C        6.54169711       0.96018726       8.40877183       0.00002333       0.00000873       0.00001314
C       12.30294274      11.52277497       6.55577286       0.00000556       0.00002466       0.00001501
C        2.72324444       7.27187049       8.07839565       0.00000071       0.00005594       0.00001694
C       16.12134616       5.21107389       6.88612091      -0.00001941       0.00000511      -0.00000795
N        6.55203214       2.15059094       8.96507242      -0.00000861      -0.00000340      -0.00001185
N       12.29258518      10.33236563       5.99948589      -0.00000004      -0.00002880      -0.00001056
N        3.95684673       6.51074612       3.95435621       0.00001945      -0.00002807       0.00000803
N       16.40544814       3.96069502       6.59534463      -0.00000297      -0.00000114       0.00001341
N        5.64976676       0.56251174       7.53083464      -0.00002695      -0.00000281      -0.00002083
N       13.19489293      11.92044942       7.43369145      -0.00001215      -0.00000300       0.00000033
N        2.43916662       8.52225638       8.36916869       0.00000604      -0.00005346      -0.00001718
N       15.04928739       5.84983726       6.48661319       0.00002692      -0.00000982      -0.00000128
Pb       1.24566893       2.49361420       6.60492191      -0.00000086      -0.00000655       0.00000254
Pb      17.59894825       9.98932609       8.35953465       0.00000283       0.00000222       0.00000260
Pb       8.34098504       7.98097839       6.25608407      -0.00000265      -0.00000158      -0.00000391
Pb      10.50363035       4.50195843       8.70843651      -0.00000027       0.00000496      -0.00000307
I        0.21036919       4.63765590       8.79355525       0.00000408       0.00000444      -0.00000163
I       -0.65507898       8.53111373       6.60299038      -0.00000319      -0.00000211       0.00000404
I        9.14971999      10.15816408       8.51476906      -0.00000487       0.00000049      -0.00000736
I        9.69487970       2.32478830       6.44974147       0.00000067      -0.00000644       0.00000017
I       17.40162645       0.49400449       5.75400991       0.00000479       0.00000442       0.00000523
I        1.44299132      11.98896177       9.21044835       0.00000167      -0.00000458       0.00000391
I       11.40312923       6.66051664       6.39122912      -0.00000161      -0.00000046      -0.00000562
I        7.44148395       5.82242649       8.57329466      -0.00000249      -0.00000291       0.00000260
I        4.11732397       3.66649537       6.51124330       0.00000479      -0.00000413       0.00000181
I       14.72729331       8.81644304       8.45326540      -0.00000344      -0.00000065      -0.00000303
I        5.44289273       9.15750756       5.99736744      -0.00000283      -0.00000335      -0.00000644
I       13.40172646       3.32543525       8.96715052       0.00000096      -0.00000387      -0.00000543
H        6.59655063      12.01864738      13.47887335       0.00000042      -0.00000058      -0.00000202
H       11.35850526      12.35441088      10.79463367       0.00000397      -0.00000403       0.00000403
H        1.84143969       6.84595992      11.99183731       0.00000549       0.00000098      -0.00000010
H       16.68006787       5.88176077      12.01990762       0.00000294       0.00000213       0.00000194
H        6.74245080      14.04513939       9.87037355       0.00000282      -0.00000642       0.00000186
H       11.37413445      10.20560779       9.87956848       0.00000052      -0.00000644      -0.00000082
H        3.94798869       5.66864097       8.16609829       0.00000221       0.00000466       0.00000285
H       14.73506032       6.93667750      11.32193940      -0.00000061       0.00000452       0.00000252
H        4.75911173       1.32342421      11.71987390       0.00000434      -0.00000053       0.00000221
H       12.82735839       9.74546955      10.75980421      -0.00000568      -0.00000782      -0.00000363
H        4.51445208       7.09724248       9.03877547       0.00000847       0.00000228       0.00000642
H       14.16861515       5.50805109      10.44928993       0.00000199       0.00000176      -0.00000263
H        5.69414865       2.98224531      13.25184645      -0.00000375       0.00000919      -0.00000275
H       13.76233821      11.40433259      12.29176088       0.00000507      -0.00000211       0.00000484
H        2.91218332       9.21984459      13.45224881      -0.00000790       0.00000317       0.00000690
H       15.60936363       3.50792776      10.55938351      -0.00000006      -0.00000490       0.00000323
H        7.14737233       2.52206490      14.13205629       0.00000632       0.00000344       0.00000521
H       13.53778798       1.34232143      12.09253674      -0.00000390      -0.00000122      -0.00000028
H        1.41119725       9.04675260      12.53056310      -0.00000560       0.00000006       0.00000410
H       14.57350558       7.05906149      15.84549739      -0.00000167      -0.00000070      -0.00000250
C        6.38005194       1.08249508      12.93220610      -0.00001287       0.00002034       0.00000069
C       12.14141073      11.64520981      11.07940387      -0.00000292       0.00001298      -0.00000003
C        2.56171922       7.39429054      12.60199590      -0.00000086      -0.00002094      -0.00000847
C       15.95980050       5.33345035      11.40971725       0.00000551      -0.00002397      -0.00000338
N        5.48807046       0.68489224      12.05428709       0.00000378       0.00000449       0.00001257
N       12.13103066      10.45481534      10.52308417       0.00000016      -0.00000095      -0.00000601
N        3.79529545       6.63309215       8.47789884       0.00000077      -0.00000142      -0.00000169
N       14.88776085       5.97221902      11.01016742      -0.00000876       0.00000148      -0.00000367
N        6.39046578       2.27288196      13.48854339       0.00000284      -0.00002585      -0.00000530
N       13.03337256      12.04284568      11.95732790      -0.00000568       0.00000756      -0.00000474
N        2.27764933       8.64469882      12.89267549       0.00001016       0.00001236      -0.00000092
N       16.24388252       4.08305460      11.11899347      -0.00002352       0.00001948      -0.00000191
Pb       1.08410323       2.61601854      11.12849989       0.00000235      -0.00000343       0.00000298
Pb      17.43739277      10.11171245      12.88311324       0.00000105      -0.00000166       0.00000160
Pb       8.17944522       8.10336040      10.77966204      -0.00000041       0.00000329       0.00000608
Pb      10.34205894       4.62435928      13.23201683      -0.00000679       0.00000152      -0.00000426
I        0.04883001       4.76006255      13.31714252       0.00000572      -0.00000041       0.00000468
I       -0.81663799       8.65350355      11.12658014      -0.00000400      -0.00000574       0.00000224
I        8.98816789      10.28056476      13.03833822       0.00000448       0.00000402      -0.00000607
I        9.53335578       2.44716371      10.97333510       0.00000283       0.00000012       0.00000163
I       17.24006831       0.61639112      10.27759930       0.00000471       0.00000004      -0.00000664
I        1.28143366      12.11135995      13.73402352      -0.00000182       0.00000354       0.00000402
I       11.24158483       6.78290260      10.91480051       0.00000321       0.00000198       0.00000075
I        7.27991393       5.94481841      13.09687534       0.00001142       0.00000279       0.00000050
I        3.95573474       3.78895006      11.03483771      -0.00000780       0.00000127      -0.00000512
I       14.56574150       8.93881959      12.97683254       0.00000364      -0.00000210       0.00000011
I        5.28134848       9.27988325      10.52094193      -0.00000158       0.00000297      -0.00000095
I       13.24014793       3.44782046      13.49072064       0.00000218      -0.00000431      -0.00000370
H        6.43499057      12.14105554      18.00248855      -0.00000192       0.00000673      -0.00000213
H       11.19698011      12.47683858      15.31820994      -0.00001021       0.00000046      -0.00000070
H        1.67985895       6.96838078      16.51523533      -0.00000197      -0.00000006       0.00000667
H       16.51851706       6.00413403      16.54344379       0.00000891       0.00001006       0.00000972
H        4.98375359      11.38540900      11.91909242       0.00000307      -0.00000849       0.00000063
H       11.21257062      10.32803170      14.40314691      -0.00000416      -0.00000583      -0.00000137
H        3.78645058       5.79105986      12.68981808      -0.00000251      -0.00000325      -0.00000945
H       16.94875467       3.80335926      16.00464805       0.00000377       0.00000307       0.00000190
H        5.53254418       3.10470443      17.77547197       0.00000134       0.00000321      -0.00000738
H       12.66578677       9.86787042      15.28338242      -0.00000112      -0.00000051      -0.00000569
H        4.35291451       7.21971345      13.56240990       0.00000257       0.00000069       0.00000443
H       15.44776478       3.63029583      15.08296346      -0.00000422      -0.00000307      -0.00001153
H        4.59767685       1.44576848      16.24351864       0.00000447      -0.00000525       0.00000218
H       13.60080648      11.52672582      16.81532664      -0.00000805      -0.00000573      -0.00000397
H        2.75058582       9.34217073      17.97581301       0.00000912       0.00001246       0.00001135
H       14.00703869       5.63043276      14.97286551      -0.00001117      -0.00000108      -0.00000898
H        5.38876628      -0.13750116      16.18091915      -0.00000193      -0.00000455      -0.00000432
H       13.37615473       1.46471560      16.61606527      -0.00000529       0.00000544      -0.00000303
H        1.24960341       9.16913152      17.05411017      -0.00000638       0.00000277       0.00000022
H       17.43344146       3.43623329       2.43389979       0.00002022      -0.00000814       0.00000430
C        6.21858091       1.20498490      17.45592415       0.00001143       0.00002317       0.00002595
C       11.97987422      11.76762474      15.60297813       0.00001289      -0.00003108      -0.00001512
C        2.40013382       7.51667150      17.12543488      -0.00000934       0.00004139       0.00001506
C       15.79823462       5.45582463      15.93327089      -0.00002987      -0.00002245      -0.00002610
N        6.22889495       2.39539112      18.01222066       0.00000354      -0.00003213      -0.00000836
N       11.96947230      10.57722868      15.04666039       0.00000056       0.00001651       0.00001355
N        3.63375878       6.75552894      13.00155865      -0.00001712       0.00000380       0.00000062
N       16.08229988       4.20542336      15.64255414       0.00000256       0.00002375       0.00001715
N        5.32666082       0.80729308      16.57798403      -0.00003443      -0.00000254      -0.00002172
N       12.87184663      12.16524755      16.48089673       0.00001344       0.00001094       0.00000823
N        2.11605852       8.76706063      17.41619565       0.00000143      -0.00004410      -0.00002459
N       14.72619425       6.09459930      15.53373072       0.00003452       0.00000025       0.00002072
Pb       0.92253842       2.73839892      15.65208277       0.00000913       0.00000059      -0.00000527
Pb      17.27583367      10.23409742      17.40669110      -0.00000286       0.00000319       0.00000519
Pb       8.01789574       8.22577089      15.30323324      -0.00000847       0.00000679       0.00000483
Pb      10.18049718       4.74674793      17.75558004      -0.00000253      -0.00000192      -0.00000344
I       -0.11271673       4.88246522      17.84071345      -0.00000161       0.00000033       0.00000057
I       -0.97823729       8.77588178      15.65014139      -0.00000275       0.00001025       0.00000081
I        8.82660726      10.40295279      17.56193029      -0.00000883      -0.00000268      -0.00000739
I        9.37176520       2.56955746      15.49689947       0.00000169      -0.00000275      -0.00000192
I       17.07849236       0.73876964      14.80116897       0.00000259       0.00000066       0.00000859
I        1.11987699      12.23374806      18.25759947      -0.00000088      -0.00000404      -0.00000159
I       11.08002943       6.90530386      15.43837904       0.00000243      -0.00000270       0.00000029
I        7.11835422       6.06721369      17.62042938       0.00000072       0.00000023       0.00000222
I        3.79420702       3.91125407      15.55836985      -0.00000197       0.00000126       0.00000542
I       14.40418591       9.06120408      17.50039430       0.00000316      -0.00000165       0.00000262
I        5.11981495       9.40233232      15.04450239      -0.00000489      -0.00000403      -0.00000343
I       13.72484043       3.08064153      -0.08002099      -0.00000011       0.00000253      -0.00000481
H        7.48607953       0.12853799       4.16985815      -0.00000887       0.00001495      -0.00000526
H       12.24812377       0.46436889       1.48562922       0.00000329      -0.00000196      -0.00000220
H        1.59811203      18.24646047       3.20647355      -0.00000507      -0.00000143      -0.00001087
H       16.43673979      17.28226207       3.23455472      -0.00000272      -0.00000911       0.00000471
H        6.98576575       2.64463997      18.65574968       0.00000943      -0.00000244      -0.00000212
H       12.26373129      -1.68442767       0.57054740      -0.00000515      -0.00000314      -0.00000303
H        3.05840101      17.55873424      17.47512767      -0.00000032       0.00000322       0.00000456
H       14.49171876      18.33719060       2.53663774       0.00000489       0.00000940       0.00001262
H        4.51581396      12.72391790       2.93456257      -0.00000490       0.00000391      -0.00000196
H       13.71695739      -2.14458310       1.45076684       0.00000630      -0.00001041       0.00000304
H        3.62486258      18.98735496      18.34777614       0.00000482       0.00000029       0.00000690
H       13.92524875      16.90857259       1.66399439      -0.00000822      -0.00000948      -0.00001500
H        5.45081654      14.38274320       4.46655670      -0.00000650       0.00000749      -0.00000222
H       14.65195692      -0.48573486       2.98273914       0.00000394       0.00000223      -0.00000367
H        2.66880214      20.62031922       4.66696775      -0.00000092       0.00000016      -0.00000681
H       15.36599490      14.90844264       1.77403586      -0.00000030       0.00000594       0.00000776
H        6.90403587      13.92256993       5.34677861      -0.00000154       0.00000409      -0.00000185
H       13.29443810      12.74287448       3.30720381      -0.00000089      -0.00000260       0.00000434
H        1.16783245      20.44723055       3.74525291       0.00000431       0.00000549       0.00000750
H       14.33017666      18.45958960       7.06023533       0.00000199      -0.00002097      -0.00000808
C        6.13673814      12.48299908       4.14691764      -0.00001423      -0.00001142      -0.00001292
C       13.03102705      -0.24483883       1.77038846      -0.00002925      -0.00002103      -0.00002939
C        2.31837552      18.79478332       3.81665704       0.00001151       0.00001561       0.00001321
C       15.71645523      16.73395664       2.62437970      -0.00001735       0.00002276      -0.00001257
N        5.24477189      12.08539036       3.26898536       0.00001899       0.00000486       0.00002274
N       13.02063392      -1.43522976       1.21405912      -0.00000306       0.00002417       0.00001645
N        2.90570923      18.52319289      17.78690425      -0.00001682      -0.00000277      -0.00001304
N       14.64440793      17.37273252       2.22485987       0.00003148      -0.00001912       0.00000307
N        6.14713495      13.67338327       4.70325986       0.00000216      -0.00000282       0.00000065
N       13.92299636       0.15278591       2.64830886       0.00000787       0.00000791       0.00001807
N        2.03428754      20.04518121       4.10736426      -0.00001151       0.00000155      -0.00000246
N       16.00052628      15.48356242       2.33363982       0.00000076       0.00000312      -0.00000533
Pb       0.84077588      14.01652456       2.34318359      -0.00000027       0.00000678       0.00000493
Pb      17.19405913      21.51223310       4.09782724      -0.00000106       0.00001139      -0.00000126
Pb       7.93609946      19.50388081       1.99433688       0.00000136       0.00000329      -0.00000323
Pb      10.09871404      16.02487368       4.44669297       0.00000289      -0.00000617      -0.00000010
I       -0.19449900      16.16056462       4.53183180       0.00000000       0.00000522       0.00000001
I       -1.05998798      20.05400445       2.34127535      -0.00000222       0.00000144      -0.00000165
I        8.74479744      21.68108493       4.25301223       0.00000033      -0.00000039      -0.00000079
I        9.29001995      13.84767750       2.18800747      -0.00000450      -0.00000125       0.00000045
I       16.99672472      12.01687960       1.49227741       0.00000272       0.00000273      -0.00000760
I        2.17102077       0.22128428       4.42501525      -0.00000078      -0.00000266       0.00000061
I       10.99824078      18.18342567       2.12948874       0.00000219       0.00000333      -0.00000365
I        7.03657418      17.34533116       4.31154823      -0.00000354       0.00000100       0.00000053
I        3.71241909      15.18943447       2.24951718      -0.00000835       0.00000492      -0.00000269
I       14.32241154      20.33933562       4.19152774      -0.00000004      -0.00001029      -0.00000119
I        5.03800364      20.68040526       1.73561575       0.00000492       0.00000114       0.00000497
I       12.99681023      14.84835224       4.70540664      -0.00000174       0.00000516       0.00000611
H        7.32461650       0.25101365       8.69357155      -0.00000694      -0.00000615      -0.00001092
H       12.08649183       0.58672474       6.00916820       0.00000506      -0.00000258      -0.00000145
H        1.43651835      18.36886481       7.72998933      -0.00000605      -0.00000224      -0.00000356
H       16.27519017      17.40464216       7.75814114       0.00000434       0.00000847       0.00001472
H        5.87328026      -0.50466603       2.61006670       0.00000841      -0.00000758       0.00000342
H       12.10211993      -1.56207635       5.09410277      -0.00000038       0.00000029      -0.00000849
H        3.54312073      17.19156280       3.90445841       0.00000350      -0.00000272      -0.00000168
H       16.70540479      15.20386882       7.21932677      -0.00001085       0.00000850      -0.00000660
H        5.28923346      14.50520823       8.99008741       0.00000060       0.00000525       0.00000641
H       13.55536921      -2.02220425       5.97429860       0.00000095       0.00000449       0.00000791
H        4.10955801      18.62020089       4.77709454      -0.00000559      -0.00000363      -0.00000860
H       15.20440346      15.03082363       6.29765441       0.00000737       0.00000244       0.00000998
H        4.35429833      12.84624196       7.45821657      -0.00000816       0.00001447       0.00000150
H       14.49036723      -0.36332861       7.50624245       0.00000881       0.00000190       0.00000359
H        2.50724699      20.74268718       9.19051342      -0.00000191      -0.00000603       0.00000072
H       13.76368062      17.03097327       6.18760291       0.00002819       0.00000292       0.00001337
H        5.14536427      11.26296005       7.39564106       0.00000109       0.00000593      -0.00000246
H       13.13280491      12.86524239       7.83076309       0.00000662      -0.00000341      -0.00000324
H        1.00625915      20.56962389       8.26882390       0.00000302       0.00000335       0.00000181
H       16.54385084      15.32625490      11.74287667      -0.00000086      -0.00000196       0.00000303
C        5.97522022      12.60546350       8.67060015      -0.00000761       0.00001436      -0.00000710
C       12.86941212      -0.12246775       6.29391937       0.00000163      -0.00000439       0.00000194
C        2.15679567      18.91717037       8.34017225       0.00003898      -0.00003371       0.00001040
C       15.55489323      16.85634133       7.14797733       0.00001809      -0.00002969       0.00000611
N        5.98557006      13.79588741       9.22685732      -0.00000333      -0.00001772      -0.00000558
N       12.85902917      -1.31286333       5.73760141       0.00000254      -0.00000490       0.00000363
N        3.39041647      18.15602399       4.21621870       0.00000469      -0.00001399       0.00000725
N       15.83894639      15.60594034       6.85724893       0.00000696      -0.00000428      -0.00000946
N        5.08327572      12.20776341       7.79268746       0.00000538      -0.00000452       0.00000169
N       13.76139154       0.27517867       7.17182029      -0.00000740       0.00000225       0.00000714
N        1.87271791      20.16756235       8.63091236      -0.00000556       0.00002975       0.00000278
N       14.48285070      17.49512605       6.74846218      -0.00004867       0.00003000      -0.00002905
Pb       0.67919751      14.13890324       6.86677240       0.00000612       0.00000187      -0.00000336
Pb      17.03250370      21.63464068       8.62139643      -0.00000734       0.00000254      -0.00000365
Pb       7.77452424      19.62628615       6.51790837       0.00000536      -0.00000374      -0.00000140
Pb       9.93714407      16.14725493       8.97026351      -0.00000010       0.00000099       0.00000235
I       -0.35606563      16.28296593       9.05540388      -0.00000155      -0.00000147       0.00000093
I       -1.22156411      20.17640385       6.86484238      -0.00000516       0.00000266       0.00000474
I        8.58325707      21.80346839       8.77659647      -0.00000210       0.00000033      -0.00000011
I        9.12844211      13.97005811       6.71157868      -0.00000447       0.00000426       0.00000501