96
Lattice="12.621234754298055 -0.02339263923838827 0.12906233446820126 0.026668147974189562 12.524117319835822 -0.04971148939888633 -0.012914095405181444 0.01284683557128007 12.654303939296854" Properties=species:S:1:pos:R:3:forces:R:3 energy=-418.88270738322535 stress="0.0032295035946433843 9.787784039601143e-06 0.0002700656956955359 9.787784039601143e-06 0.004524360299343132 -7.867327973586373e-05 0.0002700656956955359 -7.867327973586373e-05 0.0014292901348229336" free_energy=-418.88270738322535 pbc="T T T"
I        4.92306695       3.60409073       2.84280308      -0.00001518       0.00002413      -0.00000404
I        5.12936199      15.12883252       9.12209378       0.00000346      -0.00000642       0.00002149
I        4.70063366      12.43454344       5.58104031       0.00001361      -0.00001061       0.00000384
I        6.15656176       6.17206294       6.39538338       0.00001768       0.00000105       0.00000415
I       -1.17921735      16.13920296       9.05792224      -0.00001541       0.00000590      -0.00001282
I       11.23077723       2.58079659       2.91126415      -0.00000324      -0.00000827      -0.00002524
I       10.99600384       6.27943060       5.67076977       0.00000108       0.00001078      -0.00000317
I       -0.14258846      12.56447928       6.30634300      -0.00002045      -0.00001705       0.00001172
I        8.40481078      14.90580019      12.07902187       0.00002413       0.00000659      -0.00001273
I        2.44120743       8.64245075       5.70917175      -0.00001279      -0.00000016      -0.00000636
I        2.09010775       3.83245841       6.22792691       0.00000386      -0.00000933      -0.00000266
I        8.42490901      14.89216420       6.25141194       0.00001601       0.00000978      -0.00003099
H        0.64240341       6.80243433       2.79278652      -0.00000132      -0.00001595       0.00000851
H        7.61646316       5.54335224       3.74630236       0.00000544      -0.00000207      -0.00002320
H        6.96323696      11.92323308       2.83259845       0.00001309       0.00000836       0.00000964
H        3.30552975       7.10276472       8.23040434       0.00002646       0.00000973       0.00001220
H        3.20627079      11.83385121      10.02281943      -0.00000449      -0.00000389      -0.00001612
H        7.64965200       5.55430000       1.95059364      -0.00001041       0.00001040       0.00000941
H        9.53604135       6.90800638       8.31987910       0.00000122       0.00000107       0.00000512
H        3.30383502       7.11910526      10.03119028      -0.00000945      -0.00000218      -0.00000766
H        1.22590448       5.37200956       3.70656854      -0.00000600      -0.00002012       0.00005154
H        9.04606249       4.89263019       2.87058595       0.00002233      -0.00001287      -0.00000338
H        7.55890612      13.35763360       1.93265534      -0.00002514       0.00002123      -0.00000366
H        3.88897961       5.67236867       9.14425997       0.00000311      -0.00000505       0.00000802
H        2.88477065       7.13806926       3.63317902       0.00001138       0.00000919      -0.00001056
H        7.96881323      13.39227497      10.00768148      -0.00002526      -0.00002117      -0.00000905
H        9.19981921      11.58677019       3.68780356      -0.00003037      -0.00004143       0.00005663
H        3.18995983      11.59499011       1.96372627       0.00001387       0.00002636       0.00000309
H        2.88651693       7.12639233       1.95405630       0.00002985      -0.00001329       0.00000771
H        7.39988387      12.04081422       9.16680854      -0.00003505      -0.00003481       0.00000060
H        9.77941500      12.93477717       2.84948956      -0.00001808       0.00000620       0.00002138
H        1.84768695      10.97915390       2.79517725      -0.00002525      -0.00003251      -0.00001376
H        3.45477457       5.78034193       2.80453319      -0.00000280      -0.00002581      -0.00001208
H        8.15200991       7.74188322       2.87439887      -0.00001632       0.00002738      -0.00002189
H        9.21046813      11.58327656       2.00868782       0.00000223       0.00001827      -0.00002408
H        3.17036084      11.61293525       3.64533695       0.00001161      -0.00004547      -0.00001693
C        2.60212901      11.92361205       9.11495102       0.00001626       0.00001738      -0.00002199
C        8.25055106       5.64511247       2.86051287       0.00001221       0.00000061       0.00000733
C        8.90191543       6.80626535       9.20564308      -0.00002732       0.00001467      -0.00000409
C        3.17599854       6.50287573       9.13618954      -0.00003412       0.00000593      -0.00005082
Pb       5.59018956       9.38184204       5.99869032       0.00000246       0.00001139       0.00000497
Pb       5.27895496      15.64513361       5.95115997      -0.00000314      -0.00000415      -0.00000607
Pb      -1.04812180      15.63035566      12.24000720      -0.00000939      -0.00000589       0.00003151
Pb      -1.03222151      15.61714690       5.88868473       0.00000834      -0.00000243       0.00000071
N        2.73691228       6.53419672       2.79754054      -0.00000555       0.00001382       0.00004285
N        8.12062429      12.79193762       9.17036083       0.00002621       0.00004298       0.00003528
N        9.05869364      12.18363207       2.84600203       0.00005312       0.00002245      -0.00002035
N        2.57738630      11.71855010       2.79618153       0.00006415       0.00004197       0.00002879
I        5.92177349       9.87071497       9.15488974       0.00000324       0.00000339       0.00001780
I        5.73726194       8.85980829       2.82946612      -0.00002040      -0.00001851      -0.00001022
I        6.13283842       6.16804743      11.94818069       0.00000203       0.00000623      -0.00000472
I        4.71871940      12.42280604       0.02828213       0.00000708      -0.00001569       0.00001002
I       -0.57131618       9.87012650       2.76526004      -0.00003301      -0.00000683       0.00002755
I       12.22944894       8.84735501       9.22332241       0.00000790      -0.00001724       0.00001986
I       12.47334817      12.53991452      -0.66610976      -0.00000794      -0.00001432       0.00000895
I       -1.61443288       6.31964047      12.64324693      -0.00000933       0.00000439      -0.00000969
I        8.75430756      10.08352077       5.76505218       0.00001471      -0.00002150       0.00000667
I        2.11020057      16.34394700      -0.64840835       0.00002158       0.00000167       0.00001737
I        2.44780012       8.65492252      12.53568239      -0.00002778       0.00002908      -0.00000192
I        8.77441330      10.06970022      -0.06258582       0.00002281       0.00000489       0.00000229
H        3.23214497      11.81522334       8.22704203      -0.00002164       0.00000717      -0.00002032
H        9.62033011      11.61788982      10.08379758      -0.00001046       0.00000850      -0.00000725
H        9.50276673       6.89715174      10.11558589       0.00002215      -0.00002817       0.00001368
H        2.75482467      13.82423477       2.77591089      -0.00000020      -0.00000746       0.00000674
H        1.22764958       5.35578385       1.90578443      -0.00000506       0.00000448       0.00002643
H        9.63218258      11.61392514       8.28298545      -0.00000586      -0.00000280      -0.00000279
H        7.54715311      13.36160160       3.73346958       0.00001702       0.00000524      -0.00000514
H        1.35156144      13.16505694       1.86465429      -0.00000841       0.00003129       0.00000975
H        1.80311388      11.17479321       9.11131118       0.00001220      -0.00002076       0.00000338
H       10.21608443      13.05227823       9.18389095       0.00001411      -0.00000409      -0.00000437
H        8.10637361       7.55871482       9.19549450      -0.00001059       0.00000909      -0.00000144
H        1.32590659      13.18389969       3.66043393       0.00001760       0.00000630      -0.00000527
H        2.71024970      14.01987620       9.09247185       0.00004107       0.00001145      -0.00000501
H        9.49424995       7.11651155       2.04982301       0.00000220       0.00001052       0.00001532
H        9.00053935       4.70949516       9.19187290      -0.00000289      -0.00000621      -0.00000786
H        1.64657398       5.33681008       8.30393439       0.00000988       0.00004334       0.00000031
H        1.36791335      13.40392759       9.92374464      -0.00000136       0.00005688       0.00000915
H        9.46891837       7.10557950       3.73142603       0.00000382       0.00000759       0.00000946
H        7.68364940       5.34570209       8.33475088       0.00000384       0.00000210      -0.00001544
H        1.07665777       6.69460786       9.13252775      -0.00000719       0.00003214      -0.00000896
H        1.38765429      13.38619383       8.24213350      -0.00000282      -0.00002867       0.00002405
H        7.97957543      13.38882924       8.32856257      -0.00000545      -0.00001645      -0.00000179
H        7.65823421       5.33486239      10.01634997       0.00000735      -0.00001435       0.00002596
H        1.64486155       5.34857112       9.98305014      -0.00000261      -0.00004385       0.00003943
C        1.35542914       5.97196462       2.80082817      -0.00002203       0.00001289      -0.00008892
C        9.49992542      12.22447637       9.18118088      -0.00001032       0.00001339      -0.00000943
C        7.67937581      12.75105338       2.83526651       0.00000365      -0.00001525      -0.00000602
C        1.95581385      13.07541016       2.77245962      -0.00001996      -0.00003343      -0.00002705
Pb       5.26235103      15.64317614      12.30231407      -0.00002184      -0.00000729      -0.00000013
Pb       5.59319974       9.38148596      12.30166038      -0.00000216       0.00001698      -0.00001797
Pb      -0.72101264       9.35389131       5.93621336       0.00001046      -0.00000115      -0.00002062
Pb      -0.71724142       9.36862088      12.23934845      -0.00001290      -0.00001227       0.00000274
N        1.98055783      13.28047461       9.09132239      -0.00003445      -0.00001730      -0.00001919
N        8.87830305       6.99917916       2.88084698       0.00001600       0.00000340      -0.00002973
N        8.27421771       5.45217192       9.18535017       0.00000555       0.00001179       0.00000283
N        1.79448405       5.94071904       9.13953831      -0.00000619      -0.00001727       0.00000872
