768
Lattice="38.42932232328852 0.39493935294422494 -0.1354659791419477 -0.2661737847703794 21.88944780815638 -0.0951616578971801 0.021465871351484686 -0.0043229637202767705 19.033072748430197" Properties=species:S:1:pos:R:3:forces:R:3 energy=-3354.833597111476 stress="0.0025210437944350244 -3.249029405695399e-05 -6.463159788522288e-05 -3.249029405695399e-05 0.0008986454166106742 -0.00023009799602724158 -6.463159788522288e-05 -0.00023009799602724158 0.0009378171218438283" free_energy=-3354.833597111476 pbc="T T T"
I       16.89750814       4.34018097       2.77131705       0.00000965       0.00001246      -0.00000036
I       17.47877011       8.07970410       0.36478155       0.00000016      -0.00000869       0.00000083
I        7.85223301       9.72222849       2.77850896       0.00000933       0.00000732      -0.00002113
I        7.30937645       2.50013148       0.42532222       0.00001145       0.00000082       0.00000673
I       15.22350595       0.89803695       0.41270439       0.00000555       0.00001363       0.00000681
I       -0.06187821      11.32439403       2.79111109      -0.00000656      -0.00000913      -0.00000931
I        9.60617396       6.31917320       0.41898748       0.00000107       0.00001796      -0.00000404
I        5.55546989       5.90312593       2.78487114      -0.00001443       0.00001584      -0.00000453
I        1.65051491       3.99982606       0.43704275      -0.00000831      -0.00000057       0.00000681
I       13.51111909       8.22260630       2.76675176       0.00000296      -0.00001751      -0.00000877
I        3.88942766       9.48773238       0.40080526       0.00001665      -0.00000257       0.00000117
I       11.27223174       2.73462225       2.80308333      -0.00001106       0.00000912      -0.00000266
H        3.07921806       1.62986224       2.81262396       0.00001355       0.00000285       0.00001026
H       12.08235355      10.59233413       0.39131146      -0.00002366      -0.00000990      -0.00001361
H        1.30417102       8.08358274       3.69623837      -0.00001849       0.00001549       0.00003105
H       13.85763494       4.13874643      -0.49246824      -0.00000678       0.00001886       0.00001028
H        4.26681097       2.63198354       3.71055143       0.00002397       0.00002280       0.00002018
H       10.88601770       9.59236592       1.28037315       0.00002259       0.00000951       0.00000246
H        2.51714586       7.10888355       2.80202763      -0.00002673      -0.00000711      -0.00000888
H       13.86489600       4.14701742       1.29456164       0.00001999      -0.00002722       0.00002438
H        4.27537860       2.63002261       1.92355210       0.00001302      -0.00001289      -0.00001040
H       10.89467145       9.59031402      -0.50662302       0.00001453       0.00000728      -0.00000994
H        1.29646607       8.07542121       1.90921158       0.00000633      -0.00001893       0.00000952
H       12.64446909       5.11353871       0.40139440       0.00001938      -0.00000976       0.00001322
H        4.90306371       0.26219324       3.65045591      -0.00000441       0.00000062       0.00002981
H       10.25872020      11.96021024      -0.44665513      -0.00001162       0.00000437       0.00001529
H        0.72810479       5.69819815       3.64366536       0.00001263       0.00002007       0.00000569
H       14.43368338       6.52416273      -0.43984964      -0.00000147      -0.00000794       0.00001355
H        6.03774790       1.19366372       2.82918662       0.00000304      -0.00000574       0.00001364
H       10.24997952      11.96078064       1.21026293       0.00000456      -0.00002479      -0.00004180
H        0.72103529       5.69214277       1.98683149      -0.00000544       0.00000220      -0.00000828
H       15.59099323       5.62459418       0.38622974       0.00001653      -0.00000570      -0.00000350
H        4.91169373       0.26165843       1.99354629      -0.00000737       0.00001617      -0.00001465
H        9.12387595      11.02889516       0.37455846      -0.00001990      -0.00002267      -0.00000974
H       -0.42936187       6.59773517       2.81778201       0.00000183       0.00001171       0.00000467
H       14.44049434       6.53022460       1.21698523      -0.00000479       0.00002076       0.00000199
C        4.10101558       2.02362221       2.81690239      -0.00002822      -0.00000852      -0.00003100
C       11.06050754      10.19870079       0.38700262      -0.00001813      -0.00000365       0.00002386
C        1.48573914       7.47667690       2.80471586       0.00001752      -0.00001231      -0.00003074
C       13.67586442       4.74571131       0.39897475      -0.00001754       0.00002866      -0.00002008
Pb      37.42184480       2.71835225       0.32384403       0.00000776      -0.00000514       0.00000323
Pb      16.16911794       9.89902607       2.74450137      -0.00000586       0.00000501      -0.00000824
Pb       6.58441437       7.87086115       0.40338792       0.00000407       0.00000320      -0.00000704
Pb       8.57721886       4.35145928       2.80046750       0.00000961      -0.00001014       0.00000287
N        5.05446262       0.88338987       2.82255261       0.00000230      -0.00002307      -0.00002250
N       10.10719849      11.33904915       0.38125605       0.00001868      -0.00000693       0.00004635
N        0.56154467       6.31269834       2.81381767      -0.00000278       0.00000873       0.00001041
N       14.60009555       5.90966231       0.39002391      -0.00001210       0.00001197      -0.00002812
I       16.90290940       4.33912966       7.52960445      -0.00001339       0.00000140       0.00000087
I       17.48416178       8.07864062       5.12301019       0.00001047      -0.00001941      -0.00000127
I        7.85759229       9.72113596       7.53681215       0.00002169       0.00000945      -0.00000716
I        7.31477767       2.49901403       5.18358225      -0.00000365       0.00000814       0.00000459
I       15.22886899       0.89696590       5.17100190       0.00001185      -0.00001430       0.00000679
I       -0.05647348      11.32331979       7.54936065      -0.00000768       0.00000087       0.00000218
I        9.61156142       6.31810508       5.17725979       0.00000894       0.00000226      -0.00000156
I        5.56079874       5.90207843       7.54309446       0.00000367       0.00000763       0.00001965
I        1.65586009       3.99877732       5.19535632      -0.00001502      -0.00001539       0.00000836
I       13.51656186       8.22150030       7.52505704      -0.00001261      -0.00001062      -0.00000115
I        3.89482058       9.48663394       5.15904581      -0.00000324       0.00001039       0.00001020
I       11.27756293       2.73357380       7.56125417       0.00000631       0.00000972      -0.00000159
H        4.27234397       2.63104304       8.46862631      -0.00001053      -0.00000571       0.00001332
H       10.90005780       9.58912309       4.25172158      -0.00000289       0.00001404      -0.00001735
H        1.30948724       8.08257472       8.45451847       0.00000245      -0.00000043      -0.00000202
H       13.87070298       4.14593578       6.05295015      -0.00001003      -0.00000354      -0.00001211
H        4.28086373       2.62885955       6.68162781       0.00000482       0.00000245       0.00000252
H       12.08774172      10.59127359       5.14950244      -0.00001377      -0.00000061       0.00000145
H        2.52246574       7.10790534       7.56027587       0.00001021      -0.00001067      -0.00000033
H       12.64994108       5.11239057       5.16015626      -0.00002521       0.00000699       0.00000252
H        3.08465039       1.62889506       7.57085096       0.00000256       0.00001077       0.00001219
H       10.89154744       9.59128123       6.03871981      -0.00000568      -0.00001038       0.00001094
H        1.30173802       8.07441149       6.66749205       0.00000562      -0.00001646      -0.00001190
H       13.86291901       4.13770972       4.26592285      -0.00001755      -0.00000920      -0.00000480
H        4.91705447       0.26050896       6.75184618       0.00001273      -0.00000575      -0.00001957
H        9.12923639      11.02764025       5.13288413      -0.00001078      -0.00000371       0.00000690
H       -0.42402675       6.59668461       7.57608797      -0.00001177       0.00000562       0.00000435
H       15.59642525       5.62366054       5.14418318      -0.00000974      -0.00002095       0.00000010
H        4.90837818       0.26115049       8.40875872       0.00000144      -0.00000861       0.00000402
H       10.26400606      11.95902144       4.31164174       0.00000734       0.00000055      -0.00000896
H        0.73346467       5.69718880       8.40197412       0.00001624      -0.00000217      -0.00001464
H       14.44607174       6.52919861       5.97525353      -0.00000921       0.00000910      -0.00000165
H        6.04314898       1.19248600       7.58746358      -0.00000576      -0.00000309      -0.00001333
H       10.25529725      11.95961073       5.96855247       0.00001582       0.00000701      -0.00000578
H        0.72638248       5.69110428       6.74514198      -0.00000737       0.00001274      -0.00001267
H       14.43884628       6.52315173       4.31842012      -0.00000334       0.00001262      -0.00002705
C        4.10647560       2.02258264       7.57505728      -0.00000681       0.00000261      -0.00001745
C       11.06592122      10.19757325       5.14529846       0.00001037       0.00001375       0.00001157
C        1.49105109       7.47567275       7.56299096      -0.00000139       0.00000832       0.00001444
C       13.68136081       4.74463850       5.15743303       0.00002296      -0.00000268       0.00000524
Pb      37.42719837       2.71727563       5.08213736       0.00001624       0.00000700      -0.00000005
Pb      16.17451763       9.89793965       7.50277057      -0.00000718       0.00000902       0.00000358
Pb       6.58981604       7.86979699       5.16163975      -0.00000861      -0.00000356       0.00000128
Pb       8.58254959       4.35039638       7.55871406      -0.00000450      -0.00001075       0.00000524
N        5.05984125       0.88228258       7.58081864      -0.00001948      -0.00000045       0.00001694
N       10.11253852      11.33785964       5.13955919      -0.00000473       0.00000042      -0.00001078
N        0.56688615       6.31167151       7.57211867       0.00001626      -0.00000923       0.00001855
N       14.60550660       5.90865434       5.14824936       0.00001090      -0.00001175       0.00000959
I       16.90824108       4.33801949      12.28785342       0.00000965       0.00001245      -0.00000036
I       17.48950305       8.07754262       9.88131792       0.00000015      -0.00000868       0.00000084
I        7.86296595       9.72006701      12.29504533       0.00000933       0.00000732      -0.00002113
I        7.32010939       2.49797000       9.94185859       0.00001144       0.00000081       0.00000674
I       15.23423889       0.89587547       9.92924076       0.00000555       0.00001362       0.00000681
I       -0.05114527      11.32223255      12.30764746      -0.00000656      -0.00000914      -0.00000929
I        9.61690690       6.31701172       9.93552385       0.00000107       0.00001796      -0.00000403
I        5.56620283       5.90096445      12.30140751      -0.00001443       0.00001583      -0.00000453
I        1.66124785       3.99766458       9.95357912      -0.00000831      -0.00000057       0.00000682
I       13.52185203       8.22044482      12.28328813       0.00000296      -0.00001751      -0.00000877
I        3.90016060       9.48557090       9.91734163       0.00001665      -0.00000256       0.00000117
I       11.28296468       2.73246077      12.31961970      -0.00001107       0.00000910      -0.00000266
H        3.08995100       1.62770076      12.32916033       0.00001354       0.00000285       0.00001026
H       12.09308649      10.59017265       9.90784783      -0.00002366      -0.00000990      -0.00001361
H        1.31490396       8.08142126      13.21277474      -0.00001849       0.00001549       0.00003105
H       13.86836788       4.13658495       9.02406813      -0.00000680       0.00001893       0.00001037
H        4.27754391       2.62982206      13.22708780       0.00002397       0.00002280       0.00002018
H       10.89675064       9.59020444      10.79690952       0.00002259       0.00000951       0.00000246
H        2.52787880       7.10672207      12.31856400      -0.00002673      -0.00000711      -0.00000888
H       13.87562894       4.14485594      10.81109801       0.00001999      -0.00002722       0.00002438
H        4.28611154       2.62786113      11.44008847       0.00001302      -0.00001289      -0.00001040
H       10.90540439       9.58815254       9.00991335       0.00001454       0.00000734      -0.00000987
H        1.30719901       8.07325973      11.42574795       0.00000633      -0.00001893       0.00000952
H       12.65520203       5.11137723       9.91793077       0.00001938      -0.00000976       0.00001322
H        4.91379665       0.26003176      13.16699228      -0.00000441       0.00000062       0.00002981
H       10.26945314      11.95804876       9.06988124      -0.00001163       0.00000440       0.00001529
H        0.73883773       5.69603667      13.16020173       0.00001266       0.00002006       0.00000569
H       14.44441632       6.52200125       9.07668673      -0.00000148      -0.00000790       0.00001354
H        6.04848084       1.19150224      12.34572299       0.00000304      -0.00000574       0.00001365
H       10.26071246      11.95861916      10.72679930       0.00000456      -0.00002478      -0.00004181
H        0.73176823       5.68998129      11.50336786      -0.00000547       0.00000220      -0.00000829
H       15.60172617       5.62243270       9.90276611       0.00001653      -0.00000571      -0.00000349
H        4.92242667       0.25949695      11.51008266      -0.00000738       0.00001617      -0.00001465
H        9.13460889      11.02673368       9.89109483      -0.00001990      -0.00002267      -0.00000974
H       -0.41862893       6.59557369      12.33431839       0.00000183       0.00001171       0.00000463
H       14.45122728       6.52806312      10.73352160      -0.00000479       0.00002077       0.00000198
C        4.11174852       2.02146073      12.33343876      -0.00002822      -0.00000852      -0.00003100
C       11.07124048      10.19653931       9.90353899      -0.00001814      -0.00000372       0.00002380
C        1.49647208       7.47451542      12.32125223       0.00001752      -0.00001231      -0.00003074
C       13.68659736       4.74354983       9.91551112      -0.00001752       0.00002859      -0.00002016
Pb      37.43257774       2.71619077       9.84038041       0.00000775      -0.00000515       0.00000322
Pb      16.17985088       9.89686459      12.26103774      -0.00000587       0.00000501      -0.00000822
Pb       6.59514731       7.86869967       9.91992429       0.00000406       0.00000320      -0.00000703
Pb       8.58795180       4.34929780      12.31700387       0.00000962      -0.00001013       0.00000287
N        5.06519556       0.88122839      12.33908898       0.00000229      -0.00002308      -0.00002249
N       10.11793143      11.33688767       9.89779242       0.00001868      -0.00000696       0.00004635
N        0.57227761       6.31053686      12.33035404      -0.00000278       0.00000872       0.00001046
N       14.61082849       5.90750083       9.90656028      -0.00001208       0.00001193      -0.00002811
I       16.91364234       4.33696818      17.04614082      -0.00001339       0.00000139       0.00000088
I       17.49489472       8.07647914      14.63954656       0.00001048      -0.00001941      -0.00000127
I        7.86832523       9.71897448      17.05334852       0.00002168       0.00000944      -0.00000715
I        7.32551061       2.49685255      14.70011862      -0.00000365       0.00000813       0.00000459
I       15.23960193       0.89480442      14.68753827       0.00001183      -0.00001429       0.00000680
I       -0.04574054      11.32115831      17.06589702      -0.00000768       0.00000086       0.00000219
I        9.62229436       6.31594360      14.69379616       0.00000894       0.00000226      -0.00000155
I        5.57153168       5.89991695      17.05963083       0.00000366       0.00000763       0.00001965
I        1.66659303       3.99661584      14.71189269      -0.00001503      -0.00001540       0.00000837
I       13.52729480       8.21933882      17.04159341      -0.00001261      -0.00001063      -0.00000114
I        3.90555352       9.48447246      14.67558218      -0.00000325       0.00001038       0.00001021
I       11.28829587       2.73141232      17.07779054       0.00000630       0.00000972      -0.00000159
H        4.28307691       2.62888156      17.98516268      -0.00001053      -0.00000571       0.00001332
H       10.91079074       9.58696161      13.76825795      -0.00000289       0.00001404      -0.00001735
H        1.32022018       8.08041324      17.97105484       0.00000245      -0.00000043      -0.00000202
H       13.88143592       4.14377430      15.56948652      -0.00001003      -0.00000354      -0.00001211
H        4.29159667       2.62669807      16.19816418       0.00000482       0.00000245       0.00000252
H       12.09847466      10.58911211      14.66603881      -0.00001377      -0.00000061       0.00000145
H        2.53319868       7.10574386      17.07681224       0.00001021      -0.00001067      -0.00000033
H       12.66067402       5.11022909      14.67669263      -0.00002521       0.00000699       0.00000252
H        3.09538333       1.62673358      17.08738733       0.00000256       0.00001077       0.00001219
H       10.90228038       9.58911975      15.55525618      -0.00000568      -0.00001038       0.00001094
H        1.31247096       8.07225001      16.18402842       0.00000562      -0.00001646      -0.00001190
H       13.87365195       4.13554824      13.78245922      -0.00001755      -0.00000920      -0.00000480
H        4.92778741       0.25834748      16.26838255       0.00001273      -0.00000575      -0.00001957
H        9.13996933      11.02547877      14.64942050      -0.00001078      -0.00000371       0.00000690
H       -0.41329381       6.59452313      17.09262435      -0.00001177       0.00000562       0.00000431
H       15.60715819       5.62149906      14.66071955      -0.00000974      -0.00002095       0.00000010
H        4.91911112       0.25898901      17.92529509       0.00000145      -0.00000861       0.00000402
H       10.27473900      11.95685996      13.82817811       0.00000734       0.00000055      -0.00000897
H        0.74419761       5.69502732      17.91851049       0.00001626      -0.00000218      -0.00001464
H       14.45680468       6.52703713      15.49178990      -0.00000921       0.00000910      -0.00000165
H        6.05388192       1.19032452      17.10399995      -0.00000576      -0.00000309      -0.00001333
H       10.26603019      11.95744925      15.48508884       0.00001582       0.00000701      -0.00000578
H        0.73711542       5.68894280      16.26167835      -0.00000739       0.00001275      -0.00001268
H       14.44957922       6.52099025      13.83495649      -0.00000334       0.00001262      -0.00002704
C        4.11720854       2.02042116      17.09159365      -0.00000681       0.00000261      -0.00001745
C       11.07665416      10.19541177      14.66183483       0.00001037       0.00001375       0.00001157
C        1.50178403       7.47351127      17.07952733      -0.00000139       0.00000832       0.00001444
C       13.69209375       4.74247702      14.67396940       0.00002296      -0.00000268       0.00000524
Pb      37.43793131       2.71511415      14.59867374       0.00001625       0.00000698      -0.00000008
Pb      16.18525057       9.89577817      17.01930694      -0.00000718       0.00000901       0.00000359
Pb       6.60054898       7.86763551      14.67817612      -0.00000861      -0.00000356       0.00000128
Pb       8.59328253       4.34823490      17.07525043      -0.00000451      -0.00001076       0.00000525
N        5.07057419       0.88012110      17.09735501      -0.00001948      -0.00000044       0.00001694
N       10.12327146      11.33569816      14.65609556      -0.00000473       0.00000042      -0.00001077
N        0.57761909       6.30951003      17.08865504       0.00001626      -0.00000923       0.00001861
N       14.61623954       5.90649286      14.66478573       0.00001090      -0.00001175       0.00000959
I       16.76442125      15.28490487       2.72373622       0.00000965       0.00001246      -0.00000037
I       17.34568322      19.02442800       0.31720072       0.00000015      -0.00000868       0.00000083
I        7.71914612      20.66695239       2.73092813       0.00000933       0.00000732      -0.00002113
I        7.17628956      13.44485538       0.37774139       0.00001144       0.00000081       0.00000674
I       15.09041906      11.84276085       0.36512356       0.00000555       0.00001364       0.00000681
I        0.07120868       0.37967013       2.83869192      -0.00000655      -0.00000915      -0.00000931
I        9.47308707      17.26389710       0.37140665       0.00000108       0.00001796      -0.00000403
I        5.42238300      16.84784983       2.73729031      -0.00001443       0.00001583      -0.00000453
I        1.51742802      14.94454996       0.38946192      -0.00000830      -0.00000056       0.00000682
I       13.37803220      19.16733020       2.71917093       0.00000296      -0.00001751      -0.00000877
I        3.75634077      20.43245628       0.35322443       0.00001666      -0.00000255       0.00000116
I       11.13914485      13.67934615       2.75550250      -0.00001106       0.00000912      -0.00000266
H        2.94613117      12.57458614       2.76504313       0.00001354       0.00000285       0.00001026
H       11.94926666      21.53705803       0.34373063      -0.00002367      -0.00000989      -0.00001361
H        1.17108413      19.02830664       3.64865754      -0.00001849       0.00001549       0.00003105
H       13.72454805      15.08347033      -0.54004907      -0.00000678       0.00001886       0.00001028
H        4.13372408      13.57670744       3.66297060       0.00002397       0.00002280       0.00002018
H       10.75293081      20.53708982       1.23279232       0.00002258       0.00000952       0.00000246
H        2.38405897      18.05360745       2.75444680      -0.00002673      -0.00000710      -0.00000888
H       13.73180911      15.09174132       1.24698081       0.00001999      -0.00002722       0.00002437
H        4.14229171      13.57474651       1.87597127       0.00001302      -0.00001289      -0.00001040
H       10.76158456      20.53503792      -0.55420385       0.00001451       0.00000730      -0.00000995
H        1.16337918      19.02014511       1.86163075       0.00000633      -0.00001893       0.00000951
H       12.51138220      16.05826261       0.35381357       0.00001938      -0.00000976       0.00001322
H        4.76997682      11.20691714       3.60287508      -0.00000441       0.00000062       0.00002981
H       10.12563330      22.90493414      -0.49423596      -0.00001160       0.00000450       0.00001518
H        0.59501790      16.64292205       3.59608453       0.00001261       0.00002008       0.00000569
H       14.30059649      17.46888663      -0.48743047      -0.00000147      -0.00000794       0.00001355
H        5.90466101      12.13838762       2.78160579       0.00000304      -0.00000574       0.00001365
H       10.11689263      22.90550455       1.16268210       0.00000457      -0.00002479      -0.00004181
H        0.58794840      16.63686667       1.93925066      -0.00000546       0.00000220      -0.00000828
H       15.45790634      16.56931808       0.33864891       0.00001653      -0.00000570      -0.00000350
H        4.77860684      11.20638233       1.94596546      -0.00000738       0.00001617      -0.00001465
H        8.99078906      21.97361906       0.32697763      -0.00001998      -0.00002266      -0.00000973
H       -0.56244876      17.54245908       2.77020118       0.00000192       0.00001163       0.00000467
H       14.30740745      17.47494850       1.16940440      -0.00000479       0.00002076       0.00000199
C        3.96792869      12.96834611       2.76932156      -0.00002822      -0.00000852      -0.00003100
C       10.92742065      21.14342469       0.33942179      -0.00001822      -0.00000350       0.00002389
C        1.35265225      18.42140080       2.75713503       0.00001755      -0.00001232      -0.00003074
C       13.54277753      15.69043521       0.35139392      -0.00001754       0.00002866      -0.00002008
Pb      37.28875791      13.66307616       0.27626320       0.00000775      -0.00000517       0.00000323
Pb      16.03603105      20.84374997       2.69692054      -0.00000587       0.00000503      -0.00000822
Pb       6.45132748      18.81558505       0.35580709       0.00000405       0.00000321      -0.00000702
Pb       8.44413197      15.29618318       2.75288667       0.00000961      -0.00001013       0.00000287
N        4.92137573      11.82811377       2.77497178       0.00000230      -0.00002306      -0.00002250
N        9.97411160      22.28377306       0.33367522       0.00001887      -0.00000724       0.00004643
N        0.42845778      17.25742224       2.76623684      -0.00000287       0.00000880       0.00001041
N       14.46700866      16.85438621       0.34244308      -0.00001210       0.00001197      -0.00002812
I       16.76982251      15.28385356       7.48202362      -0.00001340       0.00000141       0.00000088
I       17.35107489      19.02336452       5.07542936       0.00001047      -0.00001941      -0.00000128
I        7.72450540      20.66585986       7.48923132       0.00002168       0.00000944      -0.00000715
I        7.18169078      13.44373793       5.13600142      -0.00000365       0.00000814       0.00000459
I       15.09578210      11.84168980       5.12342107       0.00001183      -0.00001428       0.00000679
I        0.07661341       0.37859589       7.59694148      -0.00000767       0.00000085       0.00000217
I        9.47847453      17.26282898       5.12967896       0.00000894       0.00000226      -0.00000155
I        5.42771185      16.84680233       7.49551363       0.00000367       0.00000763       0.00001965
I        1.52277320      14.94350122       5.14777549      -0.00001502      -0.00001539       0.00000837
I       13.38347497      19.16622420       7.47747621      -0.00001261      -0.00001063      -0.00000115
I        3.76173369      20.43135784       5.11146498      -0.00000324       0.00001039       0.00001020
I       11.14447604      13.67829770       7.51367334       0.00000632       0.00000973      -0.00000159
H        4.13925708      13.57576694       8.42104548      -0.00001053      -0.00000571       0.00001332
H       10.76697091      20.53384699       4.20414075      -0.00000291       0.00001406      -0.00001736
H        1.17640035      19.02729862       8.40693764       0.00000245      -0.00000043      -0.00000202
H       13.73761609      15.09065968       6.00536932      -0.00001003      -0.00000354      -0.00001211
H        4.14777684      13.57358345       6.63404698       0.00000482       0.00000245       0.00000252
H       11.95465483      21.53599749       5.10192161      -0.00001378      -0.00000061       0.00000145
H        2.38937885      18.05262924       7.51269504       0.00001022      -0.00001066      -0.00000033
H       12.51685419      16.05711447       5.11257543      -0.00002521       0.00000699       0.00000252
H        2.95156350      12.57361896       7.52327013       0.00000256       0.00001077       0.00001219
H       10.75846055      20.53600513       5.99113898      -0.00000569      -0.00001036       0.00001094
H        1.16865113      19.01913539       6.61991122       0.00000562      -0.00001646      -0.00001190
H       13.72983212      15.08243362       4.21834202      -0.00001755      -0.00000920      -0.00000480
H        4.78396758      11.20523286       6.70426535       0.00001273      -0.00000575      -0.00001957
H        8.99614950      21.97236415       5.08530330      -0.00001085      -0.00000369       0.00000690
H       -0.55711364      17.54140852       7.52850714      -0.00001168       0.00000554       0.00000436
H       15.46333836      16.56838444       5.09660235      -0.00000974      -0.00002095       0.00000010
H        4.77529129      11.20587439       8.36117789       0.00000144      -0.00000861       0.00000403
H       10.13091917      22.90374535       4.26406091       0.00000734       0.00000054      -0.00000896
H        0.60037778      16.64191270       8.35439329       0.00001622      -0.00000216      -0.00001464
H       14.31298485      17.47392251       5.92767270      -0.00000921       0.00000910      -0.00000164
H        5.91006209      12.13720990       7.53988275      -0.00000576      -0.00000309      -0.00001333
H       10.12221036      22.90433464       5.92097164       0.00001582       0.00000699      -0.00000578
H        0.59329559      16.63582818       6.69756115      -0.00000739       0.00001275      -0.00001268
H       14.30575939      17.46787563       4.27083929      -0.00000334       0.00001262      -0.00002704
C        3.97338871      12.96730654       7.52747645      -0.00000681       0.00000261      -0.00001745
C       10.93283433      21.14229715       5.09771763       0.00001028       0.00001393       0.00001159
C        1.35796420      18.42039665       7.51541013      -0.00000136       0.00000831       0.00001444
C       13.54827392      15.68936240       5.10985220       0.00002296      -0.00000268       0.00000524