40
Lattice="15.749025737707386 0.02906501089672608 0.137004725982783 -0.2514101291001344 14.729463794339852 0.9090571618370499 -0.022181672429072565 -0.5282059604733166 8.489005955604574" Properties=species:S:1:pos:R:3:forces:R:3 energy=-123.25458807179632 stress="0.0015928394287574366 -0.00040286933008084794 7.921689929824831e-06 -0.00040286933008084794 0.0037763929342251134 9.06114340807025e-05 7.921689929824831e-06 9.06114340807025e-05 0.002113094287516091" free_energy=-123.25458807179632 pbc="T T T"
Cs       3.62458431       1.40865690       5.59957732      -0.00000597       0.00000205      -0.00000844
Cs       7.61557693       3.62172796       9.99644578      -0.00001984       0.00000789       0.00000242
Cs       3.62740488       8.97381327       1.81124296      -0.00004207       0.00000425       0.00000920
Cs       7.38350930      11.31392803       6.20472424      -0.00002046      -0.00000106      -0.00001528
Cs      11.49899141       1.42301872       5.66805242      -0.00000267       0.00002299      -0.00001185
Cs      15.48993143       3.63618129      10.06484358       0.00001984      -0.00000662       0.00001158
Cs      11.50184700       8.98840629       1.87975167       0.00000371       0.00001621      -0.00000168
Cs      15.25795507      11.32858865       6.27325150       0.00000577      -0.00001729      -0.00001451
Pb       4.80185338      13.42190710      10.57562564      -0.00002127      -0.00000489       0.00001394
Pb       8.74326016      13.42738100      10.62420618      -0.00000913      -0.00001591       0.00001700
Pb       6.18671357       6.33781075       5.92943646      -0.00006012       0.00003402       0.00000375
Pb       2.24530024       6.33230516       5.88075729       0.00000262       0.00000498      -0.00001069
Pb      12.67636789      13.43638533      10.64407152       0.00005373      -0.00002166      -0.00000553
Pb      16.61777535      13.44195008      10.69274537      -0.00000086      -0.00002728       0.00000732
Pb      14.06122136       6.35236482       5.99785109       0.00003624      -0.00001276      -0.00000742
Pb      10.11981560       6.34683232       5.94923053       0.00000907       0.00000677       0.00001020
I        6.95162822       0.20473867       3.57995621      -0.00001237       0.00000438       0.00000792
I        4.31063910       5.35355365       3.52707634      -0.00000615      -0.00001013       0.00000589
I        6.98597588       0.33249573       7.70159363       0.00002344      -0.00002452      -0.00003529
I        4.25398368       4.69791375       7.89453109      -0.00002080       0.00001547      -0.00001586
I        8.23934110       3.79247883       5.53108868       0.00000053      -0.00001472      -0.00002829
I        3.00060202       1.23775691      10.06499611       0.00002604       0.00000948       0.00000745
I        8.19708019       7.28516327       8.33440056       0.00000930       0.00000036      -0.00000751
I        2.79153239      12.47472203       8.17055931       0.00002329      -0.00001530      -0.00000300
I        8.20997393       8.00165080       3.97162976       0.00004255       0.00000515      -0.00000012
I        2.80070249      12.28615155       4.04426715       0.00001411       0.00000255      -0.00000466
I        6.71654023      10.87965376      10.20987852       0.00001028      -0.00000123       0.00001362
I        4.27198315       8.88008399       6.29499933       0.00002190      -0.00003001       0.00000391
I       14.82602414       0.21939418       3.64838316      -0.00000196      -0.00000537      -0.00001227
I       12.18508862       5.36815592       3.59547738      -0.00001427      -0.00001416       0.00000031
I       14.86050613       0.34686485       7.76994435      -0.00001209       0.00000920       0.00000897
I       12.12851954       4.71238911       7.96289848      -0.00005008      -0.00001459       0.00000953
I       16.11386087       3.80702368       5.59951565      -0.00000407       0.00001131      -0.00001026
I       10.87514828       1.25224639      10.13339276       0.00001230       0.00003264       0.00001813
I       16.07152324       7.29966063       8.40287691       0.00000696      -0.00000139       0.00001890
I       10.66603991      12.48907339       8.23904674      -0.00000470       0.00002012       0.00000959
I       16.08456515       8.01623318       4.04014314       0.00001715      -0.00000656       0.00001840
I       10.67523655      12.30068431       4.11276008      -0.00000871       0.00000271       0.00001435
I       14.59111784      10.89415286      10.27848106      -0.00002726       0.00000821      -0.00000184
I       12.14649630       8.89459263       6.36352061       0.00000599       0.00002473      -0.00001790
