96
Lattice="18.541732631360098 -0.025683087159317584 0.005372122631698881 0.015259315433656653 11.019850145128899 -0.03107411086681059 -0.0027106804851758704 0.026874332696118268 9.523272943538643" Properties=species:S:1:pos:R:3:forces:R:3 energy=-419.4427329244146 stress="-6.35969740942693e-08 1.5939144804316928e-08 1.0570735144426796e-08 1.5939144804316928e-08 9.75191534455657e-08 1.1930293890279762e-08 1.0570735144426796e-08 1.1930293890279762e-08 2.544382315429164e-08" free_energy=-419.4427329244146 pbc="T T T"
I       17.88015531       3.31150403       2.82640033      -0.00001458       0.00000817       0.00000572
I       18.50304620       7.12345127       0.43502303      -0.00000220      -0.00001064      -0.00000051
I        9.23380145       8.83340032       2.80836506      -0.00000357      -0.00000348      -0.00000054
I        8.60761255       1.62718714       0.44770005       0.00000506      -0.00000783      -0.00000457
I       16.16979848      -0.10534590       0.45475704       0.00000411       0.00000084      -0.00000617
I        1.67162141      10.56597742       2.80131581      -0.00000675      -0.00000721       0.00000669
I       10.93603242       5.41179269       0.43769539      -0.00001498       0.00001372      -0.00000134
I        6.90532079       5.04878360       2.81840853       0.00000914      -0.00000653      -0.00000197
I        3.24989872       3.21437498       0.44166183       0.00001525      -0.00001375       0.00000340
I       14.59153497       7.24625634       2.81441722      -0.00001619       0.00000992      -0.00000225
I        5.32330572       8.72131849       0.42672618       0.00000977      -0.00000678       0.00000213
I       12.51801599       1.73919526       2.82931491       0.00000512       0.00000113       0.00002595
H        4.47136477       0.82984815       2.82961728      -0.00001367       0.00001608      -0.00000707
H       12.13883670       8.68182044       1.32263442      -0.00000699       0.00000607      -0.00000478
H        4.09388419       6.34047799       2.81425276       0.00001606      -0.00003200      -0.00000544
H       14.97610483       3.16294624      -0.44862509       0.00000599      -0.00001349      -0.00000386
H        5.70217319       1.78390523       3.72082888      -0.00000195       0.00000071       0.00000916
H       12.13937168       8.67679644      -0.46503314       0.00000392      -0.00000580       0.00001477
H        2.86587503       7.29275109       1.91729863      -0.00001363      -0.00000288      -0.00001842
H       14.97555517       3.16802954       1.33904185       0.00001219      -0.00000751      -0.00000075
H        5.70247710       1.77858129       1.93316129       0.00000142      -0.00000399       0.00004458
H       13.37005070       9.63072350       0.42649453      -0.00001203      -0.00001427       0.00000103
H        2.86513862       7.29765372       3.70496476       0.00000597       0.00000825      -0.00001884
H       13.74752496       4.12030587       0.44211516       0.00000744       0.00000249       0.00000557
H        6.24151023      -0.61304004       2.00567549       0.00000356       0.00000541      -0.00000164
H       10.43468739      10.18610373       0.42404154      -0.00000206       0.00001352      -0.00000106
H        1.15703128       5.79300980       2.81455692       0.00000261      -0.00000943       0.00000425
H       16.68441678       4.66755823       0.44143620      -0.00000239       0.00001660      -0.00000436
H        6.24116866      -0.60817644       3.66267075       0.00000716       0.00001995      -0.00000212
H       11.60030310      11.06882411      -0.40658375      -0.00000582       0.00000175       0.00001223
H        2.31966104       4.90710043       3.64597448       0.00000571       0.00000810       0.00000808
H       15.52127538       5.55817151       1.26708875      -0.00001167      -0.00001182       0.00000556
H        7.40671732       0.27441761       2.83180309      -0.00000548      -0.00001979       0.00001276
H       11.59979266      11.07348073       1.25041320       0.00000566      -0.00000286      -0.00001657
H        2.32032456       4.90253640       1.98898040      -0.00000514      -0.00000727      -0.00001553
H       15.52174567       5.55348675      -0.38990578      -0.00000102      -0.00000882      -0.00001841
C        5.50780506       1.18227044       2.82874658      -0.00000902       0.00002504       0.00000596
C       12.33361507       9.27828479       0.42717548      -0.00000556       0.00002045      -0.00000929
C        3.05840268       6.69570354       2.81285494      -0.00000498       0.00001642       0.00001884
C       14.78298060       3.76500039       0.44344412      -0.00003688       0.00001128      -0.00000339
Pb       0.62277472       1.50239097       0.44574592      -0.00001024      -0.00000187       0.00000367
Pb      17.21864666       8.95823280       2.81032200       0.00000662      -0.00001705      -0.00001627
Pb       7.94573003       7.00214480       0.43234527      -0.00000186       0.00000710       0.00001102
Pb       9.89563472       3.45841399       2.82375747      -0.00000213      -0.00000268      -0.00001597
N        6.41200925       0.00436952       2.83240631       0.00002569      -0.00002063      -0.00002777
N       11.42938979      10.45617239       0.42359032       0.00001710      -0.00000577      -0.00000302
N        2.15100154       5.52025988       2.81571563      -0.00000101       0.00001276       0.00001319
N       15.69046602       4.94037847       0.44037870      -0.00000245       0.00000115       0.00001414
I       17.87874286       3.32490456       7.58803837       0.00001431       0.00001817       0.00000358
I       18.50161160       7.13686026       5.19667548       0.00000075      -0.00000626       0.00000675
I        9.23244792       8.84683427       7.57003249      -0.00001256      -0.00000390      -0.00000399
I        8.60620188       1.64060905       5.20934919       0.00000821       0.00000237      -0.00001815
I       16.16840739      -0.09193620       5.21638189       0.00000415       0.00000888      -0.00000892
I        1.67026000      10.57940966       7.56294529      -0.00001088      -0.00000034       0.00000466
I       10.93467568       5.42526107       5.19931689      -0.00000725      -0.00000835       0.00000557
I        6.90398392       5.06222189       7.58001861      -0.00000187      -0.00000628      -0.00000171
I        3.24855269       3.22770404       5.20328048       0.00001653      -0.00000222      -0.00000224
I       14.59013190       7.25971357       7.57604101       0.00000825       0.00000148       0.00001103
I        5.32200543       8.73486948       5.18838673       0.00000129      -0.00000163      -0.00000324
I       12.51669698       1.75267565       7.59097932       0.00000769      -0.00000752      -0.00000115
H        5.70081444       1.79724137       8.48284132      -0.00001332      -0.00000183      -0.00000902
H       12.13744451       8.69522940       6.08425391       0.00000765       0.00002220      -0.00000501
H        2.86383802       7.31118095       8.46620861       0.00000659       0.00000183       0.00001210
H       14.97401472       3.18134905       6.10045697       0.00001464       0.00001768       0.00000739
H        5.70123347       1.79223018       6.69517451      -0.00000464      -0.00000342       0.00001085
H       12.13783967       8.69020858       4.29658845       0.00001305      -0.00000720       0.00000376
H        4.09252461       6.35386006       7.57557087      -0.00001791      -0.00001014      -0.00000949
H       13.74612341       4.13372304       5.20344617       0.00000410      -0.00001643       0.00000370
H        4.47002855       0.84338222       7.59138255      -0.00000928       0.00000305       0.00000297
H       13.36864684       9.64406112       5.18802166       0.00002248      -0.00000723       0.00000136
H        2.86446207       7.30600520       6.67854526       0.00000655      -0.00000006      -0.00000607
H       14.97482035       3.17643167       4.31279002       0.00000772      -0.00000481       0.00000927
H        6.24018060      -0.59944623       6.76732940      -0.00001493      -0.00000218       0.00000005
H       10.43331662      10.19961942       5.18584418       0.00000049       0.00001316      -0.00001555
H        1.15566816       5.80640924       7.57613792       0.00000076      -0.00000512      -0.00000080
H       15.51973693       5.57153600       6.02876093       0.00000221      -0.00000920      -0.00001761
H        6.23975058      -0.59482462       8.42432528      -0.00001159      -0.00000298       0.00000591
H       11.59889384      11.08224724       4.35506075      -0.00000942       0.00001034      -0.00000619
H        2.31834861       4.92060488       8.40759858      -0.00000339      -0.00000009      -0.00000375
H       15.52050225       5.56692240       4.37176481      -0.00002139       0.00000849      -0.00000756
H        7.40536509       0.28785594       7.59365921       0.00000665       0.00000342      -0.00000073
H       11.59856302      11.08694588       6.01205630      -0.00000893       0.00000023       0.00000941
H        2.31890708       4.91582206       6.75060218      -0.00000552       0.00001297       0.00000282
H       16.68301859       4.68095329       5.20328525      -0.00001205       0.00000223      -0.00000556
C        5.50648089       1.19576909       7.59064151       0.00001744      -0.00001225      -0.00002724
C       12.33219140       9.29168460       5.18878165      -0.00001415      -0.00001367      -0.00000823
C        3.05704423       6.70909257       7.57418008       0.00001224       0.00001004       0.00001966
C       14.78157486       3.77840590       5.20488728      -0.00001419       0.00000501       0.00000737
Pb       0.62138596       1.51580786       5.20736967       0.00000770      -0.00001143       0.00000912
Pb      17.21728246       8.97166656       7.57196533       0.00000324      -0.00000528      -0.00000266
Pb       7.94437462       7.01562389       5.19397046       0.00000189       0.00000607       0.00000701
Pb       9.89428404       3.47186274       7.58535787       0.00001643      -0.00000164       0.00000577
N        6.41064900       0.01783781       7.59415728       0.00001039       0.00000811       0.00000232
N       11.42803617      10.46962531       5.18526661       0.00000321       0.00000811       0.00000705
N        2.14963704       5.53365433       7.57726878      -0.00001180       0.00000765      -0.00000356
N       15.68906904       4.95377780       5.20205167       0.00001716      -0.00000276      -0.00000787
