768
Lattice="38.16606883306081 0.7708101007676014 0.3666927628512125 -0.3296249581406084 22.360322942442707 0.08526197331993467 -0.1800967783537251 -0.06462717078727989 19.468533293292147" Properties=species:S:1:pos:R:3:forces:R:3:momenta:R:3 pbc="T T T"
I       16.54765925       7.12447401       4.11709940      -0.04820438      -0.07594994       0.07857047      -0.00828995      -0.90548087       0.29033048
I       17.31150973      10.90782893       1.96227726      -0.09963923       0.10493147      -0.00358182       0.89472384      -0.23318804      -3.81481270
I        7.70627220      12.47112567       3.90820773      -0.10556468      -0.04710108       0.37599699       2.31941653      -0.91716286      -0.09286246
I        7.03812748       5.14563217       1.61909777       0.11792108       0.07232383      -0.20688876       1.25453123      -0.50522447      -0.29251601
I       15.05930181       3.52810791       1.77606496      -0.18222317      -0.06342074       0.15836112      -0.14754170       0.15093980       0.20594945
I       37.91684663      14.99665900       4.54846535      -0.02601203      -0.05516506       0.02658807       2.66937849       1.03899226       2.39313900
I        9.27609804       9.01658103       1.64986227       0.04664548      -0.13638243      -0.10935484      -0.90772887       0.13717316      -0.58244907
I        5.22041853       8.67342377       3.78746920       0.17032633      -0.16875943       0.42858199       0.60492142       0.94956955       1.16777902
I        1.37173425       6.33043692       1.62913691       0.30986011       0.34880882      -0.00923849       2.20323540       2.24288983      -1.15361583
I       13.37185951      11.17200481       4.20514345      -0.08409639      -0.09708002      -0.12423713       0.36595306       0.14220154       0.51914324
I        3.71882081      12.29527272       1.64549358      -0.49029026      -0.00857667      -0.00332470      -0.22256529      -0.41303379       1.87771842
I       11.14772061       5.49356257       3.84796306      -0.03204236      -0.07756217       0.13515703      -2.17806572       0.91709244      -0.23505435
H        4.38149635       5.35659457       3.12897061      -0.25481390      -0.07298446       0.27395264      -0.18502513      -0.13295156      -0.19072086
H       10.66084863      12.39815344       2.39448764      -0.36468031      -0.38585519       0.06619703       0.05346047      -0.11848410       0.05713866
H        2.18091701       9.75010730       4.05163090      -1.78529736       0.32144756      -0.23128030      -0.11267940      -0.26123898       0.04701756
H       14.08415303       7.12758783       2.64461551      -0.07524267      -0.23646214      -0.61457978       0.05420118      -0.01399655       0.15640764
H        2.85892339       4.18853366       3.43995736      -0.15710283      -0.15444797      -0.23705567       0.11111054       0.02432585      -0.03173205
H       10.65032176      12.46314446       0.55361056      -0.31701557       0.36926648       0.63339747      -0.17615814       0.06499455       0.02840456
H        0.85663251      10.59106233       3.11540059       0.14087895       0.72689381      -0.16921150      -0.18308124       0.07336294       0.06145038
H       12.31194648       8.03664831       2.57905031       0.57212126       0.58515552      -0.56204065       0.12925005       0.16922815      -0.05801100
H        3.65432409       5.03515679       4.91442752       0.33569172       0.30671006       0.31642701      -0.16361418       0.06067758      -0.05491443
H       11.86073766      13.34963715       1.54189953      -0.88332917       0.00942125      -0.10788909      -0.08457299       0.00571540       0.21518456
H        0.91425361      10.62257163       4.93170933      -0.65118738      -0.09153503       0.00193293      -0.23715376      -0.02659664      -0.08451662
H       13.09515405       7.25060715       0.84063005       0.10334012      -0.66233182      -0.81870857       0.09547056       0.13672895      -0.00942571
H        4.45081725       2.81133600       4.73235088       0.51663151       0.09831166      -0.17182433      -0.00287464       0.07621216      -0.06389534
H        9.94183380      14.91353366       0.78259093       0.02315589      -1.00399780       1.32734302      -0.09105989       0.01576347       0.26077349
H        0.45240099       8.21741489       4.70564430      -0.21359162      -0.63034179       0.23332523       0.13162048       0.01879927       0.01186120
H       14.50817104       9.54619007       2.34347459      -0.67769818       0.79257266       1.45949124      -0.00217692       0.01798742       0.02386712
H        5.85269809       3.79895921       4.23141359      -0.94320175      -0.29163751       0.18219677      -0.06735447       0.11219161      -0.16354693
H       10.00642527      14.78026771       2.49897830       0.33200298      -0.21648031      -0.34779684       0.10094232      -0.03628672       0.15799341
H        0.62181946       8.28795614       3.02015451      -0.35424312      -0.12396608       0.55595019      -0.06055654       0.01182013      -0.08562065
H       14.12242117       9.44208019       0.70265898       0.05941590      -0.44911334       0.70431019      -0.00754734       0.15244920       0.18545627
H        4.91612120       2.87927100       3.10173059      -0.13235001       0.00896509      -0.36439330      -0.02264691       0.15545898      -0.10188962
H        8.87741919      13.86895957       1.66558845       0.73901915       0.27317798      -0.06917885       0.11993921       0.04923968       0.13791459
H       37.38606081       9.70019149       4.14211454       0.25245529       0.13190128       0.00302489       0.09062697       0.12154657      -0.01411871
H       15.35171449       8.47984361       1.38045047       0.06610530      -0.12086721      -0.20505020       0.00201548      -0.08578000      -0.01889631
C        3.86807806       4.59203769       3.84796920       0.19727300       0.12927750      -0.66505545      -0.30344673       0.28545858      -0.33284209
C       10.78595424      13.01923733       1.51172067       1.62188017       0.55778381      -0.38881905       1.12018185      -0.22687759       0.51427206
C        1.06223663      10.03971904       4.01979444       2.30316978      -0.35804999      -0.20565921       0.23152032      -0.18139298       0.17681395
C       13.39116494       7.76539578       1.87024601      -0.48956588      -0.50269000       2.36619900       0.59546477       0.24986070       0.15733040
Pb      36.92350710       5.59717935       1.96377470      -0.01897393      -0.13240279       0.02997685      -0.39221965       0.41566138      -1.51406555
Pb      16.03364237      12.75808640       4.35900418      -0.15322288       0.19962355       0.20814015      -0.34413496       1.10846802      -1.73140015
Pb       6.16637883      10.58797754       1.52954464       0.40669265       0.00810229       0.03197730       1.02585297      -1.34690631       1.06892886
Pb       8.38420674       6.94919221       3.88043631      -0.34077461       0.05746396      -0.05226042       1.40850329      -2.05873174       0.19270432
N        4.84927092       3.47490040       3.97331629       0.50376027      -0.04715084       0.80362890      -0.66853202       0.37752656       0.14942510
N        9.88070503      14.20423718       1.62516656      -1.13564028       0.34352794      -1.17573411       0.16755871      -0.23652603       0.46066757
N        0.25425152       8.80855348       3.88545301       0.44070489       0.14810217      -0.14902040       0.33574551      -0.01557476      -0.68369409
N       14.37937592       8.85613905       1.57353117       0.30445621       0.64521043      -2.20165169       0.43420804      -0.12632732      -0.05129184
I       16.42501311       6.97228486       9.21903807      -0.02510144       0.10472892      -0.11570329       1.02612542      -0.22060333       0.01321934
I       17.14833984      11.05256373       6.78343955       0.09528882      -0.19226572      -0.12406355       0.67835394       2.79852211       0.96610196
I        7.30155202      12.41466248       8.99722501       0.17950223       0.13020224      -0.36746032       2.00852858      -0.31845020      -0.45735345
I        6.98098758       5.13990384       6.47493690       0.00371407       0.03602435      -0.04713743      -0.43767809      -0.39327827      -0.47186538
I       14.89858921       3.53535199       6.91485709       0.20995884      -0.16537978      -0.25511556       1.98565008      -0.65420771       0.08879520
I       -0.11052986      14.21574210       8.84232643      -0.21381361       0.01147311       0.07873121      -1.94367101       1.24332738       0.92931430
I        9.17336857       8.90960651       6.39102798       0.17382149       0.11622000       0.08881966       0.23010555      -0.06030067       0.87523064
I        5.18040064       8.71034687       8.95188329       0.07407200      -0.11006814      -0.36363716      -2.06439637       0.23633134       0.77153423
I        1.32171811       6.61148329       6.28127671       0.09076452      -0.04389978       0.18328060      -1.05121609       0.03734911       0.44501066
I       13.42753700      11.17255762       8.86213883      -0.15305630      -0.06693913       0.12484238       0.22717838      -0.78519977       0.41770115
I        3.56686035      12.24193196       6.34418998       0.05412692      -0.01808285       0.03919975      -1.71035588       1.72535379      -1.40477565
I       10.85376440       5.42901360       8.92736427       0.20623682      -0.02227838       0.04585432      -1.35300985      -0.03344381       0.13219169
H        2.61363121       4.02742165       8.75951054      -0.32316782      -0.05927178      -0.08497805       0.13302246       0.04997539       0.09458051
H       10.07334201      12.87353465       8.12941643      -0.20063132      -0.14975830      -0.57125408       0.08618508       0.00299725      -0.06793825
H        0.65624086      10.37049898       7.78280368       0.03157233      -0.19450045       0.78120553       0.05848398      -0.01529438       0.02169189
H       13.60578179       6.94116374       5.72081622       0.00361266      -0.27388604      -0.31466628      -0.10388912       0.01440981       0.12059709
H        3.57870018       4.88832973      10.03485850       0.21673894       0.07082293      -0.05714713       0.06995639      -0.03393527      -0.08392811
H       10.65498381      12.28901652       6.29099449      -0.40639163      -0.21600352       0.00639256       0.29588886       0.00830708       0.04311106
H        0.77249463      10.62431096       9.61822582      -0.07314659      -0.20059113      -0.20471998      -0.04468554       0.00958163      -0.06075380
H       13.70129804       6.88908734       7.52239310      -0.08572846       0.70859799      -0.86317333      -0.15773880      -0.00941500      -0.07324137
H        3.88429142       5.27299420       8.22773458      -0.07992311      -0.20613522       0.38715163       0.06548901       0.05625574       0.00213666
H       11.70446712      13.26509376       7.28977217      -0.38245987       0.51915164       0.01946362       0.02874724      -0.10542195       0.02668815
H        2.02149609       9.70453031       8.71786310       0.70316724      -0.14801291       0.17202540      -0.12575394       0.11285578      -0.37695492
H       12.42652887       7.87588897       6.68795021      -0.33144314      -0.10402539      -0.02123788       0.08005884      -0.01163400       0.19337303
H        5.59000608       3.68178234       8.81264547      -0.53339776      -0.08138533       0.49056491      -0.09658023      -0.03099230       0.01154489
H        9.70180591      15.12777932       7.28968606      -0.15008097      -0.38498046      -0.55782405       0.12461184      -0.04846386      -0.08967316
H        0.61626788       8.09161452       9.76507060      -0.26960570      -0.38557040       0.44709777      -0.11651404      -0.14200862      -0.11762487
H       14.16513249       9.36584379       7.37856736       0.19129192      -0.20692627      -0.34511947       0.06554748      -0.23977507       0.05974082
H        4.49034993       2.74156651       7.98100558      -0.13566682       1.06540243       1.06492482       0.03026283      -0.14884776       0.01360707
H        8.79858230      14.27087459       5.95959012       0.89776730       0.23160170       0.14317477      -0.02487043      -0.13496136      -0.10631907
H        0.37647758       8.00696181       8.11448854      -0.04136476       0.11569173      -0.04729540       0.33284571      -0.09160958      -0.11838846
H       13.97542661       9.28485407       5.70936517       0.39126095       0.28750044       0.00464586      -0.03656514       0.19583632      -0.14444539
H        4.45114881       2.65146469       9.64063223       0.32280143       0.19118740       0.18230163      -0.11122615      -0.05903722      -0.04153241
H       10.49229035      14.90014027       5.59922971      -0.26988712      -0.31247238       0.58009493       0.21607809      -0.11422761       0.04837617
H       37.39685308       9.56702223       9.43647194      -0.90033309      -0.11353694       0.04492650      -0.01678464       0.07019162      -0.07303105
H       15.31821334       8.52985211       6.44586448       0.07300006       0.02152690      -0.07984261       0.06937579       0.00600048      -0.06566742
C        3.61073375       4.46335906       8.97848186       0.02919906       0.44998185      -0.42622045       0.36292194       0.26033052       0.10111501
C       10.58513356      13.13800810       7.06940995       1.09517286      -0.76658367       0.59328442      -0.08284252      -0.29682828      -0.18452157
C        0.96470866       9.92323380       8.78207742      -0.10295765       0.77285877      -1.03728109      -0.30059366       0.06376554       0.06617827
C       13.45692493       7.52529403       6.62241960       0.05946223      -0.76534110       1.16420066       0.20314901       0.49705230       0.65762775
Pb      36.85606840       5.68547413       6.83687292      -0.02625797      -0.10896367      -0.04277813      -0.35703928      -0.73626495       1.51508053
Pb      16.04213050      12.85822005       9.32932624       0.02251711       0.03346020      -0.33934016       1.80800860       1.18557969       0.50889743
Pb       6.30222241      10.62189382       6.33066913      -0.14800733       0.05936908       0.04241922       0.35244853      -0.63104971       0.55955846
Pb       8.27789433       7.01209492       8.79064511      -0.42810369       0.10087549       0.29577152       0.93677348       0.05890808      -0.12021903
N        4.59291155       3.36561618       8.87712188       0.65460706      -1.33412688      -1.72820412      -0.43954915       0.63918241       0.09544940
N        9.85010256      14.40894341       6.44981426      -0.60741320       0.92280095      -0.42151396      -0.08701778       0.55966799       0.09406199
N        0.22733255       8.63090095       8.94756630       0.84295806       0.30323202      -0.17299381       0.15788657      -0.60894151      -0.10330004
N       14.30863113       8.72588718       6.54292730      -0.28217963       0.34960814       0.40144231      -0.08164522      -0.62065354      -0.40645978
I       16.45761086       7.09216042      13.85136605      -0.04820438      -0.07594994       0.07857047      -0.00828995      -0.90548087       0.29033048
I       17.22146134      10.87551534      11.69654391      -0.09963923       0.10493147      -0.00358182       0.89472384      -0.23318804      -3.81481270
I        7.61622381      12.43881208      13.64247438      -0.10556468      -0.04710108       0.37599699       2.31941653      -0.91716286      -0.09286246
I        6.94807909       5.11331858      11.35336442       0.11792108       0.07232383      -0.20688876       1.25453123      -0.50522447      -0.29251601
I       14.96925342       3.49579432      11.51033161      -0.18222317      -0.06342074       0.15836112      -0.14754170       0.15093980       0.20594945
I       37.82679824      14.96434542      14.28273200      -0.02601203      -0.05516506       0.02658807       2.66937849       1.03899226       2.39313900
I        9.18604965       8.98426744      11.38412892       0.04664548      -0.13638243      -0.10935484      -0.90772887       0.13717316      -0.58244907
I        5.13037014       8.64111018      13.52173585       0.17032633      -0.16875943       0.42858199       0.60492142       0.94956955       1.16777902
I        1.28168586       6.29812333      11.36340356       0.30986011       0.34880882      -0.00923849       2.20323540       2.24288983      -1.15361583
I       13.28181112      11.13969122      13.93941010      -0.08409639      -0.09708002      -0.12423713       0.36595306       0.14220154       0.51914324
I        3.62877242      12.26295913      11.37976023      -0.49029026      -0.00857667      -0.00332470      -0.22256529      -0.41303379       1.87771842
I       11.05767222       5.46124898      13.58222971      -0.03204236      -0.07756217       0.13515703      -2.17806572       0.91709244      -0.23505435
H        4.29144796       5.32428098      12.86323726      -0.25481390      -0.07298446       0.27395264      -0.18502513      -0.13295156      -0.19072086
H       10.57080024      12.36583985      12.12875429      -0.36468031      -0.38585519       0.06619703       0.05346047      -0.11848410       0.05713866
H        2.09086862       9.71779371      13.78589755      -1.78529736       0.32144756      -0.23128030      -0.11267940      -0.26123898       0.04701756
H       13.99410464       7.09527424      12.37888216      -0.07524267      -0.23646214      -0.61457978       0.05420118      -0.01399655       0.15640764
H        2.76887500       4.15622007      13.17422401      -0.15710283      -0.15444797      -0.23705567       0.11111054       0.02432585      -0.03173205
H       10.56027337      12.43083087      10.28787721      -0.31701557       0.36926648       0.63339747      -0.17615814       0.06499455       0.02840456
H        0.76658412      10.55874874      12.84966724       0.14087895       0.72689381      -0.16921150      -0.18308124       0.07336294       0.06145038
H       12.22189809       8.00433472      12.31331696       0.57212126       0.58515552      -0.56204065       0.12925005       0.16922815      -0.05801100
H        3.56427570       5.00284320      14.64869417       0.33569172       0.30671006       0.31642701      -0.16361418       0.06067758      -0.05491443
H       11.77068927      13.31732356      11.27616618      -0.88332917       0.00942125      -0.10788909      -0.08457299       0.00571540       0.21518456
H        0.82420522      10.59025804      14.66597598      -0.65118738      -0.09153503       0.00193293      -0.23715376      -0.02659664      -0.08451662
H       13.00510566       7.21829356      10.57489670       0.10334012      -0.66233182      -0.81870857       0.09547056       0.13672895      -0.00942571
H        4.36076886       2.77902241      14.46661753       0.51663151       0.09831166      -0.17182433      -0.00287464       0.07621216      -0.06389534
H        9.85178541      14.88122007      10.51685758       0.02315589      -1.00399780       1.32734302      -0.09105989       0.01576347       0.26077349
H        0.36235260       8.18510130      14.43991095      -0.21359162      -0.63034179       0.23332523       0.13162048       0.01879927       0.01186120
H       14.41812265       9.51387648      12.07774124      -0.67769818       0.79257266       1.45949124      -0.00217692       0.01798742       0.02386712
H        5.76264970       3.76664562      13.96568024      -0.94320175      -0.29163751       0.18219677      -0.06735447       0.11219161      -0.16354693
H        9.91637688      14.74795412      12.23324495       0.33200298      -0.21648031      -0.34779684       0.10094232      -0.03628672       0.15799341
H        0.53177107       8.25564255      12.75442116      -0.35424312      -0.12396608       0.55595019      -0.06055654       0.01182013      -0.08562065
H       14.03237278       9.40976660      10.43692563       0.05941590      -0.44911334       0.70431019      -0.00754734       0.15244920       0.18545627
H        4.82607281       2.84695741      12.83599724      -0.13235001       0.00896509      -0.36439330      -0.02264691       0.15545898      -0.10188962
H        8.78737080      13.83664598      11.39985510       0.73901915       0.27317798      -0.06917885       0.11993921       0.04923968       0.13791459
H       37.29601242       9.66787791      13.87638119       0.25245529       0.13190128       0.00302489       0.09062697       0.12154657      -0.01411871
H       15.26166610       8.44753002      11.11471712       0.06610530      -0.12086721      -0.20505020       0.00201548      -0.08578000      -0.01889631
C        3.77802967       4.55972410      13.58223585       0.19727300       0.12927750      -0.66505545      -0.30344673       0.28545858      -0.33284209
C       10.69590585      12.98692374      11.24598732       1.62188017       0.55778381      -0.38881905       1.12018185      -0.22687759       0.51427206
C        0.97218824      10.00740545      13.75406109       2.30316978      -0.35804999      -0.20565921       0.23152032      -0.18139298       0.17681395
C       13.30111655       7.73308219      11.60451266      -0.48956588      -0.50269000       2.36619900       0.59546477       0.24986070       0.15733040
Pb      36.83345871       5.56486577      11.69804135      -0.01897393      -0.13240279       0.02997685      -0.39221965       0.41566138      -1.51406555
Pb      15.94359398      12.72577281      14.09327083      -0.15322288       0.19962355       0.20814015      -0.34413496       1.10846802      -1.73140015
Pb       6.07633044      10.55566395      11.26381129       0.40669265       0.00810229       0.03197730       1.02585297      -1.34690631       1.06892886
Pb       8.29415835       6.91687862      13.61470296      -0.34077461       0.05746396      -0.05226042       1.40850329      -2.05873174       0.19270432
N        4.75922253       3.44258681      13.70758294       0.50376027      -0.04715084       0.80362890      -0.66853202       0.37752656       0.14942510
N        9.79065664      14.17192359      11.35943321      -1.13564028       0.34352794      -1.17573411       0.16755871      -0.23652603       0.46066757
N        0.16420313       8.77623989      13.61971966       0.44070489       0.14810217      -0.14902040       0.33574551      -0.01557476      -0.68369409
N       14.28932753       8.82382546      11.30779782       0.30445621       0.64521043      -2.20165169       0.43420804      -0.12632732      -0.05129184
I       16.33496472       6.93997127      18.95330472      -0.02510144       0.10472892      -0.11570329       1.02612542      -0.22060333       0.01321934
I       17.05829145      11.02025014      16.51770620       0.09528882      -0.19226572      -0.12406355       0.67835394       2.79852211       0.96610196
I        7.21150363      12.38234889      18.73149166       0.17950223       0.13020224      -0.36746032       2.00852858      -0.31845020      -0.45735345
I        6.89093919       5.10759025      16.20920355       0.00371407       0.03602435      -0.04713743      -0.43767809      -0.39327827      -0.47186538
I       14.80854082       3.50303840      16.64912374       0.20995884      -0.16537978      -0.25511556       1.98565008      -0.65420771       0.08879520
I       -0.20057825      14.18342851      18.57659308      -0.21381361       0.01147311       0.07873121      -1.94367101       1.24332738       0.92931430
I        9.08332018       8.87729292      16.12529463       0.17382149       0.11622000       0.08881966       0.23010555      -0.06030067       0.87523064
I        5.09035225       8.67803328      18.68614994       0.07407200      -0.11006814      -0.36363716      -2.06439637       0.23633134       0.77153423
I        1.23166972       6.57916970      16.01554336       0.09076452      -0.04389978       0.18328060      -1.05121609       0.03734911       0.44501066
I       13.33748861      11.14024403      18.59640548      -0.15305630      -0.06693913       0.12484238       0.22717838      -0.78519977       0.41770115
I        3.47681196      12.20961837      16.07845663       0.05412692      -0.01808285       0.03919975      -1.71035588       1.72535379      -1.40477565
I       10.76371601       5.39670001      18.66163092       0.20623682      -0.02227838       0.04585432      -1.35300985      -0.03344381       0.13219169
H        2.52358282       3.99510806      18.49377719      -0.32316782      -0.05927178      -0.08497805       0.13302246       0.04997539       0.09458051
H        9.98329362      12.84122106      17.86368308      -0.20063132      -0.14975830      -0.57125408       0.08618508       0.00299725      -0.06793825
H        0.56619247      10.33818539      17.51707033       0.03157233      -0.19450045       0.78120553       0.05848398      -0.01529438       0.02169189
H       13.51573340       6.90885015      15.45508287       0.00361266      -0.27388604      -0.31466628      -0.10388912       0.01440981       0.12059709
H        3.66874857       4.92064332       0.30059185       0.21673894       0.07082293      -0.05714713       0.06995639      -0.03393527      -0.08392811
H       10.56493542      12.25670293      16.02526114      -0.40639163      -0.21600352       0.00639256       0.29588886       0.00830708       0.04311106
H        0.68244624      10.59199737      19.35249247      -0.07314659      -0.20059113      -0.20471998      -0.04468554       0.00958163      -0.06075380
H       13.61124965       6.85677375      17.25665975      -0.08572846       0.70859799      -0.86317333      -0.15773880      -0.00941500      -0.07324137
H        3.79424303       5.24068061      17.96200123      -0.07992311      -0.20613522       0.38715163       0.06548901       0.05625574       0.00213666
H       11.61441873      13.23278017      17.02403882      -0.38245987       0.51915164       0.01946362       0.02874724      -0.10542195       0.02668815
H        1.93144770       9.67221672      18.45212975       0.70316724      -0.14801291       0.17202540      -0.12575394       0.11285578      -0.37695492
H       12.33648048       7.84357538      16.42221686      -0.33144314      -0.10402539      -0.02123788       0.08005884      -0.01163400       0.19337303
H        5.49995769       3.64946875      18.54691212      -0.53339776      -0.08138533       0.49056491      -0.09658023      -0.03099230       0.01154489
H        9.61175752      15.09546573      17.02395271      -0.15008097      -0.38498046      -0.55782405       0.12461184      -0.04846386      -0.08967316
H        0.52621949       8.05930093      19.49933725      -0.26960570      -0.38557040       0.44709777      -0.11651404      -0.14200862      -0.11762487
H       14.07508410       9.33353020      17.11283401       0.19129192      -0.20692627      -0.34511947       0.06554748      -0.23977507       0.05974082
H        4.40030154       2.70925292      17.71527223      -0.13566682       1.06540243       1.06492482       0.03026283      -0.14884776       0.01360707
H        8.70853391      14.23856100      15.69385677       0.89776730       0.23160170       0.14317477      -0.02487043      -0.13496136      -0.10631907
H        0.28642919       7.97464822      17.84875519      -0.04136476       0.11569173      -0.04729540       0.33284571      -0.09160958      -0.11838846
H       13.88537822       9.25254048      15.44363182       0.39126095       0.28750044       0.00464586      -0.03656514       0.19583632      -0.14444539
H        4.36110042       2.61915110      19.37489888       0.32280143       0.19118740       0.18230163      -0.11122615      -0.05903722      -0.04153241
H       10.40224196      14.86782668      15.33349636      -0.26988712      -0.31247238       0.58009493       0.21607809      -0.11422761       0.04837617
H       37.30680469       9.53470865      19.17073859      -0.90033309      -0.11353694       0.04492650      -0.01678464       0.07019162      -0.07303105
H       15.22816495       8.49753852      16.18013113       0.07300006       0.02152690      -0.07984261       0.06937579       0.00600048      -0.06566742
C        3.52068536       4.43104547      18.71274851       0.02919906       0.44998185      -0.42622045       0.36292194       0.26033052       0.10111501
C       10.49508517      13.10569451      16.80367660       1.09517286      -0.76658367       0.59328442      -0.08284252      -0.29682828      -0.18452157
C        0.87466027       9.89092021      18.51634407      -0.10295765       0.77285877      -1.03728109      -0.30059366       0.06376554       0.06617827
C       13.36687654       7.49298044      16.35668625       0.05946223      -0.76534110       1.16420066       0.20314901       0.49705230       0.65762775
Pb      36.76602001       5.65316055      16.57113957      -0.02625797      -0.10896367      -0.04277813      -0.35703928      -0.73626495       1.51508053
Pb      15.95208211      12.82590646      19.06359289       0.02251711       0.03346020      -0.33934016       1.80800860       1.18557969       0.50889743
Pb       6.21217402      10.58958023      16.06493578      -0.14800733       0.05936908       0.04241922       0.35244853      -0.63104971       0.55955846
Pb       8.18784594       6.97978133      18.52491176      -0.42810369       0.10087549       0.29577152       0.93677348       0.05890808      -0.12021903
N        4.50286316       3.33330259      18.61138853       0.65460706      -1.33412688      -1.72820412      -0.43954915       0.63918241       0.09544940
N        9.76005417      14.37662982      16.18408091      -0.60741320       0.92280095      -0.42151396      -0.08701778       0.55966799       0.09406199