768
Lattice="38.16606883306081 0.7708101007676014 0.3666927628512125 -0.3296249581406084 22.360322942442707 0.08526197331993467 -0.1800967783537251 -0.06462717078727989 19.468533293292147" Properties=species:S:1:pos:R:3:forces:R:3:momenta:R:3 energy=-3327.551938395806 stress="0.0 0.0 0.0 0.0 0.0 0.0 0.0 0.0 0.0" pbc="T T T"
I       17.43276705       6.50050324       3.96297635      -0.26219141       0.21215838       0.31746355       0.65359113       0.25251191      -0.72867199
I       18.08270466       9.81238733       1.73251593      -0.33500337       0.58895713       0.07663493      -0.39424528       1.56971361      -1.68074328
I        8.30398209      11.78845773       4.03021372       0.05676098      -0.00179469      -0.17257930      -0.42064662       0.33979998      -3.05284824
I        7.72308020       4.65837404       1.50587584      -0.17820033      -0.36110693      -0.03565415       0.10312133      -0.15946495      -2.81763553
I       15.79013458       3.03256083       1.77470670      -0.33863119       0.18837564      -0.17381352       1.46353259       0.77232291       2.04432045
I        0.04853840      13.49656420       4.52603464       0.08218017      -0.05299089      -0.41374290       1.75189853       1.70656377       0.53294489
I        9.95472356       8.21986046       1.76073014       0.19356707       0.31501527      -0.30166269      -2.19759153       3.09107406      -0.99897640
I        6.32044819       7.89753839       3.85330922      -0.39111476       0.18723758      -0.00250123      -3.90949499       0.31488523       1.45622791
I        1.86836606       6.10338509       1.62179474      -0.20972193       0.00516318       0.31595882      -1.15721572       0.28125023      -0.24693753
I       13.80318002      10.72841896       4.19185779      -0.11765974      -0.02340549      -0.30603712      -2.01789432       1.85542236       1.75802634
I        4.30632638      11.63399698       1.61918885       0.03599743      -0.14815255      -0.13234293      -0.39780094       1.70026725      -1.54012634
I       11.67167789       4.67821034       4.31935658      -0.00723231      -0.17601975      -0.35070367      -0.05029757      -0.69206928      -0.46618048
H        4.40430123       4.63529974       3.30311092      -0.39167069      -0.99939475       0.54723688      -0.19544276       0.01540359      -0.12021951
H       11.13290976      11.77720567       1.76703438       0.36359031      -1.09361438       0.75924084      -0.06779487      -0.08407028       0.29382639
H        2.96460485       8.69388099       3.62465756       0.45124440       0.03300958      -0.56048794      -0.09239278      -0.18720272       0.00606691
H       14.13102719       6.39886244       2.65942660      -0.11950061      -0.38943099       0.74806110       0.11475051       0.13938943       0.32543770
H        3.67627202       2.96694355       4.28375567      -0.22725339       0.42708269      -0.17739052      -0.06559151       0.34753475       0.19009100
H       10.78746365      12.13161670      -0.01505596      -0.53411547      -0.35740950      -0.49578559      -0.07115521       0.24626241      -0.11942674
H        1.61935210      10.18554833       3.38711786      -0.15980204       0.43470085      -0.39764140      -0.17232736      -0.02814658       0.09230261
H       13.02274869       7.28245364       1.55623448      -0.44083775      -0.43178815      -0.30935336      -0.03184080       0.08275073       0.02375119
H        4.61350464       4.44869631       5.05645374       0.06788203      -0.64155166      -0.00156979       0.02858925       0.10987889      -0.07690003
H       12.25267943      12.70889842       0.73433681       2.11855558       0.36375544       0.40800405       0.03413128       0.04329069       0.02830140
H        2.56606241       9.91122150       5.27823176      -0.36543161      -0.60718608      -1.59879101      -0.10441925      -0.12762966       0.07391585
H       14.51507796       6.19138347       0.92755076      -0.78163761       1.36464415       0.86525924      -0.16251819      -0.09377230       0.05457457
H        5.97271137       2.30460255       4.88951809       0.75254169       0.95369941      -1.73090250       0.03610978      -0.15824586       0.11146100
H       10.48307202      14.60686318       0.87463424       0.78684917       0.56571677      -1.31475206       0.05690934       0.05350897       0.08688240
H        1.19889337       7.75322055       5.09131799      -0.64710367       0.14834639      -0.56700778       0.07502047       0.03181807       0.20413262
H       14.94199196       8.50504156       2.87293749      -0.31696438       0.19912193       0.53048612       0.04650802       0.04836733      -0.09256196
H        6.79149705       3.51716902       3.76934617       0.88520352       0.18691028       0.08965331       0.21608544       0.04260857      -0.06214832
H       10.83112393      14.12927788       2.46578782       0.39899400       0.26748022       0.73269820      -0.09211117       0.24152061       0.04750665
H        0.59115220       7.84148927       3.39675745       0.08038210       0.02826232       0.38836663       0.07910339       0.23690076       0.18995427
H       14.50113402       9.07060300       1.25198787       0.33301005      -1.26172514       0.52872593      -0.00517377       0.05486416       0.13666454
H        5.74620369       2.20043448       3.19845720      -0.08241882       0.43545760       0.05607864      -0.01537594       0.19316854      -0.12971356
H        9.48309824      13.59807104       1.63311347       0.06463302      -0.01829064       0.21208380       0.18019811      -0.19537368      -0.00735178
H       -0.15103587       8.90969298       4.63549731       0.21110017       0.04500296       0.49975382      -0.15382930      -0.21235728       0.34580527
H       15.89052064       7.87555619       1.53200732       0.13035973       0.21842516      -0.10546502       0.25877893      -0.13854040      -0.04718705
C        4.55290625       3.79549378       4.15575061       0.57621005       0.77686019      -0.92741016       0.22522236       0.48122078      -0.19076131
C       11.24265476      12.47713377       0.96427797      -0.89586662       0.56857702       0.06392299       0.53307998      -0.63618470      -0.22106343
C        2.04013501       9.40679440       4.08009803      -0.18988335      -0.31822867       2.51845515       0.24722282       0.39951103      -0.99691865
C       14.04614465       6.93196589       1.72086201       0.54690578      -0.94122132      -1.10461825       0.31666363       0.61584783      -0.14545915
Pb      37.43500872       5.02322787       1.95730245      -0.00368088       0.25732110       0.25033276      -0.38427003       0.55318769      -0.28809768
Pb      16.55252098      12.09814020       3.90919119       0.30438339       0.12071060      -0.15913917       0.76213648       0.38246565       1.41609849
Pb       6.97870903      10.05680077       1.33147914       0.08699573      -0.01119094       0.52216991       0.43104265      -3.78309930      -2.54986186
Pb       8.94366886       6.32805227       3.73141905       0.09838609      -0.20139268       0.95772081      -0.68304003      -6.56399558      -2.55487228
N        5.90550144       2.93886502       3.94443128      -1.82161911      -1.40382656       2.05006506      -0.53510591      -0.23078447      -0.29658421
N       10.51522765      13.75570183       1.52748844      -2.21283461      -0.33151498       0.14317262      -0.48322720      -0.63410250       0.38030120
N        0.80138873       8.43184851       4.33430962       0.76573086       0.01176488      -0.59656958       0.09838788       0.30244624       0.22914606
N       14.88728188       8.12539429       1.85844815       0.57324432       1.26534219      -1.36360065      -0.07641639      -0.27603826       0.49251384
I       17.33586669       6.62776963       8.77445736      -0.25488064      -0.00254056       0.04755581       1.18820421      -2.77619210       0.74314978
I       17.67476454      10.35636927       6.41306925       0.14424760      -0.00340239      -0.09056724       3.52966764      -0.43425375      -0.80632120
I        8.27355498      11.75168224       8.71734602      -0.12786467       0.07475006       0.23014448      -1.15067167      -0.91890313      -2.28367068
I        7.67014808       4.49052339       6.65242323       0.09963192       0.29876246      -0.06583328      -0.54243977      -1.32824103       2.48615903
I       15.77325017       3.19760427       6.61941870      -0.33611797      -0.08306325      -0.45515006       1.89973469       0.57143436       0.69447924
I        0.27182976      13.35511391       8.60164569      -0.18406638       0.00918834       0.35881084      -1.70718478      -2.86507221      -0.21086056
I       10.04086139       8.35891392       6.42711136      -0.04631812      -0.05284568      -0.19085000       0.69744779      -1.30813816       0.59328606
I        6.05536096       8.01254412       8.88653663      -0.06291145      -0.09098045       0.00195112       0.63981532       1.25187456      -0.88641392
I        1.97898792       5.77680735       6.33395782       0.01944854       0.16837983       0.25644937       1.81313697       0.38170574       0.40199236
I       13.58164866      10.70499663       8.80096171       0.06911642      -0.25242410      -0.13841910      -2.18010281      -0.98733360      -1.30823739
I        4.47369982      11.63703835       6.47249086      -0.00206839      -0.19807740      -0.02362698       0.55396182      -1.73731376      -3.72048050
I       12.03274800       5.03312284       9.14532998      -0.33706843       0.05745220      -0.17821889      -0.28321312       2.38903697      -2.00941417
H        3.25541609       4.05876385       8.74599158      -0.06788055      -0.48863706      -0.19147984      -0.05022199       0.03466925       0.01369453
H       10.79841908      12.14471207       7.39749097      -0.07408599      -0.53104122       0.80533152      -0.01080473       0.23800155       0.04464839
H        1.37098155      10.47739313       8.77115849       0.26195389       0.37382331      -0.97251269       0.23053627       0.11901392      -0.26961827
H       14.35690766       6.54661815       5.51997604      -0.71536355       0.68581985       0.55097750      -0.01566509      -0.13882238      -0.23696980
H        4.48808956       4.63755179       9.94688743       0.00082140       0.08838753      -0.08403397       0.12962708      -0.02549720      -0.06596010
H       10.98659044      12.10812188       5.59646879       0.45349982       0.68663428       0.93986812      -0.07897898       0.06947343      -0.18580983
H        2.39125435       9.57765722      10.47619283      -0.11781870       0.40668882       0.93939892       0.12011388      -0.28936606      -0.09455737
H       14.23141103       6.42022530       7.22430443       0.42292202       0.57024123       0.85406764      -0.06556723      -0.04712221       0.04178937
H        5.00427098       4.66350654       8.19001345       0.00612850       0.08849909      -0.45109638      -0.04130221      -0.09359917       0.30946163
H       12.04669715      13.28549600       6.68487013       0.07943605      -1.01127935      -0.15924871      -0.22059234       0.02606917       0.20851666
H        3.22644106       9.15720242       8.49886647       0.18996264       0.11562410      -0.06449103      -0.25118655       0.00730623      -0.03921839
H       13.04133903       7.50403279       6.40658122      -0.29798415      -0.42522406      -0.04061099       0.04441510      -0.00710734      -0.19989056
H        6.07908691       2.85411253       9.42587495       0.67393696       0.02523351      -0.09226197      -0.00900345      -0.26608855      -0.12193988
H       10.32872192      14.50820089       7.24968885      -0.13383415       0.72902546       0.83162652      -0.25310631      -0.10609359       0.10474506
H        1.72053580       7.45954065       9.80389781      -0.40393990       0.23386060      -0.55709601       0.06558962      -0.07512136      -0.30063090
H       15.03242188       8.91143799       7.29373027      -0.42695390      -0.36499667      -0.09257343      -0.16687268      -0.00112770       0.08162556
H        4.94017019       2.03769496       8.46946119       0.19822864       0.46239723       0.11401919       0.10295852       0.01960239      -0.02788336
H        9.15088090      13.66103107       6.39936339      -0.30127282      -0.19520056       0.29504110      -0.08549843      -0.05124535       0.00078680
H        1.56440815       7.68109313       8.12425440      -1.02430281       0.63269767       0.57469559      -0.20956673       0.07818860       0.00435731
H       14.39105054       9.03977961       5.67211635      -0.10983704       0.75703039      -1.08515539      -0.12783204      -0.22029640      -0.30565658
H        4.68462071       2.20835690      10.10841675      -0.16739925      -0.14552286       0.38728662       0.14348212       0.00989741       0.03228974
H       10.30480158      14.49893146       5.61421784       0.41654345       0.06480028      -0.08843831       0.01080117       0.11077151       0.03392494
H        0.26135033       8.33569158       9.31585341       1.85526131      -0.55904938      -0.42358878      -0.30793730       0.08056361       0.19681274
H       15.97666092       8.17054887       5.92173627      -2.64199156       0.56465445      -0.01132265       0.18615626       0.06413630       0.02241947
C        4.38482760       4.09559485       8.99096716       0.48010355       0.12874157       0.95384523       0.51843090      -0.29283251       0.12636804
C       11.07268577      12.72212638       6.54659696       0.01985409       1.30790061      -1.80846257      -0.29893034       0.68683469      -0.13088047
C        2.17285543       9.44959562       9.20559843      -1.18942512      -1.27843191      -0.23095549       1.24971107       0.82838151       0.00031967
C       14.07325828       7.15286565       6.43025019      -0.21220339      -1.10262966      -1.82728675       0.12514823       0.71936153       0.24997675
Pb      37.44531765       4.95150329       7.03985487      -0.12177961       0.11670931       0.25027504       2.52094938      -0.55792481       0.86156814
Pb      16.35067233      12.13112729       8.80071848      -0.17742495       0.15762705       0.25969488      -2.39050696      -0.31003993       0.90502589
Pb       7.18822384       9.86714718       6.41778770      -0.11083046       0.00865158      -0.19336673       0.23382585      -0.38668536      -0.90209738
Pb       9.04310377       6.47223337       8.84651610       0.25787547      -0.31065401       0.03045200       1.36562173       1.49503951      -0.63740054
N        5.06123515       2.72979676       9.27040509      -1.00512829      -0.30455187      -0.94621014       0.41699852       0.03961176       0.08494421
N       10.14167128      13.91022333       6.45621461      -0.36199103      -1.11363035      -1.02704054       1.23549221       0.24053712      -0.16924285
N        1.33266378       8.17127447       9.06266177       0.16421156      -0.04328318       0.52167301       0.53194062       0.68315155      -0.35762626
N       14.88279779       8.36038783       6.34327919       3.96590855      -0.84369734       1.80540213       0.53311053      -1.17228290      -0.65631299
I       16.99660349       6.55827741      13.83578074       0.25299018       0.07869396      -0.35943002       1.31957568      -3.45048862      -0.11007060
I       17.45279901      10.38802774      11.44417581       0.37336109      -0.27567895      -0.23183641      -1.70470565      -2.63485641      -0.29821011
I        7.95169718      11.96196275      13.86044501      -0.23337461      -0.31088536       0.06055315       0.34852350      -1.08613158       0.93974521
I        7.98294950       4.44671425      11.20033881      -0.23253094       0.08748150       0.12601690      -1.04833329       0.56918448       1.02583350
I       15.43580047       2.64251018      11.28944170       0.27590818       0.51156618       0.06639018      -0.81045651      -1.69204745       1.63715516
I        0.28288197      13.67530873      13.98124704      -0.05598658      -0.61890498      -0.26122047      -0.66960283      -1.42766595      -0.95334535
I        9.77179576       8.53374074      11.46616942       0.07802521      -0.19605034      -0.00959951       0.36260639      -0.67671312       0.54726263
I        5.94673561       7.88334689      13.71382709      -0.09428135       0.05985987      -0.14916026      -1.40909449      -0.15992010       1.46985442
I        2.05904860       5.72876819      11.51394985       0.38163502       0.41702532       0.16200153       0.10601181      -1.56418854       0.85051871
I       13.77923909      10.32023852      13.78186034      -0.14711709      -0.06765994      -0.19050904       1.25782627       0.86645077       1.23211792
I        4.11009314      11.45553979      11.58651816       0.06845854       0.34303491      -0.31999771      -0.39142292       1.36780211       4.13162242
I       11.55896226       4.47677555      13.53603532       0.03263341       0.19881463       0.34038814      -2.82579224       0.22335042       2.93249116
H        5.15643220       4.59248472      12.66931109       0.16665272      -0.52359812       0.00724724      -0.06996149      -0.28259017      -0.07897794
H       10.11285229      11.33964265      11.93085318       0.05226541      -0.38412940      -0.17300062      -0.20566769      -0.04153026       0.07215262
H        2.84560860       9.12306232      13.77198687      -1.70032855       0.76104464       0.63574830       0.29726452       0.08967947       0.29899847
H       14.71829370       6.30811736      12.04192560       0.14948809      -1.16963714       1.32637930      -0.17614822       0.00491924       0.06326602
H        3.72201138       4.01169781      13.63376199      -0.86973064      -0.28929013      -0.02832923       0.21124206      -0.11003015      -0.08744251
H       10.86889153      11.67757457      10.09386776      -0.22418256      -0.20688694       0.13602317       0.12950695      -0.37788044      -0.09384502
H        1.62777800       9.85747920      12.71808101      -0.50987841       1.16977232      -0.93771888      -0.13629289       0.41444041      -0.13546982
H       12.83195968       7.21394438      12.03984280       0.65340509      -0.45467590      -0.16308927       0.03769292      -0.13689349      -0.03704224
H        5.18936939       4.75704366      14.42735459      -0.14971993      -0.81264988      -0.58395142       0.17814049      -0.04341823      -0.03342046
H       11.96244765      12.03173401      11.68676258       1.79697754       0.07951357       0.06141350      -0.01500405      -0.11183683       0.02990503
H        1.37104869      10.12360893      14.53471353       0.62705643       1.04726922       0.29330034      -0.14825016      -0.03715726       0.23929945
H       13.60026774       6.36144779      10.25539942      -0.10191574       0.95939133       0.77410360       0.02480029       0.03047531      -0.17273102
H        5.01695178       2.12685200      14.57954230      -0.22395262      -0.31523358      -0.36948619      -0.18372309       0.02275289      -0.03741984
H       11.04010789      14.24910817      10.50089738       0.23863180      -0.07599757      -0.35805683      -0.01743380       0.04569768       0.22527354
H        0.82634334       7.88959275      14.89213843       0.23966811      -0.16587619       1.14244557      -0.11492060      -0.00938504       0.04459423
H       15.14686817       8.61593535      12.10999139      -0.76842247      -0.15268090       0.01356688       0.27378079      -0.12069796       0.04142004
H        6.50299287       2.64451890      13.89565141      -1.03260788       0.07892803       0.16635205       0.06924658      -0.09417905      -0.00926053
H       10.62384146      13.93148454      12.12559688      -0.65992380      -0.41446646      -0.31848356       0.00946896      -0.19349404       0.12872815
H        1.34134095       7.34068030      13.37175150      -0.19102920       0.39568080      -0.74054634       0.02935389       0.11635556       0.09933113
H       14.05537235       9.01496172      10.46137035      -0.47689684      -0.16555547      -0.41609608      -0.19378041       0.06585663       0.03207874
H        5.35775769       2.06377581      12.82925116      -0.77872927       0.24142422       1.00417004      -0.09735794      -0.03144926      -0.01089438
H        9.33654980      13.64315131      10.68617169       0.06596328       0.16524420       0.56078066       0.20431733      -0.01177301      -0.00590164
H       -0.12529230       8.45697819      13.47922312      -0.20258860       0.25493764      -0.02396926       0.18158719       0.03143215      -0.08616510
H       15.72526394       8.01967682      10.29569543       0.84421318      -0.49095727      -0.13862605      -0.04567677       0.02787037      -0.05037224
C        4.82805785       4.06523374      13.59172021       0.47349591       1.36115714       0.53602917       0.16756765      -0.23623268      -0.16886082
C       10.88083599      11.99258366      11.20904784      -0.78663207       0.32385855       0.09796236      -0.25524218      -0.16591129      -0.42239385
C        1.75728432       9.50363721      13.73235996       1.25408064      -2.96471519       0.51825314      -0.36489755      -1.17847369      -0.58477057
C       13.91332130       6.90706449      11.35261693      -0.72125090       1.35158745      -1.47283056       0.25908558       0.15208598       0.34592189
Pb      37.55262401       5.24169764      11.78441075      -0.20211296      -0.59700257      -0.12947362       4.22216299      -0.21111926      -0.30077242
Pb      16.33740603      11.99660343      13.91000521      -0.13201769       0.25596388      -0.18452519       0.78031747       0.29461377      -3.73343544
Pb       6.83629719       9.98605318      11.29887408       0.31456132       0.02196242       0.29929241       3.21028943       1.16306150       2.53508154
Pb       8.98634786       6.23548201      13.83516796       0.07733793       0.02055978      -0.30174151      -2.72612856       1.71875662       0.56365518
N        5.40198971       2.65470549      13.72796955       2.23573606       0.22011780      -0.65634116      -0.11347004       0.96254750      -0.58125862
N       10.43707099      13.50993348      11.13797538      -0.23297612       0.69717640       0.12106414      -0.04272364      -0.06775402       0.01462105
N        0.88028941       8.27591053      13.89289559       0.44534523      -0.46284445      -1.18999787      -0.40372118      -0.03173324      -1.09261198
N       14.71926832       8.18019500      11.02340140       0.38727887       0.16435604       0.15596862       0.17822103      -0.35119736      -0.08881343
I       17.17096796       6.58943542      18.67228750      -0.10577064       0.00629406       0.04855983      -2.91226325      -0.99152141       1.51463021
I       17.76362515       9.99045658      15.90173344       0.08502872       0.03791727       0.33250607       2.33192528      -1.67311552       1.08060846
I        8.10650073      11.62551927      18.53205494      -0.01311218       0.17447310      -0.10965036      -2.38598878      -1.26849080      -1.75574564
I        7.56139374       4.58804491      16.12465381      -0.08247483      -0.22476722       0.30056195      -1.32598864       4.40195367       0.88933822
I       15.09354514       2.81432497      16.23468495       0.35741880       0.02728383      -0.23398745       1.23209732       2.50696866       0.79640598
I        0.10592073      13.41969921      18.81776404       0.19507438      -0.04866328      -0.04697309       0.22122174      -1.77689337       0.82331329
I        9.87677397       8.15805157      16.40744215      -0.07570110       0.34830162      -0.31838223      -1.22635576      -0.93728517       0.69587263
I        6.06501322       7.72469125      18.66010092      -0.39731123       0.13177323      -0.05783762       2.76810376       0.45385810       1.67928965
I        1.91216438       5.86031435      16.01254619      -0.03015260      -0.25410706       0.19358335      -0.16543792       0.58192089       0.43901939
I       13.87578202      10.32115594      18.76318517       0.01052933       0.17201068       0.09566853      -4.60077698      -4.69252052      -0.09246100
I        3.96628579      11.38086968      16.41256996       0.02680261      -0.05237692      -0.25391498      -1.38887127      -0.72784781      -1.17780794
I       11.68140352       4.70575562      18.25275556      -0.11625711       0.26217216       0.08454658       0.24106726      -0.62238396      -0.79101080
H        2.88807963       3.46724553      18.80687261      -0.56403253      -0.03771393       0.19762135       0.03350540       0.08527447       0.07067836
H       11.42518138      11.45354412      16.57547010      -0.03810940       0.04285136      -0.62201322      -0.38392748      -0.08540951       0.23788498
H        2.45581111       9.67013442      18.08715417      -0.78088123       1.40377174      -1.91551350      -0.11381735       0.09346026       0.15550129
H       14.47671456       6.31950775      15.04311386       0.33582562       0.29910571       0.41176259      -0.09348387       0.00911423      -0.13138423
H        3.98550215       4.52813049      19.79732358      -0.19582535       0.00442816      -0.22365203      -0.06824828       0.02365448      -0.55263058
H       10.75752780      11.80825425      14.72727077      -0.16344203      -0.11036615       0.12534697       0.14012281       0.12943152      -0.09597084
H        1.60273526       9.55791311      19.81472776       0.13475830       0.15809007       0.20886492       0.09410176      -0.29020636      -0.17372233
H       14.65205347       6.06905282      16.92313329      -0.42655859       1.11248782      -1.88865454      -0.22690193       0.17764279      -0.31529054
H        3.94821334       4.66744026      17.94876513      -0.14098164      -0.75515801       1.37035029      -0.14375718       0.09692477      -0.06240820
H       12.40254052      12.43885434      15.39953327      -0.58108314       0.33639840      -0.11583006      -0.20737399      -0.35286885      -0.10578342
H        2.92838266       8.31267851      19.32573134       0.98211908      -0.30701183       0.46258283       0.21146741      -0.02915812      -0.34914546
H       13.15151688       6.86115730      16.16042092      -0.75121868       0.00366249       0.11374922       0.01763006      -0.00317790      -0.04287722
H        5.86949512       3.27996363      18.86733843      -0.06128878      -0.00047683      -0.01088578      -0.10470542      -0.11772317       0.09981739
H       10.91606029      13.92715018      17.07618349       0.23372810       0.53028212       1.44756571       0.26368927      -0.14006736       0.02080428
H        0.44238560       7.42495282      19.48744221      -0.10485299       0.29263315      -1.26913581       0.00851870      -0.06159947       0.22460361
H       14.43699120       8.76691247      16.98914090      -0.50208586      -0.03307051       0.29739200      -0.26268046      -0.18475136       0.01581130
H        4.81905252       2.41037022      17.81367633       0.43196944       0.18356570       0.19114518      -0.08594863      -0.16781879       0.18149041
H        9.40322543      13.24404755      16.59810731       0.22436393      -0.24089154       0.07880567      -0.20988804      -0.20537669      -0.01801891
H        1.13315972       7.40719461      17.78139005       0.20412386      -0.56116318      -0.65371730      -0.00215558      -0.27331800       0.13445538
H       14.68121788       8.77411045      15.30701360      -0.12642927      -0.46556818       0.57113938      -0.01742335       0.19019633      -0.19608169
H        4.73906071       2.11732458      19.38525058      -0.28771236      -0.65592049       1.80773084      -0.07011382      -0.02544576      -0.04985532
H       10.27955752      14.19293027      15.52644822       0.48160146       0.47737111      -1.35776916      -0.04353835      -0.08262572       0.12245792
H       -0.15221395       8.57692605      18.09794367      -0.33791586       0.24437481      -0.19305463       0.15258921       0.05156425      -0.10685215
H       15.88290329       8.18519700      16.39403950      -0.32199118      -0.02938133      -0.25509037       0.09218535      -0.24281716      -0.02388910
C        3.85783020       3.96551490      18.85841079       0.69163598       1.43653125      -1.06439020       0.52048256       1.13074482       0.19309277
C       11.31424187      12.19125416      15.68368865      -0.35712776       0.70722781       0.89871698       0.47270471       0.52685495      -0.45771244
C        2.02137389       8.97877078      18.97373345      -0.59194807      -1.14940070       0.96144159      -0.63965611      -0.12109413       0.45121872
C       14.24059650       6.75090148      16.05147333       0.61493170      -0.50207992       1.69296430       0.01339999      -0.03770619       0.38148981
Pb      37.42432473       4.87790732      16.68753443       0.03395255      -0.01139129      -0.23166142      -1.27508195      -1.73725421       1.33327717
Pb      16.81057615      11.75593920      18.58980700      -0.06323057       0.08516093       0.05627281       0.00683611       0.21232619      -3.83802076
Pb       6.67234818       9.81840310      16.09694395       0.44073517       0.21301368      -0.22165564      -0.78292275       0.94562163       2.09793329
Pb       8.82558334       6.41173403      18.59573898       0.47126241      -0.40732741      -0.18635534      -1.54868933       1.23257079      -0.73349630
N        4.89931914       2.91933387      18.76016524       0.55556149      -0.27812639      -2.11451250       0.00795800       0.82299440      -0.56275063
N       10.42501214      13.44445742      16.26988650       0.23394956      -1.89323666      -0.37815239      -0.17944291       0.87740789       0.45820140