768
Lattice="31.69945668710882 -0.05318654843770361 -0.36351599514761185 0.040002385871756 30.414649832433703 0.5117498230958147 0.4104475048070117 -0.22194636651643873 17.44856456336718" Properties=species:S:1:pos:R:3:forces:R:3:momenta:R:3 energy=-3326.162161238438 stress="0.0 0.0 0.0 0.0 0.0 0.0 0.0 0.0 0.0" pbc="T T T"
I        6.72440111       2.80559739       2.71388509      -0.12669540       0.16046928       0.18864841       0.86746498      -0.82790275      -1.75052309
I        1.26980097       7.69641039       1.81573683      -0.07378517       0.31395957       0.33799339       0.79415568       1.44553056       0.14194967
I        6.72629408       2.81608648       6.96579394      -0.04802552       0.16838267      -0.39116808      -0.38594567       1.85544493      -3.64686818
I        0.82637887       7.84945201       6.09621340       0.07201483       0.04231235       0.32317038       1.38289639       2.05758373      -1.49645404
I        5.10840267       6.67933140       4.14308883      -0.14131370       0.17768115       0.00716402       2.79718802       0.26499325       3.26936058
I        2.79679332       4.24462251       9.40569341       0.02127433      -0.24065207      -0.20670060       1.73603381       1.20282509       0.03208670
H        2.89924322       4.30150652       5.67113217      -0.56124809      -0.71795101      -0.58497379      -0.20367765      -0.12573970      -0.02439103
H        5.70373472       7.86700627      18.10876707       0.05775678      -1.45667292      -0.79562121       0.21810147      -0.04503588      -0.19945549
H        1.25541385       3.92139522       6.30359465       0.37963454      -0.01376469      -1.38279181       0.01571277       0.05283173      -0.17259790
H        6.51665480       7.27587964      16.52315780      -0.66878819      -0.02818962       0.47814007      -0.00698567       0.17417997      -0.08966810
H        1.91034132       2.89342283       4.88319640       0.37766645      -0.28171745       0.20035236      -0.05366054      -0.03576609      -0.05627449
H        4.78695492       6.64163168      16.93826601      -0.00044335       0.51524445      -0.33078066      -0.07591274       0.08065888       0.24634107
H        1.78324659       4.87974632       3.41298606       0.66988922      -0.10572779      -1.07842620      -0.15476645       0.09535962      -0.03363047
H        7.22925506       6.02008541      18.46608343       0.27244648      -0.45722142      -0.07957806      -0.08874308      -0.01590665       0.13498981
H        1.19007476       5.77852075       4.67435697      -0.17572629       1.14309382       0.47383535      -0.01387164      -0.19113178      -0.06486440
H        6.33661279       4.88809456      17.41600860       0.42703593      -0.26211909      -0.15791705       0.20292077       0.05913858       0.12782509
H        0.34565023       4.41951369       4.17800188      -0.07090117       0.35298891      -0.68152829       0.09412638       0.04839515      -0.03477867
H        5.75513834       5.43736584      18.91433026      -0.12781340       0.15451214      -0.32952816       0.00908447      -0.12534194       0.35994140
C        1.90328127       3.87976140       5.35329841      -0.03888685       1.82829479       0.65638281       0.44115777       0.26837293       0.06643453
C        5.77732165       6.97303158      17.34600281      -0.51611248       1.22659512      -0.16823559      -0.44947243       0.33174023       0.90077412
Pb       4.85166228      16.67159807       9.26706368      -0.11669823      -0.10313470       0.10390739       1.86977388      -0.19412103      -1.77045596
Pb       0.91616126      16.45065144       9.13178009      -0.16622707       0.01176963       0.05130987      -0.28979943      -0.78148292      -2.14640801
N        1.29264902       4.84947521       4.29626424      -0.47897148      -2.28655611       2.19945636      -0.07338183       0.21074312       0.19809886
N        6.29881195       5.73413681      18.06074675       0.63394479       0.37776664       1.44351926      -0.41529256       0.51779108       0.03867026
I        5.13351313      10.81032409       6.44763363      -0.09469808      -0.14613449      -0.33236482       0.30449782       0.92319256       2.90511628
I        3.04974760      15.08187576       7.08129190       0.14407053      -0.12923297       0.08300135       1.38000732      -2.21566029       0.22979630
I        4.77667726      10.77424089       1.90955089       0.25366110       0.07437023      -0.16035259       2.90898943       0.31490155      -0.04039769
I        2.43229213      15.41779374       2.77715085       0.30793989       0.16743105      -0.14895735      -2.06874546      -0.47564599       0.87547740
I        6.79376533      14.54560641       0.66969070      -0.38622818      -0.78299337      -0.09699524       0.21357288       0.35118547      -1.78928463
I        1.20565608      11.89362673       3.95206093      -0.23633409      -0.26851299       0.05130097       1.87615996      -0.36552979      -1.54211367
H        1.56103126      10.00569842       8.65828376      -0.26369036       0.72942256      -0.28694284       0.14867013      -0.04224661       0.12906412
H        5.95157140      15.28843017       5.26896902      -0.68022284      -0.09536367       0.20377819       0.09579294       0.11825226      -0.02055835
H        0.53375748      11.20134848       7.73392368      -0.77367622       0.81708764      -0.01000900       0.15485125      -0.35589339       0.14936642
H        7.16874013      13.60952865       4.73383412      -0.57985981       0.20007792      -0.14936716      -0.06717450       0.00220607       0.02254389
H        2.34581861      10.92226056       7.46589849       0.77098134       0.18044478      -1.86603533      -0.13854418      -0.02831125       0.21137169
H        7.01395586      15.06291139       3.34795037      -0.21770969       0.87635187      -0.17190434       0.05101400      -0.00559432       0.00425865
H        2.95583217      11.76537774       9.54288935       0.42897762      -0.44208676       0.02466231       0.07875084      -0.00378480      -0.13955664
H        5.40727342      13.12997252       2.81913684       0.65808699      -0.54775842      -0.42573642       0.04129940      -0.00555061      -0.15775493
H        1.34582347      11.89450136      10.12359623       0.64024898       0.20344750      -1.04203961      -0.16563671       0.05081312      -0.12419253
H        4.27561605      13.80059143       3.81089559      -1.06832455       0.93223884      -0.17380167      -0.01707951      -0.05906481      -0.07073954
H        2.04647071      13.00824189       8.93257548      -0.28442777      -0.45051657       0.16409105      -0.32208987      -0.08449090       0.12866355
H        5.07353191      12.60205429       4.53628495       0.22779629      -0.86531297       0.10861929      -0.01387679       0.02199534       0.25549472
C        1.55087730      11.03384899       8.18252254      -0.01727060      -2.79528005       1.23278745       0.60648241      -0.55189607       0.48016198
C        6.37929736      14.42953105       4.34962385       1.33177512      -1.06858536      -0.22707577       0.40234519       0.28421957      -0.17703002
Pb       3.14630924       9.41064822       4.19890538      -0.27505782      -0.36575293       0.03145016       2.84751864       4.47403865      -2.63882272
Pb       6.89017978       9.39795181       4.02028040       0.47491348      -0.32415638       0.19688472       0.52115164       0.50998779       0.99792822
N        1.97677529      11.98420690       9.22331198      -0.35627806       1.83192603       1.79844439      -0.25076317      -0.64464257       1.33964842
N        5.21894458      13.40394689       3.85174133       0.34875888       0.76181438       1.09012061      -0.32956221      -0.70103555       0.14887813
I       14.68915491       3.13482069       2.23979380      -0.11841491       0.07147805       0.18325893       1.71801913      -2.57654025       0.26670773
I        8.90034673       8.11932727       1.75531487      -0.20958013      -0.10257179      -0.04436237       2.72266694       0.24953390       0.13072814
I       14.87172099       2.45065740       6.70306678       0.05413128       0.10674360       0.35051296      -0.64178176      -1.07368350      -1.07867386
I        8.78371859       7.56274715       6.08725318      -0.10029680       0.21698078      -0.23010096      -1.26320360      -1.95422667       0.74117797
I       12.78537374       6.63430157       4.10755359      -0.17545646      -0.17620475      -0.28674252       2.53392280      -0.86182156       1.74497203
I       11.10412825       3.81275149       8.77623626      -0.15387158       0.41448161       0.19721609      -0.99576133      -1.47449701      -2.34244809
H       11.10210785       3.78116082       4.57504114       0.93679879       0.61064270       0.10539113      -0.06164799      -0.20670636       0.22295665
H       14.35208177       7.01882378      15.96933114       0.51457891       0.00200827      -0.03875906      -0.16107047      -0.15783402      -0.03829766
H        9.47842742       3.10215098       4.90286739       0.18685137       0.10432703      -0.84806704      -0.09261131       0.06548796      -0.06483002
H       12.77365198       6.36235361      16.43571554       1.11522246       0.42287991       0.70924510      -0.06375210       0.01647473       0.20293268
H       10.26336476       2.76047302       3.21228312      -0.36112398       0.40251567      -0.17969497       0.32033911       0.05655717      -0.00547123
H       13.56644295       7.73436637      17.38679933      -0.14032071       0.43366364       0.43029548       0.08004684      -0.02994664      -0.17101342
H        8.68147960       4.69469045       2.84691415       0.25374628       0.03683790       0.45419709       0.01992201       0.03477054      -0.06206527
H       14.77548147       4.91647928      17.27548067      -0.36893038       1.10451945       0.30024300       0.03581024      -0.05308012      -0.10408521
H       10.24758907       5.41446702       2.73858071       0.22835374       0.20293589      -0.31279670       0.14884046       0.13102923      -0.01412176
H       13.73919145       5.54127045      18.51453147       0.01241023      -0.26740374       0.26127838       0.03241430       0.17002707       0.03728150
H        9.40861306       5.67017886       4.26335744      -0.04257994       0.57865844       0.34072305      -0.04824937       0.02597919       0.14137236
H       15.26717609       6.24924003      18.31995606       0.45317522       0.35611232      -0.23872611       0.13086468       0.14004970      -0.02159140
C       10.12863054       3.56547375       4.04195202      -0.62009388      -1.14340786       1.55300846       0.30967216       0.29868155      -0.53815836
C       13.74725060       6.81486990      16.85317607      -0.72935776      -1.35702758      -0.76139535       0.34947895      -0.09020151      -0.31563049
Pb      12.68840696      16.89616500       9.44002310       0.13071324      -0.35375447      -0.25444815       1.50886158      -0.94191947      -3.62877078
Pb       8.80362404      16.61766299       9.41077436       0.21193878       0.25923986       0.03701456      -1.51733607       0.80348065      -1.42957697
N        9.59158429       4.93656842       3.47102812      -0.71662225      -0.72950787      -0.76753193       0.53886839      -0.32625177       0.54169577
N       14.43793422       5.82391155      17.77126254      -0.97279261      -0.84162718      -0.58919116       1.54165951       0.36852481       0.04439991
I       13.12400919      10.63487674       6.17847186       0.01168333      -0.05785777      -0.16125061      -2.37643745      -0.78393683      -0.42427288
I       10.76065819      15.21050287       7.18695847       0.18920295       0.30381712       0.13473541       0.30865473      -3.20998039      -1.32964600
I       12.74459608      10.78098454       1.81595520      -0.16392609      -0.37115779       0.10252824       1.79863395       2.21582356       1.43280264
I       10.42476024      15.47877650       2.78873042      -0.33854955      -0.05490721       0.15857168      -2.43828665      -0.85393403       0.93473129
I       14.19001650      14.04866565       0.65557090       0.11055324       0.07035411      -0.12327643      -1.74791352       1.12880324      -0.11662965
I        9.05192304      11.90479462       3.89149045      -0.09867422      -0.13223101       0.00927675       2.18902417      -1.06104017       0.21282410
H        9.84499849      10.50789082       8.73396516      -0.26847037      -0.82965991       0.04565960      -0.15896631       0.00896629       0.00704546
H       13.42637545      15.03730089       5.70690699      -0.96838826       0.26728229       1.27114312       0.19290522      -0.18226932       0.22946589
H        9.13611995      11.99433629       7.97138491       0.55874015      -0.42096415       0.27481618       0.10706533      -0.00937403       0.07702371
H       14.90785079      14.34433658       5.17548742       0.02682345       0.39007521      -0.56672475       0.06815037      -0.08267850       0.04859634
H       10.58960409      11.22897749       7.27386954       0.43348667      -0.11032605      -0.28796630      -0.13499905       0.02159878      -0.06331620
H       14.05366046      15.75983262       4.20099080       0.18476240      -0.84836934       0.21983196      -0.08036289       0.05438674      -0.01973803
H       11.79514459      11.81337099       9.39016790       0.00544166      -0.53870103      -0.24304757      -0.09033087      -0.12672727      -0.15528522
H       13.58750371      13.70977722       3.02506279      -0.80970675       0.05747664       1.25579360      -0.18155447      -0.24319158      -0.19847750
H       10.40143448      12.35136948       9.98288207      -0.51290071       0.36677007       0.62004257       0.26540451       0.04776143       0.05184357
H       12.13934481      13.87936775       3.97341990      -0.62927372       0.94569639      -0.28969842      -0.27152332       0.09428971      -0.11456275
H       11.13349432      13.14288416       8.67938237      -0.33405289       0.43978446      -0.06743187       0.00942382       0.03166874      -0.01109143
H       13.29857812      12.80904163       4.52389484       0.09020842      -0.87315790       0.35289401      -0.21672394      -0.13162172       0.00712965
C       10.07578804      11.42291161       8.21018067      -1.33744124       0.30571110      -0.66150634      -0.48346809       0.23869291      -0.04819343
C       13.96562695      14.82115928       4.82552301       0.34103358      -0.27262624      -1.03560031      -0.25052320      -0.39678879       0.39207417
Pb      10.86972200       9.29179916       4.19120301       0.17563573      -0.01911307      -0.13377381      -0.66355389       2.45341406       5.03549844
Pb      14.76705483       9.07431634       3.73935387       0.34965226      -0.10445349       0.12743312       2.74178162       3.35468419       3.24245296
N       10.88280722      12.22340965       9.09471439       1.12158066       0.80656509       0.29515281       0.64698288       0.36349106      -0.26361165
N       13.19460564      13.74277888       4.05579630       1.98504333       0.05600543      -1.10686443       0.26906934      -0.37923119      -0.48195749
I        6.87743538       2.83665846      11.19458612       0.02084548      -0.02148736      -0.09122005       1.06931495      -4.48503040      -0.53052449
I        0.87293004       7.79183947      10.48404382       0.07103670      -0.18464291      -0.27144745      -3.25579539      -0.54282390      -1.17658191
I        6.82283348       3.02878280      15.85189898      -0.13220078      -0.04923241      -0.11684406       1.90472704       0.96835758      -1.43606352
I        1.71094453       7.45204186      14.80005368      -0.31377940       0.06807649      -0.05963535      -0.35120354       0.02916319       0.54017916
I        5.04617483       6.23241043      12.47226430       0.30970086       0.64761124      -0.01598247      -0.89584117      -0.50064643       0.48048583
I        2.65297361       4.13561508       1.09692963      -0.19107579      -0.34458663      -0.26442165      -1.73748126      -1.39230330       0.75587100
H        3.19169606       4.37228753      14.32789599       0.01842857       0.23429325      -0.30450680       0.04584371      -0.36851295       0.06225015
H        4.91918227       7.78312331       9.18695984       0.21494194      -0.27765803       0.03235851      -0.02675612       0.20546853       0.34480920
H        1.64417239       3.26247562      14.46635809      -0.22778097      -0.02726021      -0.30816608      -0.02678041       0.03393683       0.17322652
H        5.29455660       7.37073256       7.35701928       0.29090702       0.08500325      -0.52688306      -0.21808946       0.32138116      -0.03257517
H        3.09636019       2.73308059      13.17543877      -0.69732520       1.52609686       0.31819834      -0.12744340      -0.11959811       0.10941265
H        3.99852066       6.50620872       8.33663335      -0.40288006      -0.39484079      -0.05531073      -0.07324745       0.08995699       0.08037802
H        2.15187706       4.72351350      11.84055395       0.86166631      -0.15652229      -1.02014422       0.01817181      -0.01163857       0.18208220
H        7.13863372       6.10662844       8.97724519      -0.96998999       0.24847765      -0.63890664      -0.06397829       0.23927493       0.19719934
H        1.32639168       5.37361577      13.10722918       0.44132185       0.63680268       0.54237782      -0.06842351       0.01760146       0.23483719
H        6.16190239       5.00372135       8.10028047       0.04797483      -0.18881853      -0.18852184      -0.12441621      -0.16483082       0.14601283
H        0.77535301       4.01131413      12.45273017      -0.14297091      -0.49093323      -0.47098569      -0.15199959       0.22148128       0.17922184
H        5.94198493       5.36439344       9.81280133      -1.35411031      -0.04470164       1.41761360       0.16329155       0.04796170      -0.07838702
C        2.42892104       3.66335184      13.70772376       0.64125835      -0.86874516      -0.16482619       0.68286804       0.26285789      -0.63400240
C        4.98960284       6.95787379       8.38589970       1.11148241      -0.17045898       1.38694983       0.29437970       0.70462878       0.03635516
Pb       4.42024436      16.71090609       0.39125276      -0.22157582       0.36953183       0.43852715       0.31887900       1.56727603      -0.21028144
Pb       0.38907443      16.93604528       0.75476571       0.29463898      -0.00547492       0.02215922       0.57501599      -0.73321749      -0.07480382
N        1.66453738       4.48323019      12.68799843      -0.71360454      -0.74509734       1.67149789      -0.41110625       0.44625447       0.16844313
N        6.10700288       5.80524398       8.83640955       1.27953235       0.99824055      -1.30768543      -0.10184165      -0.56595437       0.19327491
I        5.21897946      10.30729698      14.68522874      -0.05528468       0.10965914       0.06590960      -1.16453192      -0.77767811      -0.03445976
I        2.66783958      15.33358089      15.93141806       0.23654457      -0.37192195      -0.32909394      -3.42308447      -0.47041621      -2.31039814
I        5.25328605      10.44029245      10.30255716      -0.17879152       0.05123191       0.19692517       1.29739644       1.07580734      -2.35655376
I        2.73669148      15.19207278      11.49241155       0.46875242       0.08033584      -0.31380739      -0.89607559       1.37585043       0.07670751
I        7.18976000      14.13126253       9.50567085      -0.38946902       0.11461805      -0.18698081      -0.72370970      -0.55731183      -0.67746494
I        1.23131684      11.67708576      12.83599940      -0.05989556      -0.36470030      -0.07853092       1.39505843      -1.51398717       0.63939814
H        1.54741531      10.12750914      17.54449264       0.28198799       0.93432316      -0.46783933       0.31678095       0.05407736      -0.07481686
H        5.58276490      14.49259041      14.65458084       0.69745801      -0.51752690      -0.70814540       0.01632027       0.11052831      -0.16939594
H        0.52422464      11.41835670      16.75583049       0.43926525       0.53842610       0.77723035      -0.05977608       0.12730445      -0.19244988
H        7.31078175      14.05126564      13.96746424      -0.23118278       0.24591484       0.37396123       0.08036941       0.11255248       0.04195751
H        2.08076371      11.05791858      16.02214954      -0.09739043      -0.29319820       0.50652057       0.31801050      -0.22764902       0.29270169
H        6.33356142      15.49443642      13.34169525       0.17078988      -1.14046052       0.66942388      -0.10357451       0.17515876      -0.09889049
H        3.29941677      11.71048988      18.18305772      -0.12650391      -0.58833210      -0.01175779       0.12080495      -0.02623920       0.31689108
H        6.39924497      13.60745207      11.84373152      -0.11494767       0.19187898      -0.55678220       0.07737576       0.08985256       0.18396163
H        1.84494294      12.38861556      18.68706255       0.09103955       0.08241719       0.33838086       0.11925685      -0.04920544       0.07163701
H        4.76181101      13.97194362      12.35185103       1.27659842      -0.43773596       0.00476848       0.25093499       0.14689942       0.08006881
H        2.66849775      12.99260187      17.31453821      -0.61732682      -0.65573183       0.24698316      -0.09779197      -0.09418826      -0.00298729
H        5.58177065      12.65732702      12.83706932      -0.36125205      -2.75519996       1.70345943       0.11323204      -0.02894502       0.04385758
C        1.57548420      11.13066694      17.01364197       0.58255008      -1.20769845      -0.59096052       0.07192560      -0.55243346      -0.22657793
C        6.29479007      14.43558155      13.77507245      -0.29169052       1.56128607      -0.20926075      -0.74332179       0.24122607      -0.45151257
Pb       3.33609572       8.90287944      12.44086997       0.28989029       0.06989101       0.06305697       0.24658760      -2.62027748      -3.77270249
Pb       7.34019107       8.99236199      12.75926260      -0.47033488      -0.15065991      -0.77966727      -0.88827985      -1.55101817      -1.56003150
N        2.39120657      12.09358614      17.84671310      -0.67401593       1.33767853      -0.93198172      -0.31800870       0.87482398      -0.78076503
N        5.73153246      13.59235659      12.66148734      -1.14209609       2.67896231      -1.20259449      -0.21658605      -0.88696861      -0.63206532
I       15.14263687       3.02667437      11.05468225       0.02920377      -0.20846283       0.00028642      -1.55813858      -2.83827561       1.68809041
I        9.12471732       7.59704960      10.24733046      -0.01374674       0.08587988       0.37969997       1.38870642      -0.17999055       0.17059910
I       15.08139261       2.82175962      15.53256571      -0.10881307       0.21092527      -0.22826287      -2.65481039      -0.98619663      -1.23714556
I        9.15005911       7.80994310      14.70532775       0.10414049      -0.33777688       0.48511199      -1.12473156       2.74885378       2.07906707
I       12.81898996       6.43094445      12.59543831       0.27875435      -0.06360320       0.00098379       1.09985206       1.64020080       1.31235367
I       10.53032034       4.08019816       0.24003413       0.13562175       0.38953554      -0.11107310       0.66859218      -0.40353021      -0.42297280
H       11.11442372       3.77921036      13.46388423      -0.63498350      -0.46396619      -0.13367060      -0.10385019      -0.09708468      -0.03944760
H       14.50899332       6.72083353       7.22608302      -1.27424006      -0.54255420       1.69101822      -0.16537061       0.15096369       0.57161060
H        9.37674407       3.70390481      14.17801974      -0.07579684      -0.06569528      -0.44331604      -0.05873521      -0.12298639      -0.00118909
H       12.69653013       6.40068502       7.89025196       0.52008455      -0.15242386      -0.39513124      -0.15123566      -0.10187300      -0.24007086
H        9.75422415       2.68849759      12.63075363       0.04842459       0.22484447       0.53903629      -0.14180946       0.04068418      -0.22549695
H       13.75505583       7.57901691       8.63160303       0.09029227       0.94654863       0.44208851       0.04583846       0.02460242      -0.16474784
H        8.58749568       4.70291275      11.92198063       0.29936565      -0.12190082      -0.07953544      -0.33787990       0.02284956      -0.06037083
H       14.29419342       4.65901132       8.56871760       0.16503901       0.01686559       0.47670015       0.20064334      -0.17531470       0.07401826
H       10.22951291       5.10305972      11.56682446      -0.07336798      -0.19661046       0.32884491      -0.02873177      -0.29785793       0.03755762
H       13.63194556       5.40385707       9.91280768      -0.30364911      -0.00080730       0.38709874      -0.18006161       0.04179034      -0.00785182
H        9.50658802       5.69621122      12.91279561      -0.09951764       1.81552148       0.71946179      -0.02661843      -0.18675615      -0.25292842
H       15.22319144       5.72859512       9.50441110       0.90245476       0.73869013       0.16358216      -0.03710364      -0.10668274      -0.25959472
C        9.96062150       3.66476190      13.22700914       1.49891182      -0.28026478       0.26851462      -0.04002051       0.00445163      -0.56354851
C       13.77538114       6.63235480       8.13021463       0.76772770       0.03899006      -1.12829302      -0.78630080      -0.06822222       0.86815863
Pb      12.14317137      16.79224982       0.64852728       0.31233330      -0.04269610      -0.16108993       0.77588314      -1.40362600       0.10043397
Pb       8.43919691      16.98115656       0.55675157       0.11369824       0.25560143       0.12525932       2.83110406      -0.69766138      -0.89654817
N        9.57721891       4.87138660      12.36513986      -0.94056796      -0.89115004      -1.29445790       0.55238064       0.55256067      -0.06129729
N       14.26983019       5.56360883       9.11748314      -0.79925773      -1.10593287      -1.70811579      -0.05065452       0.80267589       0.40517270
I       13.15393856      10.73243366      14.66003280       0.09373673      -0.10247261      -0.17712372      -1.32421247       1.82727709      -3.59794821
I       10.84234487      15.25022662      15.74998394      -0.17642059      -0.03682746       0.00180289      -1.90390257       1.27113072       0.99604055
I       13.23379394      10.18314450      10.47969779       0.31721735       0.03761400      -0.17732675       0.54585708      -0.86115376      -0.32580066
I       10.85571760      15.24092406      11.53459269       0.11556711       0.15482925      -0.00560859       1.15736542      -3.06386460       0.01328443
I       14.86113381      14.14073473       9.44277863      -0.11039531       0.14921391      -0.18456888      -1.15580356       0.25446781      -1.26439485
I        9.14470402      11.66850290      12.27566344      -0.23326017      -0.06995978       0.18520877       1.79941157       1.36861424       2.17993493
H        8.84675067      10.57984251      17.21515133       0.44880904      -0.43504638       0.73877821       0.04581090      -0.19273720       0.08437821
H       14.18394029      14.37353465      15.00629853       0.18960172      -0.44783338      -0.74324273       0.12588048       0.01276735       0.33799595
H        8.50813837      12.20539308      16.53550692      -0.51345002       0.57646067      -0.23143466       0.14801078      -0.33057470      -0.10618281
H       15.73497523      14.29774066      13.80593619       0.28638704      -0.22650460       0.75617969       0.04058588       0.18200009      -0.03651987
H        9.96162170      11.24367102      15.90987100      -0.44744811      -0.12516429       0.01685684      -0.14853661       0.09321012      -0.13792412
H       14.68625522      15.80957344      13.84262714      -0.57631741       0.15134730      -0.30516693      -0.17562626      -0.13208945      -0.09828667
H       11.19892737      11.59849856      17.77666576       0.24741028       0.00764741       0.22269689       0.03360855      -0.10073305       0.14074333
H       14.63144940      14.31948188      11.76002994      -0.37352736      -0.20212566       0.47617165       0.10829063      -0.09907548       0.09859888
H       10.03510166      12.46914205      18.66160620      -0.36015170      -0.18124147      -0.07558619      -0.16763730       0.29770633       0.12643065
H       13.10528219      14.28930428      12.57883010      -0.99250731       0.08841572       0.00734788       0.29149087      -0.00422899       0.25618909
H       10.68546127      13.11522837      17.28914999      -0.03147804       1.06184728      -0.78154427       0.05714906       0.22241663      -0.11801057
H       14.09331835      12.82009699      12.78043785      -0.16867091       0.45355327      -0.01597435      -0.04355532      -0.06711724      -0.21647569
C        9.33380841      11.51427652      16.79644643       0.53455587       0.27335385      -1.05595820      -0.40100356      -0.00346927       0.31473879
C       14.65043861      14.65092515      13.95204710       0.76520100       0.05281620       0.43580943       0.00303183      -0.18589802      -0.56394641
Pb      11.19935982       9.15504093      12.60350279      -0.01460813       0.02824948      -0.19185415      -2.64374581       3.74029753      -0.96904642
Pb      15.20514997       8.76698558      12.69151698       0.20564773       0.17844233      -0.04074628      -2.94157878       2.13116551       1.37038559