768
Lattice="31.69945668710882 -0.05318654843770361 -0.36351599514761185 0.040002385871756 30.414649832433703 0.5117498230958147 0.4104475048070117 -0.22194636651643873 17.44856456336718" Properties=species:S:1:pos:R:3:forces:R:3:momenta:R:3 energy=-3336.0702670704313 stress="0.0 0.0 0.0 0.0 0.0 0.0 0.0 0.0 0.0" pbc="T T T"
I        6.52241314       2.85636081       2.90620079       0.04060505       0.00919887      -0.07003082       0.77016494      -0.33810970      -0.64709856
I        1.13980958       7.87686448       1.57453592       0.14520790       0.02511545       0.07740987       2.54162973       1.32838878      -0.48999392
I        6.77356027       3.00870720       7.24634077      -0.21241764      -0.06979585       0.08458170       0.19886535       0.05844697       0.19903878
I        1.02409836       7.58045113       5.84004706       0.27386772      -0.10650830       0.54839834      -1.82644372       1.30819823      -0.78523045
I        5.08812523       6.52270792       3.66669876       0.00833768       0.19345562       0.23339300       0.31527228      -0.48807632      -0.03339395
I        2.88797133       4.08411592       9.54822810      -0.07273190       0.04458924       0.03296852      -0.83036805       0.24450538      -1.39658887
H        3.34830554       4.30767520       5.40233530      -0.60029531      -0.24830043       0.10617649      -0.13606101       0.17520827       0.23604672
H        5.19974687       7.68080076      17.15113038       0.17658647       0.07735001       0.19256869       0.02458891       0.02845106      -0.06958251
H        1.65281476       3.77580044       6.00373917       0.42079544       0.07589197       0.00335620      -0.15766342       0.07233042       0.05220223
H        5.75200048       6.62815363      15.80861986       0.79399932       0.05633172      -0.96538013       0.09495359       0.06477406       0.11188868
H        2.56843608       2.77303123       4.79736361       0.11389734      -0.08538732      -0.12660169       0.09094393      -0.02315281      -0.17216194
H        4.45981695       5.97193883      16.94382832      -0.15321874       0.20139897      -0.30439405      -0.12655658       0.06586498      -0.05132317
H        2.42589970       4.78640210       3.25309506      -0.57678487      -0.01160892       0.71149434      -0.05368479       0.03840322      -0.12768768
H        7.28813793       6.52698250      17.92456995       0.12656226      -0.33705782      -0.00688244       0.04395532      -0.00772753       0.03986353
H        1.39680677       5.51800907       4.47377452      -0.17624602       0.00390654      -0.31938984       0.00606188      -0.15190283      -0.11278315
H        6.53789393       4.99115927      17.43928271       0.52872747       0.22817933       0.19632600      -0.13576168       0.14235425      -0.02570845
H        0.89173274       4.10850052       3.57312857      -0.46207010      -0.13859147       0.15112047      -0.17606216      -0.07458035      -0.01123589
H        6.00439207       5.82018134      18.78601050      -0.07371532       0.37637587       0.05634826      -0.00947340      -0.02084103      -0.14014132
C        2.38796879       3.79971385       5.15906277      -0.40349758       0.37522134      -0.18745550      -0.67212560       0.22819364       0.10496418
C        5.40818297       6.62917279      16.84637060      -1.10798975      -0.36734547       1.27548675       0.71511351      -0.18187474      -0.30679422
Pb       5.05162176      16.68307760       9.41749865      -0.35909044      -0.00365296       0.04125343      -0.82032968      -1.45670410      -0.33670750
Pb       0.96039606      16.86701785       9.55204128       0.24960540       0.04083161      -0.37330006       0.35789655       0.69470101       0.30859912
N        1.70211393       4.60418122       4.04144417       1.65153708      -0.00203798      -0.42809874      -0.15666078      -0.40380017       0.76180644
N        6.39386191       5.96210045      17.81887225      -0.16866637      -0.12497144      -0.52655391      -0.02164297       0.71065591       0.22742461
I        5.09763292      10.67622798       6.15469260      -0.06891134      -0.10825571      -0.08017622       1.28220872      -0.43233979      -0.62319733
I        3.14647184      15.34573605       7.24399379      -0.07449558      -0.00065996       0.17048535       1.35579016       2.92563490      -0.12706886
I        5.05941719      10.59455775       1.60438152      -0.03260776      -0.14783604       0.30202967      -2.44982988      -1.18300469      -0.60534223
I        2.94547071      15.42308240       2.77731907       0.09950482       0.03091433       0.18969295       1.27052791      -0.51027712       1.12172421
I        6.81021058      14.34043754       0.71681827       0.04161664      -0.06163838      -0.02847434       0.82699713      -0.32655105      -0.54675583
I        1.25533803      11.68157592       3.74253938      -0.08868073       0.05917407       0.15919540      -0.72476123       0.26231395      -0.69663945
H        1.46994417      10.33235280       8.99393677      -0.23616959       0.37768109       0.07151866       0.00716852      -0.14560193       0.07895960
H        6.30686916      15.10004325       5.92048723       0.32200330      -0.19089617      -0.20289485       0.11624776       0.21553681      -0.05018621
H        0.48719793      11.66414961       8.15815909      -0.28220965      -0.20520441      -0.01276485       0.18687519      -0.02598203       0.03556849
H        7.69017269      14.26063973       4.90866163       0.23793861       0.14819220       0.44226700       0.12888065       0.02505094      -0.01275262
H        2.05803036      11.09094499       7.47928260      -0.17311546       0.47315886       0.85794665       0.19236315       0.12379612      -0.07275012
H        6.77581897      15.63651782       4.18969527       0.20895331       0.45683585      -0.12228785       0.02985904       0.00959823      -0.00188920
H        3.08433753      12.10085323       9.55263806       0.42196082      -0.56428586       0.21761112       0.21983775       0.04577077       0.01662071
H        6.10655704      13.37354561       3.28180525      -0.66923570       0.29531804       1.24000931       0.19823537      -0.01077514       0.07427575
H        1.64763013      12.53637741      10.17431466      -0.49479229       0.06963291       0.32216178      -0.02384988      -0.28754151       0.06112284
H        4.77610769      14.18737190       3.99907661       0.64260795      -0.19575757       0.30779764      -0.08189418       0.09355509      -0.06272649
H        2.29616779      13.29023020       8.78574811      -0.54652422      -0.32049278       0.03009764       0.21444434      -0.04804354      -0.15160859
H        5.51145657      12.91521603       4.83574685      -0.18715591      -1.08759254       0.66162980       0.09251875       0.07466561       0.09907780
C        1.48089023      11.29300279       8.42639362       0.44185356      -0.16454492      -0.50896922       0.43160769       0.33153906      -0.47108307
C        6.71338722      14.77781809       4.90057924      -1.14871946      -1.03284548      -0.59230114       0.37230634       0.72081439       0.34066670
Pb       3.25015711       9.13241782       3.92150598       0.12204092       0.04980079      -0.24784815      -0.06989658      -1.27815876      -0.97809338
Pb       7.11918840       9.26124417       3.97146275      -0.05416861      -0.31018664      -0.21567086      -0.70030727      -1.09170248      -0.51591816
N        2.12268432      12.36971056       9.28642135       0.99305635       0.33538844      -0.93920786      -0.31563526      -0.15649714       0.08022843
N        5.70308036      13.73471861       4.25105159       0.61206536       1.55605371      -1.74569963       0.46136808      -0.17334376      -0.26555713
I       14.65617778       2.77523739       2.85764098      -0.14278656       0.13306316      -0.03657440       0.04573004       0.42323032      -2.75652897
I        8.95808173       7.75870138       1.71667827       0.07802954       0.30243850       0.22800159      -1.36086387       3.02323763       0.50769222
I       14.97229367       3.19565619       6.98434254      -0.21710726      -0.07771129       0.18004678       1.49868312      -2.87227090       0.43538704
I        8.95731430       7.82711780       6.09964460       0.24381731       0.07385006      -0.20717686      -0.14650019      -0.25174479      -0.47185559
I       12.89135351       6.62749852       3.68349409      -0.01533347       0.06947216       0.07103679      -0.73562023      -1.01519614      -0.54873589
I       10.80184065       4.18928749       9.01432375      -0.09532867      -0.06224600       0.12664429       0.80253164      -1.06432789       1.00672187
H       11.18533958       4.17601062       5.31795149       0.65852044       0.23653608      -0.22451181       0.03870413       0.04575169       0.10349195
H       14.18415349       6.99019884      15.88435785       0.20423689      -0.09731739      -0.43274230      -0.23192383      -0.02213732      -0.01386801
H        9.65647549       3.65678510       5.99061175      -0.00634915       0.18818185      -0.34728783      -0.15748399       0.01907391       0.09103213
H       12.54438138       6.66371209      16.54359119      -0.49620644      -0.45460940      -0.17413058      -0.00935497       0.05890387       0.01311984
H       10.31705494       2.73985828       4.64732195       0.27099518      -0.42731856      -0.55368190      -0.00131645       0.17032913      -0.20290243
H       13.54703191       7.93622594      17.22791595       0.19666927      -0.06233540       0.35075454       0.02985500       0.14363316      -0.07394506
H        8.56481805       4.19695886       3.87462241      -0.01991147       0.19871202       0.11741872      -0.05226881       0.15215793       0.07781360
H       14.27259759       4.91171873      17.35472006      -0.17548771       0.72168697      -0.18776437       0.01310109       0.20470720      -0.12737511
H        9.97025476       4.64979356       3.12899526      -0.09974993       0.32092806       0.46013161       0.11747598       0.01927266       0.09632407
H       13.76501438       5.92308233      18.65339819      -0.96349569      -0.15521910       0.19693772       0.12202350       0.04451985      -0.05883198
H        9.34450597       5.56793662       4.45542872      -0.03129327       0.95233772       0.26132941      -0.08532967       0.07842615       0.05014655
H       15.06951931       6.24500809      17.94310246       2.24898073       0.64232447       0.06746648      -0.09852240       0.02318151       0.35581744
C       10.24156677       3.73623173       5.05345759      -1.32208150       0.73832548       0.70436511      -0.17012305      -0.30479284      -0.63093103
C       13.57463873       6.93199895      16.77895620      -0.12050248       0.14150476      -0.07905730      -0.10110403      -0.17598493       0.05993979
Pb      12.85101562      16.85766337       9.20165680       0.01269260      -0.31208496      -0.12466766      -1.34161532      -1.11387380      -2.72249311
Pb       8.87702558      16.85398814       9.52394379       0.18680874      -0.12028142      -0.19927336       0.01847051       0.17016090      -0.23911367
N        9.48988106       4.64288952       4.07938441       0.54433722      -2.02975872      -0.41674118       0.34076753      -0.49325618      -0.50107547
N       14.18137300       5.92721323      17.69331201      -0.76277080      -0.65121496       0.29676728       0.35305788       0.13463938      -0.10282363
I       13.25605721      10.60011480       5.92993694      -0.11983627       0.12807212       0.14761284      -1.98073182      -0.68653019      -0.15806145
I       10.72834883      15.52409289       7.07141360       0.18620636       0.07084872       0.16579911       0.34134212       3.08791573       0.13438120
I       13.11130231      10.38500315       1.65088267      -0.07532832       0.32618970      -0.33034902      -0.96368824      -1.83561228      -1.40727629
I       10.91599552      15.32646680       2.74861499       0.21179435       0.19827189      -0.16856659       1.11894039       1.47598886       0.25210430
I       14.91709693      14.47446402       0.44021510      -0.05745111       0.14160660       0.04728595      -1.28151590       0.56860685      -1.73102891
I        8.99078899      11.79262753       3.78812528       0.07379025       0.10138148       0.05587282       1.28929452       0.63884721      -0.22683291
H        9.94492889      10.66512094       8.29856490       0.27828484      -0.07997767       0.05327724      -0.04013617       0.09766146       0.13413586
H       14.09555681      14.84011457       5.73751090      -0.24812349      -0.37802485      -0.62932454       0.28960178      -0.12658383      -0.03058290
H        8.71749636      12.10037565       8.17399765      -0.10026103       0.26377204       0.39703599       0.15370304      -0.06784535      -0.05757920
H       15.60222926      14.23647982       5.04100591      -0.25948210       0.22158306      -0.28892322       0.12247196      -0.07855388      -0.04008108
H       10.16416846      12.16727589       6.99788233       0.53971716      -0.48401983      -0.11111167      -0.01697755       0.00925601       0.00867766
H       14.65168976      15.54509023       4.22110057       0.24226244       0.66602768      -0.65119153       0.00769912      -0.23041588      -0.04152764
H       11.47611963      12.16990192       9.32884309       1.17612295      -1.12031653       0.56381612      -0.15968211       0.04171768       0.17651348
H       14.51543948      13.20346337       3.15650968       0.16034352       0.10914956      -0.38936206      -0.08869801       0.00840448      -0.02270386
H       10.06649982      12.65452678       9.98926052      -0.27120487      -0.01441205       0.72173318       0.07903983      -0.00213258      -0.12091193
H       13.04451000      14.00033827       3.50243105      -0.33135881       0.01099714      -0.08097191      -0.01752381      -0.06391872      -0.06604797
H       10.86503972      13.54306600       8.84294801      -0.60304606       0.55033287      -0.67510577       0.12294123       0.03194123       0.09521917
H       13.63759261      12.71247851       4.55733595       0.06196316       0.50371642      -0.24082455      -0.08863468      -0.09732195      -0.14840809
C        9.82326938      11.80443977       8.10194601      -0.43516515       0.40856932      -0.49231366      -0.46054762      -0.05072623       0.18265342
C       14.59490858      14.61712118       4.75835539       0.53184145      -0.47487506       1.39512387       0.54208703       0.59345801       0.31628629
Pb      11.13138403       9.36189591       3.87885694      -0.31824072      -0.50496850       0.10401601       0.00152821      -2.07285354       2.05655665
Pb      15.06088390       9.09579104       3.67811753       0.17302619      -0.15969450       0.23384569       2.81338878       1.72148789      -0.44399391
N       10.58944933      12.57692891       9.12364029      -0.70217958       0.32551582      -0.37497900       0.65358680      -0.81789538       0.44038481
N       13.90318455      13.57099441       3.94059195      -0.22414288      -0.53138723       0.81921570       0.44580331      -0.40676224      -0.21824516
I        6.64693918       2.60490462      11.69427010       0.11608841       0.14782533       0.12843308       1.36171408      -0.96291118       0.83752454
I        1.05647423       7.83769559      10.79260632       0.09890759      -0.26129437      -0.39728983      -2.18348996      -0.57956125      -0.74325937
I        6.88577742       2.86912425      16.06062086       0.00260398       0.02774392      -0.27430462      -0.54024073       1.01303200       0.75360184
I        1.46662533       7.57924029      14.94215114       0.10820046      -0.01318454      -0.12687042      -1.09330683      -0.94974357       0.46254296
I        5.29866023       6.45680958      12.69864866      -0.14573268       0.28491685      -0.00466079       0.27415953      -1.60964060      -1.71653026
I        2.77758896       4.11236622       0.47949940      -0.07864564      -0.03980862       0.11111378       0.98230171      -1.05978411      -0.06339762
H        4.06822276       4.17445535      14.51718390       0.19203971      -0.18504001       0.10111554      -0.01130704       0.17996632      -0.08344829
H        5.29374335       7.76171985       8.90852737      -0.00582460      -0.31825300       0.46294568       0.01602826      -0.14307183       0.05799221
H        2.62866794       3.46092886      15.33210492      -0.26975123      -0.04689998       0.34901483      -0.18200244       0.00702897      -0.18964046
H        6.53795674       7.27229428       7.64381227       0.00250113      -0.37972886      -0.23162208       0.16371257       0.05797342      -0.05101799
H        3.43012744       2.47358681      14.00470572      -0.08917536       0.93997960       0.58679646       0.13647709      -0.05883626       0.09744602
H        4.89399935       6.26005157       7.81863067      -0.03179800       0.00350036      -0.00598345      -0.02033014       0.12526902      -0.00856319
H        2.74227559       4.28446786      12.37267217      -0.43824971      -0.71764580       0.30871895      -0.08256320       0.01294969      -0.02767263
H        7.31827714       6.29618205       9.70299156      -0.16526401       0.15516762      -0.25318191      -0.05204693      -0.16965865       0.05688764
H        2.07800844       5.25443505      13.53122517       0.09895810      -0.70542054       0.38911832      -0.01491679       0.10790383      -0.05117199
H        6.57658625       4.98300975       8.90090577      -0.10036984       0.28645521       0.07108621       0.01969980      -0.01545224       0.12679194
H        1.33900875       3.70222888      13.25181925       0.63391195       0.19085267      -0.33018643       0.17536112      -0.06903778       0.12972603
H        5.81269059       5.81232020      10.20387980       0.09221200      -0.13622844      -0.26036049      -0.03548876      -0.05396053      -0.09820396
C        3.17263965       3.51519924      14.39917616       0.10321540      -0.18305988      -1.46730388      -0.14911571      -0.21164868       0.32508788
C        5.72292226       6.85240708       8.37139314       0.37084359       0.23368771      -0.15717735       0.39278701       0.24620405      -0.09835307
Pb       4.85433505      16.85796236       0.51516935      -0.12440711       0.12442002       0.22660154      -0.53654753       0.14957422       0.32112770
Pb       0.78990626      16.83432089       1.07230278      -0.06873801       0.29778932      -0.16819398      -0.19564126      -0.87040720      -0.14780893
N        2.28694572       4.19856328      13.32681797      -0.49112318       0.70508493      -0.14579081       0.15363722       0.48474835       0.23473075
N        6.40156487       5.92431171       9.33972343      -0.26793150       0.09020260       0.26971899      -0.54380576      -0.33058301       0.28097205
I        5.29571947      10.48150881      15.08924594      -0.04001267       0.09611266      -0.25119527       0.11251875      -0.81619513       0.06225242
I        3.03036918      15.30568583      16.13555940       0.02598634      -0.10293147      -0.21155223       1.81138182       1.15365427      -2.95372930
I        5.22365085      10.44940968      10.39851088      -0.07999140       0.10010287       0.15730300      -1.79249281       0.09072617       1.47545716
I        3.03078690      15.35968773      11.63721603       0.01811642      -0.02021518       0.00242909       0.35463083       0.55154594      -0.74955598
I        7.08584640      14.17041291       9.61232952      -0.00184191       0.07978222      -0.00068026       1.83771553      -0.03507122      -1.32091060
I        1.26179160      11.62580280      12.94170628       0.08571197       0.17311111      -0.09429710      -2.28595279      -1.23909425       0.23980067
H        1.49912940      10.19181434      17.18749074       0.09058044      -0.17448246       0.24714964       0.17872487       0.05233515       0.14664191
H        6.02606308      14.96080983      14.66882038      -0.02807128      -0.07757242       0.36408519      -0.12554665      -0.09693911      -0.03062946
H        0.69113231      11.78356797      16.74528821       0.63620137      -0.49020802       0.22809460      -0.11086232      -0.20130505      -0.19175510
H        7.51805760      13.73603481      14.30343603      -0.23617267       0.27034553      -0.09117337      -0.07063596       0.05231102      -0.03679533
H        2.16643065      11.25891097      15.89045599       0.13776142      -0.33190150      -0.40053259      -0.06134577       0.03656723      -0.07510272
H        7.18303843      15.32687862      13.19501529      -0.09413743      -0.68858037      -0.05063680       0.06978572      -0.00334651       0.00181316
H        3.42869118      11.59519297      18.02923639       0.17758286      -0.41933876      -0.22785929       0.08818908      -0.03619311      -0.20061884
H        6.26731287      13.42699113      12.11111616      -0.03748742      -0.27125991      -0.13164701      -0.16859718       0.22533745       0.07570406
H        2.01406173      12.01549641      18.75124997       0.29592292      -0.03333679      -0.35015689       0.13756908       0.03309305      -0.01157942
H        4.84397899      13.95408701      12.77848131       1.00962856      -0.11694197       0.47607719      -0.11278999      -0.07063137      -0.12276463
H        2.62834208      12.95165064      17.53050970       0.13251800       0.86409319      -0.64318763      -0.04078479      -0.14225252       0.05956207
H        5.62481210      12.57368711      13.42328992       0.26603780       0.54566472       0.31155874      -0.01082040      -0.03228741      -0.06530681
C        1.66563913      11.22416682      16.86103499      -0.97242947       0.65970507      -0.99074260       0.28012375       0.26365482      -0.74664675
C        6.71208352      14.46542232      13.86319006      -0.61919913      -0.49506100      -0.41521229       0.04225910      -0.58658532       0.37182359
Pb       3.43192634       9.27110408      12.73256154      -0.07562085      -0.41621460       0.18562748      -5.27993012      -0.05186823       0.33169585
Pb       7.27467154       9.17819172      12.74205535      -0.12769413      -0.36315342       0.02498188       0.72987491      -0.17170280       0.46606915
N        2.49192538      11.97966506      17.80292570      -0.47231250      -0.03503037       2.12381291       0.02308813       0.91667656       0.34675073
N        5.79963748      13.53513897      13.03132248      -0.26843740       0.81739069      -0.44915361       0.36549524       0.20750426      -0.19346037
I       14.58601056       3.07241666      11.38246577      -0.02956456      -0.12526568       0.01082379       1.88440869      -0.52874754       0.45262571
I        9.07729816       7.88291852      10.52809583       0.20931420       0.06996610      -0.10170368      -1.45472145      -0.51732236       0.73623229
I       14.98305129       3.05861056      15.83610282      -0.15159680      -0.02457194      -0.17930798       0.45521714       0.25081322      -0.26790450
I        9.25003817       7.46039666      14.76684987      -0.14518304       0.18402786       0.18913996      -0.25223042      -1.68776614      -0.40854694
I       13.23199920       6.62631530      12.41609408       0.05963054      -0.03948613       0.03847603      -0.48447094      -2.36049980       0.01757191
I       10.54047958       4.36726179       0.53059246      -0.03070540      -0.24575884       0.00395442      -1.33197143       1.53152150       1.93741751
H       11.30906956       4.31723200      13.46406814      -0.95253249       0.05102914      -0.37594298      -0.03898649      -0.09065691      -0.15594728
H       13.90988658       7.53250680       7.09541485      -0.13114892       0.04784162       0.56277713       0.01334927       0.02200710      -0.09124837
H        9.71582254       4.02604042      14.33727678      -0.24344584      -0.04639299       0.61770204      -0.09500164       0.00004011       0.16071102
H       12.46323859       6.64169225       7.72124581       0.05274291      -0.15593001       0.27858820      -0.00421749      -0.22226543      -0.04606017
H       10.18565174       2.94886485      12.98303012       0.01153545      -0.10464579      -0.21108184      -0.00454093       0.06718991       0.16352972
H       13.07333712       8.06551181       8.66892112      -0.00524101       0.36518602      -0.09100698      -0.04620296      -0.08921483       0.13074381
H        8.47154637       4.56602445      12.15594045       0.47222000      -0.21073172       0.51400276      -0.03141100       0.01139550      -0.05689831
H       14.53018931       5.41244104       8.44041462      -0.22978899      -0.14328779      -0.45316866       0.08569686      -0.20908705       0.09037932
H        9.94543474       5.04744091      11.52593097      -0.15257930      -0.12037188       0.36232210      -0.04777700      -0.04701904       0.05615258
H       13.93400213       6.15621864       9.81333291      -0.49335313      -0.04156204      -0.10883972       0.07587703       0.04354578      -0.01963031
H        9.37230533       5.79909515      12.92126548      -0.37547710       0.83058079       0.13523162       0.03654386       0.08229144       0.02063385
H       15.21096541       6.82565114       9.04780970      -0.76331238      -0.10698032      -0.52470304       0.05403726       0.01647429       0.21023339
C       10.22091770       3.98981762      13.37025940       0.07851206       0.17022661      -0.67785340       0.28204134      -0.02824548      -0.33009298
C       13.36663805       7.20462979       8.02954519       0.10505589      -0.12021461      -0.79245494      -0.17859928       0.05638486      -0.34656861
Pb      12.78542614      16.97184652       0.48843028       0.02755805      -0.09115839       0.25384728       1.09353929      -0.62351015      -2.01947647
Pb       8.81467834      16.86890722       0.62542678      -0.02259389       0.04822882       0.19900344      -0.78532505       2.53703362       1.62988438
N        9.43466156       4.89893607      12.43251240       1.25089415      -0.74851613      -0.39002502       0.51402021       0.50582644      -0.63703829
N       14.27714670       6.34222475       8.83241604       1.39200589       0.06292880       1.15454745      -0.47404634      -0.17960540      -0.52666216
I       13.29595671      10.88720157      14.66587051      -0.01720841      -0.15939890       0.12655362      -1.00300709      -0.12209251      -2.60535170
I       11.13746647      15.25698718      15.96270368       0.09232847      -0.08584370      -0.26353323       0.64704549      -0.66369730      -2.45874554
I       13.13425745      10.53858387      10.59832672      -0.01506422      -0.04967742      -0.11804928       0.51293802      -0.96906438      -0.71702908
I       11.04239932      15.53872113      11.57272932       0.05513080      -0.14672105       0.04702186      -0.39481262      -1.55493587      -4.57722452
I       14.83872401      14.01010302       8.92745930      -0.00895845       0.32785268      -0.02028984       1.05814472      -2.04873670      -0.33074766
I        9.16848320      11.52004662      12.60953064       0.09524961       0.52215960       0.01301306      -0.86015350      -1.18929988       1.57477229
H        9.94343620      10.27431636      17.52079650      -0.28880951       0.20225499       0.21652681       0.09886379      -0.15454508      -0.10560754
H       14.32718156      14.45371476      14.59788750      -0.67076304       0.03997070       1.12314297      -0.26582849      -0.03151526      -0.20873078
H        8.82589822      11.73513942      17.16250178      -0.37437716       0.08778240       0.07703879       0.07584736      -0.01177862       0.15858270
H       15.85544946      14.09288118      13.76770226       0.55901639      -0.64724830       0.12901396       0.19569626       0.04712571      -0.01375335
H       10.22008799      11.29331746      16.06059921       0.19382927       0.17276086      -0.31511788      -0.11682132      -0.17862011       0.04891982
H       14.96785624      15.58526369      13.35611435      -0.10616466      -0.51195488       0.33239957       0.09352956      -0.06814257      -0.03975244
H       11.76377670      11.80108890      18.06747536      -0.14010434      -0.16974611      -0.19203846       0.08170469      -0.19116828       0.09305027
H       14.59097679      13.55255200      11.75597515       0.59744047       0.35611484      -0.71728246      -0.22840206      -0.08264780      -0.10202891
H       10.44070758      12.40207413      18.89095456      -0.15380221      -0.01373703       0.04432916       0.07460963      -0.16671702      -0.18508247
H       13.13090531      14.12868499      12.34689840       0.75309431       0.40811059       0.30141178       0.08548105      -0.10349058      -0.04607223
H       10.92838323      13.11330566      17.39977821       0.02582251      -0.04941089       0.31056316       0.07771432       0.05851648      -0.02123003
H       13.90688749      12.83840312      13.05297919      -0.15397139      -0.10433199      -0.27639429       0.08239657       0.03620343      -0.04540524
C        9.85579686      11.31753055      17.11568144       0.98496788      -0.34062171       0.50536941       0.36540195      -0.49526927       0.38408885
C       14.86784930      14.51001251      13.68408600      -0.37882922       1.63018858      -2.29686464       0.90874432      -0.71760539       0.42454836
Pb      11.25525725       9.09047891      12.88061244       0.23971418       0.10636341      -0.26695757      -1.96280146      -1.08520330       2.52008461
Pb      15.37166820       9.16019383      12.53887493      -0.43862619       0.11752118       0.06437214       1.73723191      -2.46274947       0.48379604