768
Lattice="31.69945668710882 -0.05318654843770361 -0.36351599514761185 0.040002385871756 30.414649832433703 0.5117498230958147 0.4104475048070117 -0.22194636651643873 17.44856456336718" Properties=species:S:1:pos:R:3:forces:R:3:momenta:R:3 energy=-3291.8442923994703 stress="0.0 0.0 0.0 0.0 0.0 0.0 0.0 0.0 0.0" pbc="T T T"
I        6.70989349       2.89554100       2.87177127      -0.18895818      -0.00778641       0.21315594       0.01454222      -1.42358695      -3.08650912
I        0.61716221       7.61986276       1.61583421       0.42334357      -0.08516353      -0.09567424       1.66739696      -0.74626281      -1.34155052
I        6.75837971       2.02930081       6.71369722       0.03223292       0.10146820       0.22263102      -0.68576695      -2.09296590       4.25956325
I        1.51670052       7.45886249       6.12953542       0.03561518       0.32237301      -0.02290885       1.69013028       0.01732368      -1.57155555
I        5.32227705       6.75174702       3.65148027      -0.14893059      -0.52829603      -0.09837189       4.16508331       2.78508886       1.94725207
I        2.54934382       3.16672586       9.38261228       0.54259694       0.25680189      -0.03905459      -0.63539673       2.36641124       0.71611925
H        3.36966733       5.13658072       5.09251805      -0.09569123      -1.02383952      -0.20095433      -0.21335869       0.21622566       0.27206568
H        5.26603344       7.50547985      17.39915135      -1.32976128       2.36019247       0.51108539      -0.42318930      -0.16313357      -0.09622719
H        2.11568511       4.30797517       6.20385631       0.07551202      -0.32630184       0.00648652      -0.02140519      -0.12909276      -0.04217175
H        4.95280489       6.79201519      15.52037868       0.35057281      -0.68331160       0.16315800       0.09069447       0.16674712      -0.27057129
H        2.59562937       3.38277645       4.74864745       1.16260993      -2.24177140      -0.35960170      -0.03456368      -0.29479301      -0.00588322
H        3.88946371       6.04593057      17.27297889       0.18272202       0.84825955      -0.16343837       0.26805379      -0.17942346       0.54353838
H        1.81678843       4.99634503       3.30289892       0.80664079       0.64880252      -1.14012442      -0.12803957      -0.00163385       0.02405777
H        7.18499597       6.37050458      17.36299600      -0.15688755       0.01174874       0.03277115       0.10626201       0.16908842      -0.05015920
H        0.95065734       5.72330733       4.51951616      -0.01234889       2.61280256       1.19524257       0.11279575       0.00435232       0.12562744
H        6.43687034       4.88582749      17.06074298       0.04401345      -0.61491512      -1.07136148       0.09795533       0.13189102       0.23813262
H        0.68207173       4.18983959       3.97101113      -2.41160163      -1.22194065      -0.15270186      -0.11325730      -0.25883521       0.13379206
H        6.09377421       5.51987471      18.54050512       0.48543922       0.98844926      -1.37918071      -0.22490966      -0.11216313       0.13378697
C        2.48411604       4.32890196       5.13290473      -0.16385799       1.80824739       1.85888473      -1.19356447       0.34278929       1.04235462
C        4.97906919       6.61407887      16.81353688      -0.11901695      -2.14955905      -0.19301161       0.83078940      -0.50685878      -0.11901767
Pb       4.49967580      16.25049868       9.31792047       0.49185154      -0.01407337       0.11924946      -5.01217592      -0.02869079      -1.72441464
Pb       0.55723584      16.30621481       9.30695569       0.04149747       0.43595652       0.13911606       2.78716324      -1.83000879      -2.97385668
N        1.41152965       4.86504827       4.21474230       0.77982067      -0.65216581      -1.20597763      -0.50715964      -0.12143116      -0.88081545
N        6.23613381       5.83243482      17.41354072       0.59386845      -0.86942880       2.13735981       0.31349890      -0.99056607      -0.98875173
I        4.58296237      10.44122145       5.86988994       0.57583116      -0.02076335      -0.33197000      -3.94870581      -1.94176697       0.01844886
I        2.89518474      14.96936390       7.13994766      -0.48343644       0.09216081      -0.64687114      -1.91725859      -1.71885668       0.33087107
I        5.02126884      10.12835575       1.16352421       0.18787390       0.17199372       0.09830286      -1.34632239       1.99793390       1.24466918
I        2.66067781      14.93616336       2.57637906       0.46305513       0.18010762      -0.11404958       0.60215146      -0.22208935      -2.51117338
I        6.61199479      14.10883473       0.43015942      -0.04613220      -0.21314641      -0.05643095      -4.88723461      -0.50752291       3.87376530
I        0.92733043      11.59538840       3.87622831       0.06068231      -0.34133860      -0.03685256       0.00795501      -1.87102476       1.49987774
H        1.32011045      10.25684296       8.92491559      -0.01159516       0.95701978       0.59086027       0.09667423       0.05358251      -0.26029464
H        5.79634917      15.04925284       5.71544279      -0.56504440      -0.44025189       1.00306262      -0.00495019       0.16282359       0.37630041
H        0.61611944      11.60171687       7.65893537       0.90574985      -0.91133676       0.19473567       0.12154624      -0.12705667      -0.18440898
H        7.50811616      14.61689201       5.35372631       0.52967467      -0.63849407      -0.23528264      -0.35141307       0.14752838      -0.23432251
H        2.24371703      10.54611057       7.34646868      -0.51337512       0.69633393       0.89486589       0.07507428       0.21930151      -0.00205196
H        6.33996093      15.68297538       4.27441076       0.44366222      -0.05465165      -0.65453786       0.10983164       0.49716558       0.19301821
H        3.26953213      12.45587857       9.15068971      -0.51292971      -0.82935558       0.07220984       0.16583434       0.19438067      -0.07694077
H        6.79055955      13.09601494       3.45683285      -1.30150602      -0.34078303       0.51441866       0.22728255       0.17384794      -0.21989604
H        1.60022722      12.59943392       9.63782446      -0.22712447       0.18077524       1.66040199       0.17931730       0.20271378      -0.06471737
H        5.07897010      13.86615747       3.45784177      -0.27149141      -0.30392756       0.05698589      -0.02986471       0.30297083       0.03310085
H        2.01422431      13.41396447       8.19508870      -0.35451419      -2.48065537       0.73077394       0.00793292      -0.27851233       0.15283877
H        5.71056300      12.74376017       4.89953212      -0.69480183      -1.17332695      -0.08798825      -0.09607003      -0.05403901       0.03715883
C        1.55125169      11.12199569       8.19350249      -0.02041611      -0.32539098      -1.86803109       0.55616410      -0.89340869       1.20946739
C        6.46380672      14.75084148       4.90339064      -1.30319102       1.03123413      -0.19333485      -0.42312837      -0.15143713      -0.63815844
Pb       3.21294192       9.00246023       3.54538240      -0.53858601       0.25644733       0.25054036      -1.76051968       1.13349423      -3.56570278
Pb       7.15545962       9.14018713       3.47754249       0.15761572       0.21368640       0.63660374      -4.34165779       3.12870367       1.21690972
N        2.16564910      12.41679512       8.84405445       0.61362853       2.24676188      -2.11109423      -0.36910665      -0.33778448      -0.36290058
N        5.90151415      13.48726735       4.12036236       2.93995124       1.88703909      -0.54302892      -1.63984508      -0.48472224       0.29321994
I       14.18690115       2.02445409       2.84325655       0.01791022       0.30260262       0.23760356      -1.49181703      -2.53136674      -2.55037778
I        8.95371489       7.50061234       1.65013269      -0.09461988      -0.08058543      -0.69400883       0.05132149      -1.25820147      -2.79038476
I       14.71725282       2.63641483       7.36894361      -0.26986817       0.43767495      -0.66207358       1.72698290       2.50885045      -0.05274775
I        9.01361453       7.12049789       5.39655147      -0.04546311       0.34116506       0.15592194       0.56882340       0.75018028       0.58534145
I       12.90572006       6.11716568       3.43427630      -0.14430943      -0.18107236       0.31103191       2.78823569      -0.09372150       1.16195599
I       10.64610489       3.46741315       8.82663582      -0.14432647       0.42895544       0.08730270       1.10921895      -0.86323580      -2.22146847
H       11.11459638       3.59933477       5.12487234       0.49970157      -0.54564677      -0.33743304      -0.01745233       0.04427980       0.05246809
H       13.66278720       5.81579775      15.43981433      -0.09065256       0.05557136       0.54748424      -0.33912871      -0.08485676      -0.20482925
H        9.35377044       3.56229792       5.49774623      -0.81600929      -0.23416976      -0.60774470      -0.06156519       0.34566265       0.18959870
H       12.35775789       5.32153264      16.94670494       2.02331686       0.69274161       0.26188360      -0.33128272      -0.18557746       0.19930305
H       10.05393322       2.31960249       4.16205298       0.01899751       1.30551560       1.25073729      -0.00427310      -0.08453597       0.41300743
H       13.06999665       7.34370725      16.58751936      -0.00049838       1.60136119       0.02073707       0.28700049       0.28762133       0.34053318
H        8.96680947       4.24062701       2.92114077       1.55220975       0.87635418      -0.12999957       0.05451092       0.12055796       0.26384876
H       14.76245008       4.82372390      18.16276043      -0.06038481       1.41385281       0.51891117      -0.44176440      -0.21331976      -0.04883182
H       10.86305463       4.41636772       2.67126737      -0.97753175      -0.25397636       0.92130058      -0.13211825      -0.31340401      -0.33093929
H       14.20770686       6.40057994      19.15294568       0.35611813       0.26625626      -0.09872742      -0.16258304      -0.05479906      -0.19830204
H        9.80128769       5.54102007       3.70094868       0.58010607      -1.42458578      -0.30932625       0.24586924       0.01024489      -0.28439986
H       15.34053735       6.85784475      17.72670543       2.60115074       0.53744726       1.22141327      -0.12487381       0.27875342       0.02324621
C       10.09756017       3.37934754       4.63697321       1.13329126       0.07987305      -0.61070465       0.47911525       0.18929683      -0.51215804
C       13.34791082       6.17532445      16.60787029      -1.66141101      -2.35437356       0.02464872      -0.13378765       0.08696148       0.16223587
Pb      12.92486516      16.72527856       9.16456766      -0.22289469       0.01219959       0.16138759       1.75069558      -2.37327110      -5.02935746
Pb       8.63662360      16.45310248       9.31497567       0.23824338       0.17734450       0.07048629      -5.11026397       0.58399102       1.82492359
N        9.96069002       4.48356075       3.40625140      -2.00322605       0.05341052      -0.24458326       0.51255450       0.81190751      -0.28136537
N       14.52694156       6.05985270      18.03769585      -3.09956619      -2.51177905      -3.13416446       0.34747593       0.58951120      -1.04945232
I       12.66075634      10.47623817       5.72883955       0.31128307      -0.27120421       0.29029739       5.41852498      -1.90776670      -4.32919363
I       10.72661734      15.12646107       7.34147694       0.32860847      -0.02442538      -0.48930137       5.00427866      -7.17464742       4.89706108
I       13.03426764      10.25979185       1.36245039       0.20779326      -0.17700754      -0.14454616       0.86084636      -4.73114835       2.57223342
I       10.41525825      16.01869417       2.84650599       0.02727080      -0.49868273      -0.12519801       1.48273599       3.05509833       1.80796971
I       14.32442570      14.04777168       0.07067633       0.01027591      -0.16096825       0.32739209       4.88136448       5.02703970       5.46175224
I        9.32709517      11.71441011       3.85996725      -0.00963831      -0.15605442      -0.31125674       2.38675029       3.73474004       3.47797819
H        9.91972800       9.95352443       8.70641756      -0.25015952       1.23426276      -0.65996113       0.04123948      -0.19960838      -0.09237737
H       12.71877408      14.64427468       5.41308582       1.46199737      -0.48114300      -1.07539832      -0.13628134      -0.20779552      -0.30431485
H        8.84992786      11.33364746       7.77907227       1.83059144      -1.29943624       0.40829078       0.17639697      -0.09685120      -0.14816062
H       14.62481021      14.22061732       5.03763531      -0.82520435       0.47998847      -0.15954927       0.15703624      -0.25929054       0.01938489
H       10.60449229      10.85037083       7.19697318      -1.15932702      -0.14794256       1.30902349      -0.22232781      -0.17448481       0.28620813
H       13.41871491      15.40091556       4.00344867       0.70272689      -0.16893138      -0.28273937       0.18942144      -0.13629245      -0.11686869
H       11.42588591      11.52610490       9.54875815      -3.41656565       1.21987501      -0.32320127       0.41947193      -0.25920564      -0.59906918
H       13.77131499      12.99610686       2.92922348      -0.84093103       0.62431279       1.56293069      -0.13291290      -0.11786030       0.11593316
H        9.76021346      12.49272536       9.64996644       0.03066791      -0.26755581       1.01077458       0.60442734      -0.05819371       0.57391522
H       12.16783555      13.59540118       3.15733144       0.33107756      -1.07932379       1.03189875      -0.28127356       0.15902456      -0.33419369
H       11.00989870      12.85625896       8.39071952      -0.88971659      -0.69109755      -0.17853883      -0.14712611      -0.01841584       0.06200184
H       13.12590630      12.32980931       4.18809942      -1.55308080      -1.20255992       1.33920195       0.05998881       0.47579642       0.05280187
C        9.90287759      10.93739079       8.10867624      -0.56440677       0.63390266      -1.58496798       0.10344251       0.10141742       1.08543251
C       13.56482465      14.44335523       4.59850504      -1.80605430      -0.01118385       1.85170146      -1.44720209       1.09231378       0.02214322
Pb      11.23614715       8.90910112       3.50629755      -0.65200157       0.26274656       0.27538970       1.60550660       2.96391730      -2.12554124
Pb      14.92774799       8.52027776       3.86968706       0.40883689       0.62975490       0.06697234       2.34204515       3.49544917       0.85763448
N       10.50773528      12.01698073       8.97042146       4.39688819      -0.57326799      -0.08302510      -0.61249904       0.35895924      -0.79071941
N       13.05175476      13.24246434       3.74890422       2.54123311       1.98795410      -4.44182548       1.22327181      -1.18898669       0.62479387
I        7.01534083       2.93851159      11.13269553      -0.26651062      -0.39605810       0.01846231       1.37845348      -0.17134769      -0.26305836
I        0.95467789       6.88178919      10.36737518       0.19415722       0.36936891       0.32450740       1.28738245      -0.60104597       0.41636166
I        6.99530219       2.28204930      16.51717198      -0.16624823       0.00365037      -0.59047118      -3.77443998      -3.20361151       0.13311754
I        1.18132640       7.32593151      14.72916036      -0.00982664      -0.38241018       0.19948799       1.25967240       0.60059061      -3.34978003
I        5.26774754       6.19652987      11.96944958      -0.09616339      -0.45465140      -0.01257951       0.10143215       1.72018535      -5.92438366
I        2.48591793       3.64374054       1.09494649       0.18378500       0.19388690      -0.16892527       4.85003383      -1.66907964       1.29618090
H        3.93198874       3.86110371      13.61772911      -1.97328362      -1.14979423      -0.05158649       0.10331838       0.18398046      -0.43665120
H        5.80316169       7.33265993       7.37670218      -0.83806256      -0.40904772      -0.25309013       0.37988578       0.28951474       0.11955532
H        2.63125020       3.24924806      14.99513946       0.17692594      -0.74495581       0.06091492       0.34712324       0.11388673       0.00993554
H        5.54235705       5.38547213       6.08680708      -0.85169962      -0.09729631       1.32906183       0.19529647       0.01929162       0.04863157
H        3.00165647       2.27876320      13.37622603      -0.30269025      -1.76413003      -0.60459996       0.11270960      -0.03553497       0.29331926
H        4.28273403       5.42307026       7.95669444       0.11257029       1.20540065       0.53999917      -0.30048140      -0.01772741       0.00431724
H        1.94173870       4.38486268      12.15571172       0.78343158       0.36879552      -0.99605121      -0.06802018       0.20408560      -0.40254778
H        7.71992398       5.74193313       7.89613918      -0.75112017       0.40169026      -0.20190398      -0.36666850      -0.08093666       0.15184953
H        1.32606990       4.89478817      13.78454277       0.77758208      -1.65957622      -1.40184583       0.03957564      -0.25658580       0.11335057
H        6.04018891       4.32831884       8.64694752       0.53578720      -2.57050152      -1.39594138      -0.34210631      -0.06518052      -0.19494389
H        0.79908097       3.36648929      13.06232840       1.39871651       0.68191457       0.05304375      -0.05247075       0.30957251       0.21204204
H        6.59739773       6.12086135       9.94993672      -0.37852247       0.37153008      -0.91876315      -0.16028880      -0.32593125       0.07139287
C        2.87373435       3.19232747      13.84348061       2.05636989       4.58213419       0.39133091       0.68227395      -0.51858514       0.39540259
C        5.39280944       5.98958163       7.44358639       0.85945011       0.14033525      -1.84653185      -1.50648815      -1.39135976       0.33057137
Pb       4.18344602      16.54914002       0.10034845       0.12246779      -0.34163406      -0.09566305      -0.06712235       1.07621423       5.06137881
Pb       0.76483347      16.84311882       0.64508818      -1.10445572      -0.29737104       0.01486718       2.75930389       1.77357417      -1.36377242
N        1.71220639       4.03197996      13.11797326      -2.95585197      -0.14845847       2.50524336       0.44497769       0.04294197       0.44161005
N        6.44997275       5.53410270       8.50593443       1.26471019       1.10539771       2.99574526       0.50073344      -0.31240924      -0.45832581
I        5.20688104      10.15212615      14.27974384       0.02375182      -0.05786532       0.12597615       2.99740624      -1.34973820       0.19421677
I        2.32585367      14.56605078      15.65304074       0.22920412       0.02432587       0.07188074       3.32811288      -2.99356359       0.35513019
I        4.56861272      10.00129562      10.15331923       0.68322570       0.05745826      -0.31650728       2.57436542       3.96295870      -0.94087031
I        2.59038034      14.23474027      11.09871989      -0.12643633       0.45979958       0.27897966      -1.03754579      -1.65616361      -0.15988979
I        6.96516898      13.80905009       9.36348043      -0.13140889      -0.15758182      -0.11410093       0.25708138       3.05914348       5.18763054
I        0.92594429      10.98263187      12.13987178      -0.28671799      -0.13124122       0.24002943      -1.03314171      -2.83194079      -0.30046696
H        2.15815887       9.38761798      17.04411938       0.09421135       1.46654790      -1.51851394      -0.30368615      -0.01671315       0.06163097
H        5.91093746      13.60792069      14.87370498       0.75241791       0.42787824      -0.71690331       0.05376071      -0.01527051       0.09663301
H        0.54769376      10.85031304      17.27543118      -1.07179312      -0.64325970      -0.86531224      -0.45787349       0.20373076       0.04541870
H        7.41417578      13.70324069      13.58356035       1.04260265      -0.55687785       0.14322357      -0.29000304      -0.07773785      -0.31121697
H        1.83059204      11.10876017      15.54481072       1.90202762       0.02361761      -1.11272003      -0.00159425      -0.60017059       0.04306717
H        6.18627484      15.22954748      13.61378323      -0.28521225      -0.49866266       0.25720590       0.11424318      -0.20569165       0.24494522
H        3.39082185      11.17933054      17.95643317      -1.08523654       0.48037951       0.02669702      -0.40181175      -0.17540376      -0.31860261
H        5.73618454      13.57168035      11.60460572       0.90303469      -0.18267080      -0.02850249      -0.03540955       0.26638899      -0.07124051
H        1.84011283      11.12491915      18.81847568      -0.68856861       1.05416161       1.26813209      -0.21147715       0.22519832      -0.14650207
H        4.52738205      13.73523491      12.70859962      -1.23426948       0.60222120       0.11019046       0.19074490      -0.03756133      -0.34085856
H        2.39116455      12.53501479      17.58988931      -1.19803744      -1.36771622       1.38698578       0.44837168      -0.33881393       0.01783293
H        5.38395083      12.18602782      12.78016593       0.77668385       1.48089369       0.02683754      -0.07940871       0.19873983      -0.15748415
C        1.74842960      10.59571686      16.75917377      -2.53500265      -0.20229750       4.32716264      -0.56315241      -0.52516863       1.11801025
C        6.34525847      14.04344876      13.76941675      -2.25744191      -0.53663200       0.05636183       0.57494571       0.47249593      -0.23099326
Pb       3.29273265       8.76506046      12.29223521      -0.70516735      -0.12417237       0.06881585      -1.01472303       3.20122618      -2.25049967
Pb       7.27424238       8.44188060      12.07039278       0.17315734       0.63188490       0.18196287       2.85291719       4.62348904      -0.40752927
N        2.32227802      11.46749083      17.89171032       4.30233214      -0.34719495      -3.63471227       0.70011132       1.39621091      -1.96933146
N        5.48643762      13.33244937      12.69630056       0.61066847      -0.92145110       0.14749575       2.68831593      -0.11353129      -0.74145508
I       15.13336909       2.19146727      11.36987400      -0.65468498       0.23096086       0.30997298       0.20835168       1.50571835      -0.30209828
I        9.19043698       7.75008494       9.82530801       0.39958230      -0.26780143       0.23193790       5.16641743       2.84122713      -4.39042291
I       14.93621386       2.69558851      16.09378549      -0.06882936      -0.06515154       0.11305816      -0.98686438      -3.71716076       0.02655180
I        9.00420718       7.31181819      14.70875348       0.07172346       0.30177911      -0.60478708       4.05288080      -1.65896664      -0.98755048
I       13.03627221       6.32686968      12.12648566       0.24308934       0.38737893       0.46912651      -0.10670372       0.49756114      -0.52448707
I       11.10130029       3.39099054      -0.08251106      -0.35228826       0.15814601       0.35662672      -3.54033687      -4.97189192      -0.39245029
H       11.03601533       3.37887616      13.19032324      -0.68080376      -0.68005460       0.15475552       0.16534569       0.46782163       0.10376736
H       13.03668583       5.61728572       6.61634985       0.18820428      -0.25531172       0.99039267       0.02248046      -0.00187471       0.09674458
H        9.18373854       3.02665360      13.58318588       1.13688449      -0.50720999      -1.71561171      -0.41097512      -0.45730636      -0.14183289
H       11.76123562       5.58756782       8.31910428      -1.42958557      -0.36459357      -0.75827654      -0.15276742       0.10372085      -0.16602490
H        9.85780400       2.52236216      11.66659889      -0.31030138       0.99674389       1.80884683       0.05504166      -0.21335503       0.42227918
H       12.72935313       7.47153351       7.66829262       0.12279373       1.99046314       0.78677788      -0.03041787       0.13720000      -0.07396485
H        8.64841123       4.59152451      11.94393549      -2.91303862      -0.43889118      -1.67524256       0.13597680       0.47808070      -0.28187283
H       13.67107487       4.79388098       9.45977495       0.74718748      -2.70706272      -0.44078632      -0.14701736       0.17357172       0.24273854
H       10.08630659       4.98337909      11.19156463      -0.75789756      -0.14195765       1.74921330      -0.04042031      -0.19203522      -0.14013724
H       12.98949209       6.48067268      10.36341346       0.88648860      -0.69831156       0.29179394      -0.15849356      -0.18885148       0.42637782
H        9.61350680       5.61985120      12.90560735       0.62388650      -1.48948629      -1.07897043      -0.30595607       0.08696051      -0.14980915
H       14.55061141       6.49236978       9.31699304      -0.92209433      -0.85202585      -0.02228481       0.05969656      -0.19890933       0.12093384
C        9.91970222       3.29358138      12.70951733       2.32502545      -0.98881762       1.30633079       0.12143485       1.07124810       1.59443872
C       12.76177975       6.21200321       7.85020181       1.15298854      -1.75331985      -0.08074332       0.60270132      -1.13031875       0.45325579
Pb      12.46869408      16.79221498       0.60985055       0.18592866       0.26030473       0.23657749       2.59173038       0.94089311       3.41913579
Pb       8.27578999      16.53607671       0.04313783      -0.13508716       0.72344551       0.46955376      -0.44302160      -4.58239106       4.25246445
N        9.59732609       4.75090009      12.13555636       0.84379157       3.48684685      -0.27869591       1.98843369      -1.31290466       1.34642058
N       13.60289392       5.88354176       9.37789764      -0.18236472       4.88081895      -0.97320174       0.08115442      -0.10730964       0.02995166
I       13.25291074      11.10540737      14.23335150      -0.17009576      -0.00909854       0.32542600       3.37293323       2.35133231      -1.44232241
I       10.97616287      15.19804623      15.76432932      -0.05396256      -0.10004851       0.00178353      -0.84511391       1.25121378       4.01157037
I       13.53885421      10.39892157      10.50897541      -0.38503232      -0.04236465      -0.35852208       0.54473137      -0.90224028      -1.12009292
I       10.88017203      15.28780349      11.30236348       0.29678351      -0.08425416       0.24059281       0.46780693       0.80914221      -1.58708264
I       15.25177802      14.35785698       9.03226034      -0.07683752      -0.44207082       0.10777382       1.03284982       1.67080345       2.20718954
I        9.03089818      11.29802779      11.88702210      -0.15306128       0.00105387       0.44371718      -0.44152292      -2.89088277      -0.30385551
H        9.91414257      10.22696990      17.28402465       0.06602868      -1.71532700       0.06589042       0.18101007      -0.00541553      -0.14329768
H       13.96896603      14.45654007      15.22216803      -0.97667808      -0.27533862       0.67793047       0.12295964       0.07713556      -0.24073383
H        9.03491083      11.50340702      16.68644431      -0.92228706       1.01482422      -0.47732895      -0.16531264      -0.33305271      -0.05845875
H       15.76710928      14.33612084      14.91763643      -1.59448111       1.28378952      -1.37377707       0.06453831      -0.15469943       0.16692675
H       10.55820988      11.02843285      15.80183915      -0.33434109      -0.43176499      -0.64057200       0.24128842       0.18365357      -0.03885096
H       14.93496695      16.24079104      14.67674836       1.14250909      -0.44699371       0.05290990      -0.03834282       0.00537080      -0.70249972
H       11.98027143      11.66344993      17.55415139      -0.92246335       0.29370537      -0.24816983       0.11817270      -0.10165041       0.41842898
H       15.18965434      14.91914930      11.86368407      -0.24473716       0.25609326       1.09061543      -0.33396985       0.36042123      -0.13439699
H       10.53197733      11.79606976      18.45790039      -1.12511341       1.39873432       3.27043257      -0.40130480       0.08467003       0.03792272
H       13.59492422      15.17643299      12.46711858      -0.34308836      -0.03217162      -0.28426398       0.42076173      -0.07577823      -0.24380422
H       10.72507250      12.92865686      17.01674546       0.44694123      -0.35366306       1.56288831      -0.03063903       0.05967264       0.06485352
H       14.14236076      13.55862560      12.67246060      -0.28318919      -1.36275885      -0.20751310       0.00019584      -0.13477255      -0.03141219
C       10.03182469      11.12574876      16.74176298       0.92402136      -1.10698332      -0.29714585       0.07259258      -0.13960494      -0.50156190
C       14.83623687      14.92160874      14.45542367       2.20835815       0.63384462       0.40792317       1.41537817      -0.95156335       0.12205806
Pb      11.41258160       9.20695455      12.63326574      -0.40431208      -0.18085019      -0.34662937      -2.85123043      -4.38012205       0.19226703
Pb      15.48435321       9.09790305      12.50844855      -0.00947427      -0.11487843       0.50423399       2.19613546      -3.85128033       1.95329355