768
Lattice="31.69945668710882 -0.05318654843770361 -0.36351599514761185 0.040002385871756 30.414649832433703 0.5117498230958147 0.4104475048070117 -0.22194636651643873 17.44856456336718" Properties=species:S:1:pos:R:3:forces:R:3:momenta:R:3 energy=-3312.340962636271 stress="0.0 0.0 0.0 0.0 0.0 0.0 0.0 0.0 0.0" pbc="T T T"
I        6.61506874       3.23940455       2.55791331      -0.10046240      -0.16505234       0.19409756       0.41950131       1.12425203       3.82566897
I        0.94628400       8.01371947       1.88085750       0.04631635       0.00120965       0.09749699       2.10077486      -0.96812527      -0.32120940
I        6.62550698       2.96772179       6.76303683      -0.04178417      -0.18270099       0.47644705      -2.65399236      -0.15648271       0.99126314
I        1.12105299       8.16908067       6.27188332       0.21705841      -0.49113505       0.36854088       3.04742509      -2.70067895      -1.90598227
I        4.83728965       6.83535805       4.25988634      -0.13805452      -0.12195396      -0.06941076       1.11005555      -6.43739556      -3.19474053
I        2.48328109       4.03760856       9.47351221       0.01590464       0.01973838      -0.23251494       2.31500548      -1.32646068      -1.20363479
H        2.97737359       4.70873982       5.87004717       0.50511411       0.70746610      -0.31622597       0.12928290      -0.26680429      -0.01311475
H        5.81322758       7.85827494      17.96151693      -0.35338970       1.00099615       0.27751251      -0.13468618      -0.09024472       0.15515236
H        1.53973549       3.58349827       6.06783020      -1.32907245      -0.91086858       1.79930466       0.01908966       0.25102538       0.05591328
H        6.13130492       6.96642376      16.38414913       0.79981000       0.96333842      -1.55217990      -0.03001457       0.17936510      -0.10948619
H        2.94360748       3.08940230       4.68018240      -0.80318136       1.38839235       1.29256134      -0.07445899      -0.31179425       0.16214800
H        4.63567099       6.61923824      17.14438342       0.00296594       0.19570573       0.63167760      -0.12072142       0.07915152      -0.03373166
H        1.82914279       4.56980604       3.30235268      -1.78211297       0.28595570       2.28355616       0.11243323       0.19020801       0.26575733
H        7.63145615       5.96532500      18.15526052      -1.50101246       0.06517313      -0.38069474       0.26527534      -0.06269543       0.17384998
H        1.40061185       5.67161939       4.70251107      -0.95431562       0.84194180      -0.51200363       0.21485393       0.07402208       0.17505044
H        6.41168528       4.89774223      17.44298319       0.28718164      -0.30789644      -0.48331490       0.13032174       0.04342787       0.40848792
H        0.31475988       4.22783796       4.23823522       1.75073934       1.09114232       0.67877914       0.08429835      -0.17233848       0.10482188
H        6.18145363       5.57499847      18.92019467      -0.80485854       0.07452756       1.55888213       0.24822791      -0.17543161       0.11362462
C        2.23257397       3.95839180       5.34305864       0.80668191      -1.54627872      -3.10652215       0.47750987       0.46246770      -0.80390889
C        5.66798710       6.96840245      17.32972068       1.25777733      -2.85628048       1.22196389       0.64788767      -0.25310673      -0.27032021
Pb       4.70740558      16.52455783       9.84612779       0.10521616      -0.35508578      -0.81420343      -0.76289080      -2.36866743       2.12236566
Pb       0.87695678      16.31426027       9.32685732      -0.13598537      -0.05233378      -0.18348035      -0.93517581      -0.20229538       2.19214474
N        1.31853942       4.69945130       4.34035607       1.91096209      -1.80679596      -2.41233323      -0.66145953       0.45268128       0.60300876
N        6.52728383       5.79903612      18.01279719       0.25196547       1.02346265      -1.26840921      -1.19816943      -0.14884966       0.24003736
I        4.82516910      11.18399684       6.08023096      -0.14073684      -0.17248568       0.15807401      -0.29538002       2.59707144       1.95584221
I        3.06167399      14.86623245       7.22343956       0.04442579       0.21335152       0.37731593       1.75045952       2.92635636      -0.70886466
I        5.00595967      10.66232456       1.61324719      -0.02708595      -0.25278440       0.60924776      -1.07511525       0.23629583      -1.47918952
I        2.58855027      15.34304882       3.19066508       0.11881402       0.34328213      -0.39727677      -1.95157783       2.92646598      -3.72650041
I        6.61299643      14.43766077       0.54820445      -0.04919222      -0.10238623       0.22106894      -0.99694776       1.23556310      -0.63435508
I        0.82072092      11.89050325       4.07779019       0.20268485       0.24127317      -0.03492620      -0.12693686      -2.10831245      -1.02955318
H        1.38193225       9.93631940       8.48200605       0.42935500       0.85755577       0.74749832      -0.13180458      -0.05900010      -0.26323017
H        6.39770626      14.68318109       6.13090643       0.23578421       0.35693411      -0.81220400      -0.12225476      -0.25561222      -0.20605379
H        0.23892370      11.44039758       8.46149790      -0.67875921       0.34465882      -0.71678487       0.24947248       0.24395419      -0.20886859
H        7.65104625      14.27168737       4.74155996       1.86021082      -1.05600347       0.81430462       0.24542680      -0.34251863      -0.26754519
H        1.67635004      11.17803310       7.16290326      -0.43017538       0.54467694       0.49765263      -0.12563198      -0.02310550      -0.02212544
H        6.76449170      15.71698360       4.50244794      -0.81694006       0.04266180       0.17399280      -0.03643403       0.19407513      -0.19517307
H        2.98983227      11.33360076       9.43937782       0.14099481       0.20234754       0.28096933      -0.03101072       0.12709415       0.09421574
H        6.03811758      13.67708814       3.23852199       0.00931930      -0.83109517      -0.39019940       0.10778153      -0.03041895       0.15714922
H        1.63328636      12.14761260      10.04485297       0.48413650       0.53849084      -0.34253922       0.21048745      -0.33989273       0.52059766
H        4.75703934      14.39111164       4.03493359      -0.68058458       0.37072004      -0.34222342       0.03707877       0.06904624      -0.39459734
H        2.65938344      12.82882321       8.67884476      -0.93835721      -0.25261095       0.18153116       0.02628088      -0.05373466       0.11439876
H        5.26595335      12.94766283       4.76186727       1.00816648       1.42815069      -1.18215734      -0.04697661       0.05458033       0.11371094
C        1.31142156      11.08065001       8.26448333       0.74805526      -0.15473382      -0.65461832      -0.22609442       0.24881574      -0.36511521
C        6.66016060      14.72993664       4.97154475      -1.77667030      -0.59658280      -0.75316568       1.30105574       0.30986626       0.08995942
Pb       2.92310003       9.37142139       4.03247951       0.67401369       0.31874592      -0.34624582      -1.51516212      -3.89511092       0.65461188
Pb       6.83003423       9.32682160       4.19075484       0.14211686      -0.33314241       0.24047832       0.33508922      -1.73203609       0.78119327
N        2.17639905      11.95622590       9.16596663       0.47437007      -2.15139669       0.06820172       0.86281091      -0.39575023      -0.47795789
N        5.62635070      13.84307981       4.15922639       0.27777551       0.27826238       2.55918860      -1.07405843      -0.34765689       0.20501318
I       14.68941743       2.62900627       2.57906244      -0.29254378      -0.34398533      -0.16656397      -2.31924477       3.42215998       0.41490568
I        8.65151390       7.67448764       2.22366329       0.29719528       0.04980409      -0.18850917      -0.78345013       0.82861150       3.28184132
I       14.63033182       2.80231044       7.05845755      -0.29621569      -0.14411628       0.25554211      -4.10506469      -2.30793704       2.37903685
I        8.91419356       7.72004227       6.60293538      -0.28998077       0.04543816      -0.74781461       0.19453329      -1.07370217      -1.98798529
I       12.52450952       6.31550370       3.76151574       0.18394325       0.11012991       0.18346593      -2.52485719      -4.04829694       1.04249738
I       10.32431641       3.70329810       9.26302401       0.42301167       0.05813743      -0.05436272       1.29342780      -1.08983523      -2.41993686
H       11.05045061       3.53295324       5.40871209       1.38007550       0.16516116      -0.62159958       0.13974526      -0.27941568      -0.01656472
H       13.76675278       6.39741541      15.55548949      -0.36210830       0.27626250       1.71636782      -0.23682210      -0.03513934       0.11660744
H        9.38678932       3.47552618       5.93701986      -0.31741032       0.28091020      -0.52325545       0.14634494      -0.12723786       0.19563088
H       12.32585885       5.76470065      16.44323840       1.14358867       0.78348157       0.62861066      -0.06850581       0.05018545       0.01243986
H        9.78282133       2.27046601       4.66110988       0.53372233       0.85082290      -0.29162333      -0.09977815      -0.13328278      -0.00730391
H       13.00122439       7.45661070      16.99847962      -0.01651200       0.02101803      -0.58235859       0.24823280      -0.03308305       0.00252910
H        8.58407988       4.37764029       3.72324822       0.61279999       0.51244950       0.21375398       0.20532334       0.21717620       0.06192702
H       14.63258816       4.87638026      17.24279137       0.19203058       0.42254883       0.24672524      -0.13486898       0.12239751       0.09832262
H       10.23878496       4.56729582       3.20752358       0.23201099      -0.09431811      -0.39092268      -0.27046212       0.40891001      -0.19072367
H       13.59019438       5.30050103      18.56060309       0.49478030       1.11747671      -1.67208153       0.09127116      -0.05348079      -0.11252632
H        9.79013959       5.43580802       4.56753213      -0.74022793       0.60431695      -0.13953746       0.11854528      -0.25447239       0.06064518
H       14.94162250       6.43868475      18.09951178      -0.49543381      -0.41963899      -0.23063211       0.10703248      -0.05924013      -0.36857220
C       10.02258882       3.38546956       5.00249576      -1.23954755      -1.62552590       1.41410774      -0.32888740       0.61424113       0.96218818
C       13.25768011       6.45107758      16.60148447      -0.52128516      -1.64204931      -0.26291329      -0.41615334      -0.59322129       0.19822748
Pb      12.56643913      16.65576733       9.69064854       0.07807679      -0.08367194      -0.01970637      -1.61385966       4.26129909      -0.22061317
Pb       8.51960861      16.35334627       9.75449337       0.28748005       0.38444324      -0.42484898      -0.71571499      -7.79032933       1.66655762
N        9.63143723       4.51552836       4.05032806      -0.54494405      -0.33893472       0.68899283       0.26643405      -0.88545353       0.29919010
N       14.15729984       5.75681569      17.69822515      -0.21618955      -0.54632499       0.26069479       1.13790689       0.85978867      -0.57343921
I       12.94109489      10.66213810       6.35825628       0.04981974      -0.42178802      -0.21712571       1.16282404       0.85357484      -0.88147595
I       10.87148897      15.13903575       7.57066180      -0.39863260      -0.12988844      -0.09033553       1.66348646       1.40569449      -1.46276253
I       12.34872863      10.14889012       1.67633780       0.37410759      -0.09668554       0.34912445       2.09506272       0.71278486       0.26239106
I       10.27934385      15.87493252       3.46519554       0.06978692      -0.23614805      -0.26923869      -0.68258098      -2.30479197       2.35380696
I       14.34428984      13.96406661       0.93690145       0.12074787       0.14668024       0.42251849      -0.38506463      -0.66747945       1.21452554
I        8.88636860      11.67704048       3.81396245       0.10197720       0.26349432       0.25249287      -1.27909403       0.15689414      -0.90792114
H        8.59893258      10.17733438       9.51418986       0.47990705       1.01065375      -0.66230525      -0.23527618       0.27728523       0.02609938
H       13.93478847      14.42598562       6.53661220       0.31659281      -0.15463096       0.57308464      -0.03549598       0.12196743       0.00194430
H        8.36936786      11.66913522       8.18571821      -0.20864423       0.29755713       0.61982225       0.15845087      -0.11405070      -0.08542132
H       15.29823048      13.84082889       5.13281456      -1.62904796       1.17059037       0.06095818       0.01239901       0.25448983      -0.20013547
H        9.69389694      10.39506559       7.81517468       0.75039974      -0.12766809       0.36565234       0.29807734       0.20153626      -0.06700648
H       14.12142026      15.50339617       5.00418943       0.10685011      -1.66373656       0.48565356       0.02675624      -0.00009317      -0.27095874
H       11.05113915      11.55366908       9.73198562      -0.74655350       0.03606818      -0.55479741       0.03939939       0.00620754       0.29642381
H       13.25775942      13.49605137       3.60789825      -0.03000181      -0.13975061       0.23374961      -0.02758667       0.05413365      -0.08906161
H        9.53402928      11.83039087      10.43589086       0.96985418       0.94313204      -0.46402141      -0.21187515      -0.00195296      -0.27565090
H       12.11617797      14.10322145       4.76718806      -0.76907211       0.30035046      -0.21708839       0.23672494      -0.00661695      -0.09706592
H       10.14329434      12.88266207       9.13564546      -0.08332908       0.34505357      -0.17087605       0.06937750      -0.01103790       0.32161716
H       12.95485505      12.74327984       5.13154921      -0.37406419      -2.77156779       1.03827147       0.00871628       0.07897794      -0.35390597
C        9.16435235      10.98642527       8.71621075      -0.05276317      -0.94811737      -0.48154750      -0.08225057      -0.94783519      -0.46374842
C       14.21039445      14.41321476       5.42672522       0.94780670       0.08529349      -1.26688212       1.37584380       0.69230959       0.93321145
Pb      10.82437948       9.07201428       4.35619417      -0.03746268      -0.08995221      -0.11262926      -1.61068052       1.21068966       1.30056805
Pb      14.66761498       8.89567472       4.03486703       0.36640433      -0.11666125      -0.47791552       0.95336627      -0.83099199      -0.71646456
N       10.07159225      11.92238332       9.49283965      -1.13891490      -1.38358347       1.06587960       0.72840127      -0.63905227      -0.44363505
N       13.04889250      13.59515080       4.69043375       1.48975861       3.32997713      -1.36884766      -0.84421134      -0.51487641       0.42141859
I        6.54716830       2.85883262      11.26389925      -0.15998716      -0.09264655      -0.10592653       0.33669823       2.02752469       3.87270052
I        1.60120349       8.14089913      10.73905131      -0.52244906      -0.46640326      -0.38554544       1.09527274       1.06001257      -2.02580242
I        7.13561367       3.02627205      15.89435520      -0.34746189       0.00937518      -0.37981312       2.32409808       2.22756017       1.74352523
I        1.49235352       7.35182063      14.85045161      -0.02416310      -0.09924571       0.26834025       0.05982773       3.17744152       2.03901994
I        4.64218518       6.36724123      13.06226736       0.75414176      -0.26754971      -0.31909705       0.47838337      -1.78161064       1.44389955
I        2.77813337       4.47022248       0.67523701      -0.28642861      -0.08444165       0.25221280       0.68610021       5.05164550      -0.61388608
H        3.16474526       3.54472502      13.88362650       0.67235790       0.77664100       0.23249939       0.05180821       0.18520345      -0.09184341
H        5.33004060       7.68224388       9.30829662       0.13419078      -0.13138967       0.53648241      -0.24037755       0.10345187       0.01656001
H        1.49982613       2.68556572      14.22217405       1.33516072       0.32969345      -2.01736349       0.14819411      -0.13277050       0.26100113
H        6.30064842       7.23419063       7.89600003      -0.25467599      -0.31489453      -0.31961603      -0.06801324      -0.30085253       0.02379204
H        2.64941325       2.25810329      12.66796839      -0.85121060       1.49829984       0.29908606       0.23601682       0.09879535       0.36947761
H        4.61924109       6.48478944       8.19630431      -0.65272352      -0.76084799      -0.28697416       0.14214165      -0.12083828      -0.19015522
H        1.96435656       4.24068151      11.60061640      -0.31358917       0.18495178       0.04275133      -0.05469993       0.14633402       0.14341948
H        7.09078240       6.12477490       9.77257197       0.99564602       0.20063996      -0.28333220       0.04518586       0.14169805      -0.00859008
H        1.60246930       5.21671343      13.02958354       0.04100052      -0.07691591       0.25656932       0.08716360       0.10705399       0.16692116
H        6.43729887       4.92260129       8.83234880      -0.03369416      -1.25096179      -0.59981897      -0.27366103       0.08731789       0.13258715
H        0.55809193       3.88938671      12.57570126      -0.50452558       0.43040023      -0.69869440      -0.04711042      -0.09656916      -0.15550144
H        5.78580849       5.45877126      10.33853098      -0.19608487      -0.13108937      -1.28828320       0.12549576      -0.15168517       0.31268095
C        2.27202634       3.13412997      13.37979745      -1.54587029      -1.13755875       1.28130591       0.01907620      -0.02518655      -0.91827130
C        5.56098860       6.79938765       8.67303805      -0.09556258       1.92701044      -1.20376214       0.96301993      -0.06948009      -0.99208112
Pb       4.67510640      16.97693301       0.97277020      -0.07378334      -0.16040982       0.24632031       4.81124740       0.88088397       3.87608032
Pb       0.54460699      16.68910731       0.98204969      -0.22221959      -0.19135235       0.03239266      -1.81813689      -0.22467019       4.31094795
N        1.54994161       4.25691794      12.58916232       1.15754468      -1.71949575       0.92853423      -0.25391867       0.28236051       0.38489056
N        6.21045460       5.73753794       9.38533235      -0.05799355       0.34389414       3.44796273       0.35934058      -0.43432777       0.95925830
I        5.72838403      10.42889522      14.97845917       0.03774125      -0.13759309      -0.00305619       0.74323914      -0.45422169       2.36350107
I        3.23853042      15.78908552      16.07344863      -0.08208976      -0.32692099       0.03083164       0.64368910      -2.30979883      -0.52221436
I        5.47017307      10.12692077      10.50182856      -0.28465955       0.14946125      -0.01421602       2.49758174      -2.20194249       1.80365460
I        2.73360680      14.73359059      11.62178806      -0.04360202       0.34511376      -0.04811963       2.00029334      -3.43147242      -0.14258465
I        6.99837467      13.85604686       9.51537687      -0.53444749      -0.03500640       0.18336930      -3.70812844      -2.02741065       1.83646930
I        1.52582120      11.80005386      12.92701547      -0.58216655      -0.43760458       0.10494685       2.14374086       1.61531963      -1.11696631
H        2.12859509      10.36648281      18.19697066      -0.03255096      -0.66225044       0.48074202       0.05980007      -0.38781792       0.12340882
H        5.67306943      13.86796692      15.07891861      -0.24191436       0.08433366       0.22654467      -0.06170359       0.15037548       0.15358198
H        0.99083690      11.45342685      17.14317907      -0.53428512       0.15578676       0.50580059      -0.20023073       0.25718623       0.21307119
H        7.17586324      12.92280832      14.69656912       1.02671663      -0.27933436       0.29326736       0.28684709      -0.05230970       0.14171864
H        2.54048390      11.07642830      16.52845310       0.21294415      -0.38294760       0.25348862      -0.62572916       0.01572255       0.01863237
H        7.07707350      14.71730082      14.04030413      -0.26323915       0.66194302      -0.46764838      -0.05663269       0.25282382       0.12829071
H        3.66597520      12.34821843      18.43780897       0.97645812      -0.01471476      -0.50732298       0.19634952       0.27007247       0.22119725
H        6.15520835      13.18286181      12.08274631      -0.16705869       0.11559750       1.82313855       0.08493309       0.30752700      -0.15555452
H        2.30525858      12.75720354      19.07053748      -0.55330109       0.65977561      -0.42263669       0.07943708       0.02571035      -0.32440505
H        4.79642024      13.54758703      12.93957783      -0.70175275       0.67491007       0.01022639       0.26520831       0.19127790      -0.27795312
H        2.61411662      13.40960027      17.37277631       0.31327807       0.21312469       0.57958630       0.19725253      -0.33559761       0.07192118
H        5.57657720      12.17530832      13.45428058      -0.00706006      -0.11088139      -0.81667932       0.26098448      -0.03494846       0.32870514
C        2.03145988      11.23612931      17.49748846       0.78070772       1.40687926      -1.12045816      -0.56387761       0.20944353       0.51817623
C        6.44191429      13.72660740      14.29011568       0.45662547       0.48190968       0.08840580      -0.79586400      -0.70654056       0.74031417
Pb       3.39809987       9.20619823      13.00105298      -0.08428362       0.20021269       0.00425742      -6.08844339      -0.15923094      -1.49271199
Pb       7.29778021       8.49052913      12.49345839       0.12026371       0.40449218       0.69218705      -1.18017099       1.28255575      -2.17652519
N        2.69903552      12.57781853      18.11510632      -1.10487447      -1.26835443       0.14638001       1.16515861       1.33746720       0.91871213
N        5.72649990      13.16930691      13.09943606       0.08480368      -1.47146094      -1.45237288       0.42015471      -0.97659421       0.78120498
I       15.13026894       2.41920499      11.49681331      -0.16575451       0.22730702       0.09547114      -0.30691622       1.47342488       0.49020796
I        9.22284479       7.27071216      10.41600908      -0.06288209      -0.03085501       0.08611887       3.63148694      -0.01290768       2.73135262
I       14.84080809       2.44235692      15.91919266      -0.08285256       0.23079061      -0.41812130      -0.08587984      -0.18829586      -1.43053382
I        9.39987131       7.50125282      15.05037421      -0.21512050      -0.24271990      -0.52382140      -1.73542866       0.24810545      -3.01051719
I       12.83953753       6.53378899      12.64084476       0.86932979      -0.30983186      -0.12158635       3.07528488      -5.41785797      -3.44483624
I       10.60961136       3.86001180       0.91182605       0.47778712       0.11883773      -0.25440142       2.60054427       1.26221395       2.25267547
H       11.42663026       3.87390847      13.93573643       0.30713831       0.40785746      -0.67334442       0.15751213       0.00330454       0.21241240
H       14.53328752       6.42598821       7.50823373      -0.35200194       0.15817344       0.70102082      -0.03355613      -0.06889929       0.22135414
H       10.01255991       4.26457998      15.38892578      -0.34840395      -0.59065122      -0.40169017      -0.21932632      -0.01737513      -0.20785043
H       12.95070934       5.81451467       7.99754567      -1.34806644      -0.29129596      -0.13443472       0.28106038      -0.30792461       0.09440474
H       10.12883309       2.13088179      14.30904753      -0.61353577       1.90984063       0.70776775       0.01562289       0.42966564       0.10046519
H       13.55002720       7.31475750       8.80831286      -0.13991616       0.47412816       0.03149025      -0.17504249      -0.01427379       0.18291195
H        8.56012104       3.59607413      12.74615138       1.30831988       0.30293474       0.39379079      -0.19832306      -0.06083033      -0.07537006
H       14.57201189       4.52105106       9.09698288       0.40251012       0.48433663      -0.03893504      -0.21090624      -0.21301692      -0.17786277
H       10.07864109       3.86278870      12.05276358       0.91088504       0.48743379      -2.56239236      -0.14574905       0.00399338       0.05139983
H       13.86367727       5.46239581      10.32288672       0.77287559       0.54998823      -0.65110618       0.25150422       0.03557787      -0.28630556
H        9.41522655       5.13844075      13.00532864      -0.05657717       0.21135507       0.15562719       0.15406962      -0.07627780       0.01441461
H       15.40058443       6.00898143       9.65009206      -0.93033874      -0.88210016       0.11490451       0.12591767       0.06434655       0.20596852
C       10.30161365       3.54366123      14.16294252       0.42591708      -2.05747599       1.03332533      -0.02859154       0.14460759      -0.25926383
C       13.80412679       6.35007982       8.37082424       1.29332448      -0.15942099      -0.76915110      -0.16430193       0.48652766      -0.75937143
Pb      12.43113578      16.55999982       1.02778761      -0.06810598      -0.09233607      -0.26988625       3.06841283      -1.19767194       1.96709821
Pb       8.54971500      16.99380109       0.94891384       0.17022715      -0.04516424      -0.30051658      -2.87655319      -1.39652723      -0.26788627
N        9.53977666       4.05012062      12.90099500      -1.76606045      -0.24106706       1.55110004      -0.77774586      -0.10410075       0.66824546
N       14.46332311       5.52504567       9.43323033       0.13225440      -0.24621637       0.80420417      -0.11670250       0.12367556       1.62804200
I       13.00659668      10.36189521      14.78539646       0.17856643       0.20370403      -0.03375763      -2.50534970       1.63696059      -1.59723241
I       11.07487826      15.04480241      16.19722051      -0.08143290       0.07068632       0.33730445      -0.48756477       0.97898090       2.05928735
I       12.89306122      10.52336387      10.45570940       0.45879074      -0.19360359       0.04568483      -3.29784161       2.24331930       0.41249129
I       10.78022932      14.98349326      11.71175099      -0.13142363       0.06945340       0.22497657       1.76675737      -2.09877086       0.26176402
I       14.96210886      14.19103919       9.63261283      -0.00561103       0.05906414      -0.18464221       3.40511055      -1.71281863       0.74433054
I        9.33939055      11.31193486      12.78540972      -0.75421805      -0.01037717      -0.03818157       0.37993579       0.98622802      -0.15444066
H        8.76300000      10.25840322      17.47448991      -0.10580014      -0.29222455      -0.28599297       0.30575032      -0.25766082      -0.03511219
H       14.27565522      13.98156917      15.24637092      -0.48145814      -0.27693330      -0.01433680       0.20955869      -0.04439591      -0.25053779
H        8.12134263      11.84278638      16.80982350       0.20434040       0.08098494       0.69367579      -0.11312629       0.03160051      -0.10387381
H       15.66015248      13.15911575      14.49169212       0.74757798      -0.05150675      -0.08492064       0.31188168       0.06014106       0.09265036
H        9.54973742      11.14281581      16.03052805      -0.76912691      -0.30635741       1.50893410       0.18381148       0.12865528      -0.00037858
H       15.26125578      15.05055964      14.16909754       0.65841651       0.72138269       0.07730845      -0.16477021      -0.01187132      -0.52833404
H       10.87828665      11.39460932      18.00462491       1.51226037      -0.92934920       0.57545457      -0.19414545      -0.10436027       0.17353837
H       14.56410769      13.78012398      12.04308415       0.27558208       0.09013548       0.65962819       0.34907796      -0.25534233      -0.25076837
H        9.61271788      11.91077484      18.91521981      -0.68219379      -0.04528106       1.71667675       0.25020759      -0.31274169      -0.00611677
H       13.21543690      14.35096530      12.59972773      -0.32356418       0.46904189       0.87357647       0.07886619       0.08210759      -0.17871933
H       10.13742993      12.88100458      17.71303485       0.17545226      -0.28243027      -0.19704005      -0.02115785      -0.06008971       0.08526083
H       13.50412974      12.55378950      12.90518319       0.39258419       1.78165028      -0.17748810       0.13181452      -0.22548998      -0.08074800
C        9.02552488      11.23766059      17.05312454       0.59426933      -0.92276482      -2.90445784       0.34500550      -0.40010675       0.18882171
C       14.87617418      13.98311210      14.33467851      -1.12793548       0.16693347      -0.40805743      -0.21349107      -0.04389427      -0.09535649
Pb      11.17317066       8.94425502      12.64995168      -0.22692842      -0.02032302       0.23003711       0.28659487       3.73251733       5.26373662
Pb      15.15968126       9.34138278      12.67720441      -0.04851372      -0.54403653      -0.21055981      -2.29566818       2.76188326       2.75514282