768
Lattice="25.625769195560288 0.1442251890105203 -0.06288156074118129 -0.08544278206367628 25.555723663810763 -0.05823012908242495 0.07213310111533067 -0.1299461261962401 25.66616038795785" Properties=species:S:1:pos:R:3:forces:R:3:momenta:R:3 energy=-3285.710584022936 stress="0.0 0.0 0.0 0.0 0.0 0.0 0.0 0.0 0.0" pbc="T T T"
I        6.34688147       1.06453195       2.69668012       0.04553638      -0.13248691      -0.08025658       0.55553602      -0.86584076      -2.70388956
I        6.02711371      12.68374831       8.68786056       0.29888472      -0.06948146      -0.11101023      -1.01382105      -2.04234136      -2.21947020
I        6.33598006       9.52416526       4.05615858       0.01652376       0.16168558       0.08167735       0.04430376      -3.01238985       3.12012761
I        6.79101543       3.11259108       6.52064210       0.02110274       0.26450583       0.07312681      -0.45919153      -0.27031543      -1.55347667
I        1.02752119      12.39354853       8.63328507      -0.06461138      -0.12526491       0.52459453       7.00253822       3.16646830       4.16294265
I       11.61907468      -0.05253299       2.78598027       0.44288609       0.44244447       0.16463969      -2.01577048      -0.66041713       0.13224101
I       12.34696056       3.63299915       5.78604993      -0.05292257      -0.63488596       0.18890605       4.29799075      -3.28038733      -0.50929253
I        1.03208921       9.56383702       4.22823510      -0.51536115       0.13180490       0.48810279       1.83662674       1.97164950       2.51782679
I       10.09148632      13.27355440      11.81346164      -0.66692587      -0.36687226       0.26618053      -1.48095911      -5.95560026       0.44462535
I        2.99417496       5.52319441       5.97028824       0.28211618       0.10294417       0.16455028       0.45058395       1.31205690       0.60908634
I        2.79707217       0.40907727       5.24146011       0.41943826      -0.17497230      -0.09904210      -0.74079223       4.18252719      -0.84751144
I        9.79744305      13.22503490       5.45187732      -0.20956327      -0.27029518       0.04670528       2.98448656       2.60187374      -3.96267326
H        2.64937488       2.05184027       0.64070932       0.65315466      -0.12323639      -0.02267476      -0.19510893       0.24913188       0.13465296
H        8.93510142       4.27107667       1.75118142       0.53295291      -0.06418565      -0.43441468       0.38959299       0.42174859       0.31114218
H        8.58391803       9.34065596       2.23456396      -1.51993019      -1.28896284      -0.42993842       0.06668351       0.11943555      -0.05595405
H        2.84808713       2.74177116       7.46908032      -0.73050602       0.14934197      -1.11607666       0.18682002      -0.45723279      -0.31480364
H        3.87064489       8.84839544       6.74360729      -0.97311811      -0.63821124       0.08124261       0.33900373      -0.10053785       0.07106454
H       10.84071517       3.31754565       1.67095574      -1.90043931      -1.08992720       0.33789081      -0.16945956      -0.16049631       0.05534090
H        8.54845484       2.62569627      10.97819895       0.32822899       0.71593338      -0.51300022      -0.05824469      -0.06041594       0.23501290
H        4.62893300       2.64925209       8.04319861       1.22485359      -0.28145951      -1.22832599       0.30106698      -0.12439368       0.00356104
H        2.84293007       4.88069126       1.08158036      -0.08944968      -1.37756906      -0.36321479       0.14102224      -0.17269975      -0.52841554
H        9.05659683       2.15863488       1.54814301       0.02331069      -0.01306503      -0.09325282      -0.19791690      -0.33612185       0.25241141
H        9.34374748       9.50233412       3.84054924       0.75406955       0.44901194      -0.71266335       0.00248033      -0.57935130       0.07706894
H        3.17799847       1.55944284       8.88903811       0.43240803       2.16514008      -1.09787059      -0.13480881      -0.10683634      -0.36146078
H        2.96706408       1.83181839       3.31667962      -0.67944591       0.58439865       0.77774170       0.02226916      -0.12882084       0.09947815
H        9.74309349       8.27318549      10.16811208      -0.16953167      -2.40378031      -0.55774932      -0.15892134       0.05955137      -0.05322883
H       10.10996925      11.73663870       2.72185660       0.74178396       0.96537688       0.06565318       0.29548851      -0.20696119       0.23345051
H        2.62876601      11.02693501       2.98837668       0.04518428      -1.69815515       0.96111922       0.25205678      -0.05693162       0.17143656
H        2.41884731       4.14838605       3.85844391      -0.23178102      -1.03214054      -0.15255927       0.12876963      -0.10085285       0.11847271
H        8.88315640       9.33969301      10.95001056      -0.17362649       0.60374692       0.73755937       0.10062030      -0.01514712      -0.07810856
H        8.48641725      11.68494593       2.69918852      -1.56215929       0.92048002       0.33771689      -0.17449463       0.02317431       0.16212474
H        2.92581834      11.42350603       1.42824868       0.98019080      -0.38766421      -0.92030137      -0.38491491       0.00183227       0.54092842
H        4.04226367       3.40634554       3.39444765      -0.43997435      -0.72582286      -0.20241775      -0.18618017      -0.10897445      -0.15776280
H        9.53623806       3.91838606       4.16146811      -0.36886882       0.28967908      -0.31750742      -0.40492183      -0.28750077       0.08987595
H        9.35821218      11.41677033       1.25288419      -0.24117122       0.12912578       0.49538710       0.22635945       0.07779615       0.29587932
H        4.40125777      11.02224036       2.53741258      -1.96549069       0.08092301      -0.78072957       0.19041355       0.45981836      -0.15487074
C        4.58026700       9.63917972       7.26346281      -0.47689255       0.38384471       0.61336473       0.17636008       0.26200288       0.30175797
C        9.53617789       3.21992278       1.97880923       0.66355082       1.66534302       1.44095434       0.76683478       0.18829480      -0.50152215
C       10.03204065       3.10706321       9.78269957      -0.27717256      -0.84241911      -0.24268803       0.41993973       1.24751662      -0.71441742
C        3.55455091       2.63025456       8.32177721      -0.39001773      -1.94804140       2.77661911      -1.24904136       0.26718445      -0.18580382
Pb       6.40555979       5.98881818       4.95463729       0.17123640       0.07034229       0.39175158      -0.28344423      -0.19515340       0.09149476
Pb       6.55439780      12.41158871       5.04071603      -0.11972056       0.42931053       0.20126421       2.82144870      -7.07336848       5.79300082
Pb       0.41972484      12.58985487      11.95554991      -0.00740581      -0.42482876       0.15604309       4.96916859       2.82955206       2.71276021
Pb       0.04899102      12.65490300       5.46956557       0.30902139       0.19565632      -0.37454192       3.07432321       3.68235301      -2.33372748
N        2.92227630       3.17766858       3.10134573       2.22943455      -0.57385779      -1.61964866      -1.24027760       0.92861765       0.32430360
N        9.77778885       9.22675152      10.43588596       0.80703373       0.86689336      -0.18592661      -2.02226743       0.40427393       0.60725828
N        9.29989386      11.27200049       2.31758814       2.67524462      -3.16381946       0.26038906       0.90872509       0.77678632      -1.17232153
N        3.31198077      10.71318007       2.21078891       2.87529053       1.31177853       0.22614338      -0.94583825       0.92428314       0.88533410
I        7.43101371       6.52489020       8.68228453      -0.20388757       0.26531252       0.04258316      -0.06922233      -2.22983224      -4.92003784
I        6.09855577       5.21852548       2.59774399      -0.23605715      -0.06364013      -0.77487000      -1.52206117      -0.43758400      -3.67274795
I        6.24577463       3.01632771      11.49897284      -0.26916782       0.27742507      -0.31018794       2.69650672       0.91245575       3.13132692
I        7.15977971       9.78414494      24.73572714      -0.06622159      -0.32943921       0.24474746       0.43940826      -2.73361737      -0.86678416
I        0.42706693       5.71041526       2.55582507      -0.06876253       0.04238303      -0.10889673       2.60115212       1.82679753      -1.51301358
I       12.19870493       6.65740790       8.87079709      -0.03076382       0.13389538      -0.06102033       2.61282766      -1.78137561      -2.67502701
I       12.80557899       9.70104729      25.91958080      -0.28843701      -0.17551296      -0.40171045       1.85525519      -4.14580031      -1.46199993
I        0.81787133       2.97771403      11.78416587      -0.08189308       0.17759973      -0.26170131      -2.02969343      -1.58756727      -1.38195612
I        9.31022904       6.44016827       4.91329267       0.23806112      -0.07743145       0.08942559       6.19117942      -2.55208297       3.49056487
I        2.97610179      12.08607551      24.90581041       0.69502905       0.18670262      -0.22527987      -2.15226871       1.04355095       2.51037306
I        3.47314021       7.33281879      11.38335100      -0.41898859      -0.23065495      -0.19003747      -1.34721610       1.59062245       2.21630815
I        9.72089868       6.07499726      24.38493935       0.11821160      -0.19249799       0.31698757      -0.28323582      -0.68814309       0.91920321
H        5.58284992       9.17672430       7.36527129       0.60506153       0.07853332       0.17021591      -0.26587323      -0.20596876       0.07857275
H        8.76635989      10.15275190       8.71939123       1.29147434       0.75441261       0.58074953      -0.32622373       0.08507018      -0.18513161
H       11.38437405       3.83689308      10.79305850       0.34117976       0.18132008      -0.12581858       0.31013588      -0.26780641       0.09788996
H        4.32371147       8.56157955       2.67406125       0.08775467       0.56536212       0.25650200       0.35243875       0.25269881       0.04175691
H        0.82130667       3.59434263       0.87422035       0.20276531      -0.07992451      -0.77133701      -0.11804662      -0.04705327      -0.04624494
H       10.31015236      11.20043000       9.60357311      -0.55789682      -0.63228012      -0.28374535       0.13315626      -0.15326793      -0.12702754
H       10.29669515       9.16919992       2.15137591      -0.01563855       1.13151983       0.37230140       0.10828997       0.15571879       0.09508246
H        1.64726292       8.59066409       2.17483249       0.72384129       0.06871944      -0.08770415       0.35627265      -0.52194630       0.01611438
H        4.64291526      10.51196102       6.57776313       0.34112137       0.27015491       0.38509689      -0.06557334      -0.18734868      -0.04607486
H       10.61837235       9.65329012       8.51408006      -0.16479708      -0.27309579       0.11296916       0.19106836      -0.27725601      -0.09401891
H       10.32740718       2.02762592       8.60292126      -0.21270803       0.40373851       0.62141855      -0.39314043       0.35156147       0.06912886
H        3.42596563       9.28153213       0.16994373       0.74403337       1.23814537       0.15709820       0.29045020       0.42405369       0.35579086
H        2.96076095      10.47374481       8.64523289      -0.78992870       0.96222251      -0.00238068       0.35717894       0.21000758       0.24155672
H        9.82146199       2.16647605       3.76063117       0.55767093      -0.01520335       0.71583069       0.09015449      -0.09638553       0.23586305
H        8.89290138       4.77368352       8.40470148       0.43193288      -0.68185899      -0.00962274       0.17566946      -0.09192113      -0.06452161
H        3.31885778       4.79423944       8.80800779      -0.04999625      -1.60849454       0.77323015      -0.02977115      -0.14393918      -0.01664280
H        4.67676158      10.80109849       9.30794848      -1.30421717      -0.58029993      -0.31490904      -0.10179874       0.51849415       0.21912136
H        8.31718630       2.72666880       3.75779993      -3.25694070      -1.22554550       0.74884174       0.08003285       0.06833453       0.27607062
H        9.64136340       3.40389783       7.42115780      -0.36181521      -0.17358538      -1.50468158      -0.02665656       0.32065161      -0.03524475
H        4.03197102       3.91753420      10.13979392       0.03849593      -0.58009753      -0.75119418       0.26200122      -0.25900077       0.03682184
H        3.70837247       9.26830425       9.42290786       0.08499168      -1.00334181       0.53447007      -0.41190344       0.01694192       0.11498392
H       10.62433401       9.23453893      11.12153299      -0.42125549       0.77104917      -0.09268692      -0.03688796       0.37462231      -0.04794035
H       10.53066596       4.89829465       8.17246586       0.88068520       0.08538117       0.33485668      -0.19620723       0.01243027      -0.16516330
H        2.39158426       3.52346308       9.81459215       0.63595365       0.56456584      -0.56489007       0.24021690       0.64087449       0.02248711
C        2.29628530       3.36669974       1.19296591      -1.34715934       3.34050387       2.40185641      -0.90883979      -0.37822511      -0.53413233
C        9.86523413      10.12358432       9.21930893      -0.53445804       0.43684094      -0.41957447       0.44408562      -1.57500267       0.75571663
C        9.46378919       9.71710404       2.69314976      -0.48621879       1.09808197      -0.38103168       0.63262089       1.38962767       0.26716203
C        3.24494549       9.25309984       1.78875712      -3.08490589      -1.41140602      -0.02884386      -1.26497600       0.58545005       0.26570350
Pb       6.62609158      12.57518820      11.89236038       0.51360519       0.10884470       0.28205397       3.73761582      -0.36082213       1.65313996
Pb       6.54229785       6.21489671      11.37640570      -0.19179620       0.28400409       0.58545457       3.21654587      -2.14225727      -2.19818087
Pb       0.27752205       6.56554710       5.41001751      -0.01838312      -0.13569498      -0.09163011       5.40438836      -6.28710213       4.28577621
Pb       0.15431892       6.29180127      11.78312835       0.14616543      -0.09250489       0.20688279      -2.68099319       2.72390750       2.86324223
N        3.92184035      10.05899971       8.76522551       2.06543970       0.41995276      -1.23738744      -0.41689309       0.50098726       0.36135908
N        9.21619179       3.05385757       3.57321766       3.90389248       0.64495710      -2.56596681       0.96257064       0.21925640       0.53681173
N        9.74707458       4.07703259       8.35974715      -1.11425054       0.34508885       1.29324271       0.41138904      -0.24629865       0.81398896
N        3.36311943       3.77987802       9.28449809      -1.37855385       1.45810014       1.33212183      -1.21556375      -0.32194004      -0.07170492
I        6.72169438       1.56578306      15.25531322      -0.02183012      -0.14072047       0.01895660       2.72896891       1.07576947      -0.25967689
I        6.38989773      11.88604144      21.59587798       0.09515148       0.27855716       0.02769348      -0.35140640      -0.09730614      -2.77093480
I        6.57325461       9.55371774      18.21675818      -0.27291338       0.61393028      -0.31248302      -2.90987608      -0.06361064       0.43634976
I        6.48073103       3.46148368      18.90055677       0.15618869      -0.35919497       0.04803030       2.10110692      -0.05013848      -5.78089730
I        0.57755674      11.49755057      21.42531581      -0.09009435       0.12755902       0.34122319       1.90092057       4.48171676      -5.13646776
I       12.10184768       0.15440366      15.75586682       0.19744615       0.36174066      -0.47527885       1.64924608      -0.42985426      -0.73942744
I       12.49821606       3.02219885      18.71803596       0.05193608       0.46041137       0.04085832       5.33960565       0.64571224       1.32833789
I        0.23601417       9.78949149      17.36384571      -0.04170053      -0.95992453       0.02309915       0.01685269       1.35936244       0.00422273
I        9.72593586      12.78664436      25.00949466       0.09706223       0.07173157      -0.32101995       5.12508372       0.84964980      -0.57922659
I        3.34222774       5.52045923      18.79390219      -0.34623548       0.29420627      -0.01440484      -0.35718818       3.41421541      -0.42398342
I        3.11493651       0.06973824      18.15141190      -0.14470718      -0.12749570       0.09147733      -0.18353714       2.62626404      -1.20167074
I        9.58335177      12.33336507      18.41654834       0.14907921       0.15692976       0.22466455      -3.13075599      -2.67420980       1.15044666
H        3.79680509       1.48724193      14.30833666       0.34439910       0.62379137       0.40831953       0.09076304      -0.04873677      -0.28085792
H        8.71302042       4.81535159      14.97940257       0.76620183      -0.46129013       0.75798565       0.15436638       0.52229146      -0.21723275
H        9.72661473       8.49369368      15.09545097      -2.29341848      -0.48592375       0.43231041       0.00887507      -0.05217422       0.41219122
H        2.20332359       1.97802818      20.74129287       1.31457453       0.77938799       0.59804080      -0.01554887      -0.26300464       0.27590539
H        2.92391853       8.56528324      19.69703345       1.07667348       1.41432229       1.03560535      -0.01324956      -0.06723332       0.04698754
H       10.62984509       5.35321409      15.85471759      -0.48379786       0.64395784      -0.03945567       0.16526889      -0.04049670       0.31780769
H        9.24514406       2.30793364      20.86027573      -1.02621690      -0.49021953      -0.25765167       0.22791573      -0.18543639       0.06633478
H        4.03493254       3.06327195      20.69641194       0.84206513      -0.39347294      -0.82842178       0.34913295      -0.24137894      -0.03685568
H        3.63697961       3.61244344      14.24882589      -1.06481589       1.09094787      -2.01548304      -0.11386528       0.37956957      -0.54151578
H       10.52661325       3.72190764      14.72613393      -0.59156264       0.61568575      -0.86277079      -0.08424255       0.03048688       0.25537922
H        9.85291988       9.25163251      17.10414828      -1.09136122       0.23745819       0.06286934      -0.25414290      -0.03112075       0.29635243
H        3.57052780       1.84288996      22.02458748       0.36665741      -1.31944688       1.04982863      -0.26427532       0.05972441      -0.03591310
H        3.90242533       1.72491491      16.80458533      -0.35991774       0.17428257       0.34302812      -0.29878518      -0.10057021      -0.20461803
H        9.97646937       8.05841307      22.66881339       0.37150023      -0.14457396      -0.47315935      -0.31212421       0.41123053       0.08577169
H       10.71281326      11.45780593      16.02975384       0.30951118       0.33303852       0.53629773       0.24245551      -0.02245732      -0.14392019
H        2.57584711      10.17041369      16.47522851      -0.59139665       0.15531010       0.36166238       0.09957051      -0.13576636      -0.16590960
H        2.89191248       3.40546538      16.95515377      -0.24435764      -0.45096212      -0.31747982      -0.06597128       0.25532240       0.35307477
H        9.45490705       9.51569055      23.21582064       1.34389577       0.15740581      -1.25375015      -0.31805909       0.31147914       0.23366966
H        9.00985639      10.84158566      15.57678774      -0.06365371       1.32678723      -0.20446038      -0.26230571       0.16499718      -0.37007343
H        3.57003432      10.67755422      15.19090743       0.22954279      -0.14836686       0.44877927      -0.00131147      -0.06617506      -0.33571108
H        4.47409360       3.35856123      16.42770565       1.05385452       0.23028998      -0.15766805      -0.08313159       0.70210856       0.04223952
H        9.18840804       4.03073186      17.74903952      -0.54785802      -0.62942846      -1.24566945      -0.09835247       0.04128762      -0.22491437
H       10.50363491      10.75860310      14.46058091      -0.13896402      -0.36247332      -0.72209791       0.35242135      -0.21706011      -0.38260874
H        4.25871076      10.15739198      16.73483986      -0.53510125      -0.15816664      -0.63845012       0.06947986       0.11380761      -0.16102667
C        3.67135068       9.44357686      20.24710305       0.22144281       0.06697727       0.35185754      -0.22919594       0.32381876       0.10916678
C        9.79822703       4.52799821      15.47732608       0.90574102      -1.92422584      -0.17097438       0.96867144      -0.55229925       0.85089658
C        9.98104157       2.74548163      21.69765400       1.94741912      -2.13123264       1.83933060       1.04803046       0.22524729       0.20326365
C        3.15035216       2.60653784      21.31591139      -2.33969766       0.56325749      -1.34912559      -0.50856947      -0.51754195      -1.38364080
Pb       6.22023268       6.46403632      18.02168881       0.67301234      -0.56124151       0.06835879      -0.78881715      -6.57470246      -9.12667021
Pb       6.85027000      12.79595445      18.55977280      -0.59035072      -0.04152340       0.06748767      -1.83870998       5.85666666      -2.48216654
Pb       0.43902215      12.97000962      24.33900977      -0.16019995      -0.30745982       0.19766770      -2.58875580      -2.00179125       1.59639410
Pb       0.00744098      12.82909320      18.29198741      -0.19376405       0.47264257       0.36897245       2.92402013       0.05190253      -2.63667098
N        3.64917298       2.79058969      16.34293661      -0.02750424      -1.38084882      -2.21711337      -0.43143425       0.43803720      -0.10027093
N       10.34062298       9.09591989      22.69574232      -1.67818499       0.47635598       0.84068204      -0.78589907       0.05855988       0.57152018
N       10.12937178      10.68118037      15.48159135      -0.66475532      -0.65351535       0.37171334      -0.39659241       0.69534834      -0.61180326
N        3.49277840       9.98124174      15.99938286       1.34027567       1.35586319      -0.11583984       1.19252617       0.54560202      -0.01509018
I        7.71586356       6.80903186      21.57428205      -0.32964094       0.04860717       0.19514062       4.37358991       2.29305845       0.67821518
I        6.03073704       5.73154895      15.07599617      -0.09702440      -0.00963952       0.21911459       2.85774504       5.71564211      -2.99591081
I        5.94399231       3.45948007      23.82683143      -0.16613054      -0.11289278       0.05508406      -0.20878163      -3.42933123      -0.51279087
I        6.91740454       9.30874302      12.53042982       0.11309685       0.74654443      -0.06574799       1.97705312       0.30713536       1.40788926
I        0.66527132       4.96587938      15.07727827       0.10602684       0.22382667       0.33603782      -1.64841519      -1.97786281       0.24151491
I       13.12538668       6.58211858      21.46270016       0.06123176       0.00956734       0.38945402      -1.78839906      -3.40855933      -0.55842990
I       12.50422334       9.77327326      12.82016428       0.06796441      -0.00915456      -0.08858368      -1.57996444      -1.89862342       0.25425726
I       -0.11127119       2.75755312      24.63421789       0.19958216       0.63453673      -0.17574489      -4.68519158      -2.93847943      -2.22414176
I        9.92091491       6.42145331      18.29370776      -0.57658989       0.05549473       0.07563480       1.50217706      -3.56098573      -2.13961389
I        3.44714328      12.17656572      12.73104103       0.21385757      -0.13991482      -0.03332285       3.35456759      -1.87443038       3.00720244
I        3.00924568       6.67177861      23.66121567       1.03135602       0.01701340       0.27574953       1.21214526       1.12294529       4.67587607
I        9.53760244       6.22124063      12.59224628       0.55729343      -0.02463025      -0.10426848       2.66524939      -4.63106390      -0.86878212
H        4.76665967       9.07764390      20.04128953      -0.67613648       0.50653933      -0.57901210       0.22841861      -0.27073149      -0.37593291
H        9.73707623       9.58920248      20.67923237      -0.24217202      -0.12686597       0.22570785       0.30027672       0.07810855      -0.35357661
H        9.47424229       2.59507090      22.87295721       0.01532751       0.55131374      -1.83860498       0.12428138       0.28731968       0.11205038
H        2.70537815       7.92112354      16.32978689       0.03213011      -0.80032990       0.58396901       0.14993422       0.09957106       0.30510912
H        2.12479868       2.23522224      14.60405414      -0.93865881       0.67309217      -0.89593150      -0.11804436      -0.18896443      -0.31650083
H       10.79100777      10.75608877      21.32939150      -0.00026298       3.16389087       1.02988931      -0.44003524      -0.04352535       0.16024975
H       11.32471859       8.91588014      16.06700311       0.37850782       0.72944180      -0.33610710       0.29710962       0.29796291       0.42457597
H        2.95379853       8.81394560      14.35089772      -0.59377821      -0.17900134      -0.49311367       0.10618977      -0.15833987      -0.11330152
H        3.55718102      10.68235083      19.91079260       0.27725493      -0.72446754      -0.86542085       0.38362248       0.21288632       0.02622475
H       11.46412250       9.29485917      20.76813448       0.49592072      -0.44613981       0.55164316       0.13999878       0.01382843      -0.04524737
H       11.00406797       2.14487281      21.73418113      -0.74884671       0.24017833       0.40278272      -0.31155883      -0.29059574       0.35772290
H        4.75037069       7.98823082      15.37363435      -0.52064819       0.54149293       0.41268223       0.00460555      -0.22226234      -0.15583357
H        2.70851782      10.31291779      22.05796810       0.45971826      -0.88013362       0.19457488       0.33543329       0.54606476       0.21763891
H       10.40894743       3.16045041      16.88969920       1.71644462      -1.58720590       0.30677328       0.13087948      -0.13396448      -0.21194400
H        9.77652874       4.87180901      21.32232817      -1.26395721      -0.21470295      -0.12362728       0.16844169       0.06848665       0.14399369
H        2.41625830       4.76722392      21.59424265      -0.31406506      -0.18545333      -0.52987600       0.00362136       0.28809549      -0.01153208
H        4.38465406      10.15230874      22.25351316       0.16478859      -0.12245066       0.16987888      -0.06473034       0.16118204       0.05761393
H        8.77825934       2.60451962      16.40656765       0.39395235       0.61042069       0.02405764       0.10544649      -0.22925058      -0.07379113
H       10.66910397       4.10143706      20.11002434       0.17754522       0.25231107       1.35713821       0.21389958       0.20105807       0.00539888
H        3.33284161       4.09780649      22.77638816      -0.72709544       0.23015701       0.02754963       0.59004524       0.00330979       0.08698759
H        3.37244714       8.54365600      22.33457230      -0.06204676       1.02435701       0.12415139       0.10849040      -0.18009887      -0.07468789
H       11.14102444       9.06432914      23.44631088       0.13994155       0.42691917      -0.52933406       0.09628876      -0.01298766       0.03838877
H       11.26722401       4.48120242      21.72193749       1.45928765       0.13600523      -0.25840206      -0.19515956       0.22073722      -0.30474992
H        1.65046297       3.55118739      22.62350177      -1.14304569       0.37908539       1.04614068       0.44933412      -0.25130972      -0.13002988
C        3.21683462       2.55055864      14.64939227       1.23425632      -0.62371826       4.73450596       1.32055718       0.53630574      -1.11312876
C       10.62845629       9.75740663      21.31370810      -0.51974963      -3.23241027      -0.08078883       0.77923443      -1.32266311       0.44209940
C       10.18831733       9.28690270      16.00604170       3.29491512      -0.87471850      -0.70221107       0.59037720      -0.12031093      -0.10631033
C        3.48652643       8.60176233      15.48044876       0.86509259      -0.55888917      -0.77485794       0.53583206       0.74959871      -0.56458286
Pb       6.95212846      12.96084542      24.80999597      -0.70239427      -0.25953580      -0.32213625      -5.19152439       4.96305396       2.58726235
Pb       6.35275917       6.40873997      24.35852523       0.00625815       0.05933508      -0.33190173       1.39743662       1.59699714       0.99761011
Pb       0.28478180       6.40796123      17.81204653      -0.10737428       0.18820874       0.09324345      -2.09522159      -1.20727893      -3.77806521
Pb      -0.14467552       6.55568738      24.86885581       0.07186130      -0.18914898      -0.13228082       1.63326333       2.71643419      -4.78046244
N        3.51902943       9.63213599      21.87287829      -1.43228937      -1.18572183      -0.32747321      -0.00065646       1.95613039       1.28511271
N        9.50488946       3.51956875      16.69825015      -2.14874109       2.17620867       1.06526294       0.20150680      -0.64740884      -1.55863099