768
Lattice="25.625769195560288 0.1442251890105203 -0.06288156074118129 -0.08544278206367628 25.555723663810763 -0.05823012908242495 0.07213310111533067 -0.1299461261962401 25.66616038795785" Properties=species:S:1:pos:R:3:forces:R:3:momenta:R:3 energy=-3330.773200963544 stress="0.0 0.0 0.0 0.0 0.0 0.0 0.0 0.0 0.0" pbc="T T T"
I        6.62167785       0.72024230       2.59116820       0.09597079       0.04725269       0.03312657       0.74630671      -0.24279575       0.27126033
I        6.23891059      12.39974397       9.00871285      -0.08668675       0.03571431       0.15292688       1.23004077       2.17298645       1.11991832
I        6.07435777       9.71799637       5.23360061       0.09499873       0.36236349      -0.07057039       1.00717481       1.16124368      -0.29806118
I        6.88457255       3.39622992       6.16218958      -0.03496902      -0.17789986       0.00312658      -3.57368644       1.18975166      -2.75650258
I        0.70112978      12.39423267       8.90578200       0.07299090      -0.04900575       0.27639483      -0.40169014      -1.26873007       0.03562024
I       12.43971920       1.01324648       2.57087323      -0.05613997       0.02671601       0.05550374      -0.35316491      -0.69584842      -0.62607091
I       12.42877369       3.52135638       6.40310501       0.12025361       0.04549121      -0.16711861       0.13741880       0.00382424       1.84271231
I        0.38104416       9.83230572       4.97640381       0.23995366       0.18653645      -0.08480741       1.69534569      -0.13473363      -0.03768599
I        9.70722213      13.01351941      11.84373563      -0.09341311       0.05482076       0.04730797      -2.50133724      -1.24409544      -3.10808185
I        3.26901836       6.07059010       6.06626749       0.32937297       0.02333251       0.08868705      -0.49008927       0.11999043       0.94452247
I        3.17177233       0.63355469       5.40180010       0.12032272      -0.00530672      -0.16215349      -1.12459118      -0.48408860       1.02065764
I        9.65512770      12.79295596       6.10350956       0.17120391       0.05013772      -0.09110531       3.04803826       0.43637948      -0.76862654
H        3.92392953       2.72748548       1.45513121      -0.58310686      -0.00434231       0.21457446      -0.03371096       0.00585806       0.16206744
H        8.59140197       4.55089483       1.93124567       1.31149616      -0.97528050      -0.68245709       0.03303399       0.05985708       0.01262926
H        8.81825652       9.43775333       2.73750165      -0.33459750       0.02116470      -0.31871318      -0.02534262      -0.16783996      -0.17306027
H        2.32207396       2.85012787       8.00520967      -0.67505775      -0.46898908      -0.27853662       0.12621079      -0.05695155      -0.03380369
H        2.77846665       8.73241126       8.11282998       0.25249281       0.36774667       0.15913583       0.01977312       0.23725462      -0.03093396
H       10.41574790       4.44713497       1.75908448       0.25942449       0.15094223      -0.24956367       0.01513996       0.06588689      -0.12231432
H        8.90392236       2.60420767       8.35545677      -0.42724474       0.12289731      -0.23418505       0.01646085       0.04350153       0.35389925
H        4.11468016       2.48086392       8.00089854      -0.33053044      -0.01280254       0.01166682       0.00017780      -0.06058085       0.00117234
H        2.77289644       4.01874523       0.95266074      -0.31121827      -0.19297195       1.01496125      -0.05984639      -0.07045514       0.05422251
H        9.47791825       3.02578676       1.22488600      -0.28375892      -0.61499499      -0.96221525      -0.03674816      -0.10612328      -0.07768390
H        9.48184997      10.55910505       4.05808898       0.26457104      -0.19786991      -0.86489314       0.00316826       0.10279474       0.06999920
H        3.13947498       1.90581249       9.38401535      -0.37739474      -0.31681317       0.11976062      -0.08505038      -0.00804068      -0.01031609
H        2.92347600       2.80667908       3.82136639       0.24926385       0.63229858      -0.48425429       0.22145010       0.13856003       0.06799431
H        9.90704054       8.29645360      10.47186943      -0.09392474       0.86503709      -0.10865811      -0.02581263       0.03649565      -0.05350528
H       10.40356727      12.03414624       2.08043024       0.04178545      -0.62135068      -0.36463359      -0.04801978      -0.13357114      -0.01073495
H        2.78390603      10.65171376       3.87632726       0.37477785       0.26111178      -0.44536916       0.00971476       0.14322101      -0.06810115
H        2.09699100       4.25484041       3.37859617       0.26450098      -0.09357130      -0.11704289       0.06523800      -0.16999505       0.08849561
H        9.10735695       9.51345427      11.27817297      -0.57171910       0.27482128       0.06312530      -0.05658337      -0.04363496      -0.13544763
H        8.79399073      12.00553116       2.38908102      -0.42903801      -0.05204706      -0.61048052       0.03622607      -0.28431700      -0.23309855
H        3.28914732      11.39953972       2.33762739       0.02100640      -0.71771958       0.14551975       0.11262531       0.11219351       0.00490546
H        3.78981854       4.29937001       3.39783153      -0.49304305      -0.57186477      -0.16314807      -0.10190318       0.14438261      -0.22477478
H        9.67571298       3.91317078       4.07988049      -0.27189218       1.04026061      -0.03126545       0.25064408      -0.09711821      -0.17046236
H        9.35999426      11.02238862       1.02796871       0.00075584       0.55054542      -0.37110372       0.04272995      -0.00203096       0.17775843
H        4.47220421      10.54992029       3.35500406      -0.13847139       0.34675795       0.23745022       0.04920083       0.17759766      -0.20183579
C        3.64674793       9.40806617       8.30926859       0.76159716      -1.13293229      -1.13583563       0.72869406      -0.07208734       0.53820542
C        9.51678098       3.85353046       1.88469558      -1.25958438       2.49751715       1.41448906       0.10360732      -0.40112787      -0.82908379
C        9.76729829       3.07019035       8.85487485       1.11632446      -0.18147860       0.60106504       0.56593492       0.25956242       0.07668266
C        3.20990056       2.67431687       8.62056034       1.35352363       1.51858889       0.37054910       0.56241616       0.37492011       0.11808324
Pb       6.74007867       6.61456007       5.50279792      -0.42991351      -0.16056360       0.12579026      -1.84021406      -0.12732936       0.35945288
Pb       6.40217422      13.17568912       5.72518009       0.26080580      -0.37650048       0.15140391       0.24508488       0.84799142       0.24758070
Pb       0.07034299      12.92136197      12.13994493       0.19743369      -0.02075902      -0.14499501       3.03816698       3.43580805      -0.48926114
Pb       0.27431358      13.04773862       5.73151840      -0.29789507       0.08415515      -0.10756332       1.59484176       0.10577881      -3.09815229
N        2.95192907       3.67472954       3.16642584      -0.08397019       0.11862814       0.32576368      -0.53892668      -0.80286105      -0.50253756
N        9.87959584       9.34672623      10.60951270       0.97134204      -0.97852084       0.18426325      -0.34528397      -0.37126369      -0.65476454
N        9.54824074      11.37640303       2.02293376      -0.11566265      -0.36728822       1.55383596      -0.34114756      -0.54892140       0.61796346
N        3.44068241      10.57560734       2.99317790      -0.12065918      -0.50205284       0.36739221       0.96477989       0.06985728       0.41453814
I        7.22993780       6.70831284       8.99665220      -0.15725671       0.09353448       0.11317458      -1.13815496       0.43088395      -3.36302964
I        6.01498489       5.50219441       2.52078803       0.04398936       0.21461412       0.11710454       0.17256423       2.08721428      -0.47670998
I        6.11975078       3.39503004      11.73688866      -0.00945568      -0.11371969      -0.01859501       2.15524813      -3.71750673      -0.42309435
I        6.79304664       9.74701107      25.43988050       0.12003138       0.10570564       0.10901850      -1.45862810      -0.51091689       0.98096127
I        0.31237517       6.06901997       2.28556055      -0.06368649       0.00942729       0.14886557      -0.29054160      -0.29879803      -0.07193060
I       12.69882973       7.12274377       8.94769434      -0.07131045      -0.03953730      -0.05798346       0.59210802      -0.62501358      -0.01329774
I       12.55740753       9.76168793      25.48803959      -0.07887339       0.27222799       0.04148812       1.99541223      -2.22702810       1.61076589
I        0.84415604       3.20231385      11.73961385      -0.09044523       0.08882289      -0.05892235      -1.12392694       0.42297093       0.53887345
I        9.76527686       6.60399681       5.30606039      -0.08028976      -0.00009145      -0.16465581      -0.66917892      -1.54132568      -1.44986056
I        3.18867561      12.05933315      25.36300706      -0.02481279       0.22845601       0.12869307      -1.81066857      -2.16854725      -1.14919844
I        3.17407409       7.01403463      11.58880644       0.55556659       0.02000922      -0.02645906      -0.33911705      -0.89105524      -0.94029420
I        9.89826150       5.99892138      24.85688186      -0.39323004       0.14734482      -0.10713218       0.57769871       0.64485354       0.57817346
H        4.59366411       8.77299603       8.25987386      -1.12986347       0.86259865       0.30271412      -0.24026382       0.05078104      -0.22207525
H        8.84684409       9.84277346       8.83795258      -0.41550142       0.15545555      -0.27038570      -0.01184129       0.15616144       0.17401445
H        9.62962110       3.06870071       9.95803090      -0.05407422       0.00291191       0.04911665      -0.08383578      -0.32823069       0.10316520
H        3.10476913       8.40815068       3.13712006       0.08796301       0.85868410      -0.19280295       0.13943998      -0.09531817       0.02523089
H        2.08578149       2.47374805       1.71187273       0.15638080      -0.08048878      -0.32452517       0.12009916       0.23495766       0.01307736
H        9.88636986      11.17461944       9.56195045      -0.30379859       0.56637101      -0.03789221       0.03616773      -0.04830144      -0.04321996
H       10.61042518       9.69849755       2.83396874       0.24648071      -0.43175696       0.15929642       0.04292388      -0.16813976       0.08250198
H        2.17251142       9.20679346       1.86137036      -0.28985431       0.19842550      -0.00130965       0.08758712      -0.02664798      -0.13597760
H        3.72908318      10.17640389       7.49400252      -0.11104375      -0.44423850       0.71446437       0.02567999      -0.13349644       0.04597200
H       10.65249339       9.78372314       8.71038248      -0.68788455       0.28121423       0.20437901      -0.14194833       0.00584244       0.01543055
H       10.68891027       2.49122259       8.63407119      -0.29329725       0.20665573       0.01291668       0.24306028       0.03891998      -0.15731808
H        3.89655881       8.91388401       1.59016533       0.98768403       0.35730012      -0.38055183      -0.08403669       0.11221322      -0.05733449
H        2.65947937      10.72900879       9.62588819       1.24735188      -0.94572716       0.21278213       0.09853477      -0.10196877       0.11484371
H       10.26253597       2.58027805       3.33476184       0.53543049      -0.89013135       0.14986259      -0.00881303       0.02995913       0.07404135
H        9.25867137       5.16314592       8.77035403      -0.11754826      -0.13280443      -0.20998149       0.14694333       0.08617631      -0.05726883
H        3.36517618       4.83174756       8.68454620       0.37145068      -0.25910727      -0.40278401       0.09406462      -0.20592344      -0.11806988
H        4.38191870      10.65774226       9.70767750      -0.00046331       0.45652249       0.25763870      -0.13714528       0.00012347       0.12577577
H        8.57068756       2.83148978       3.31729035       0.35315704      -0.26139749       0.61112766      -0.02795554       0.01239448      -0.00253740
H        9.94030268       4.56093850       7.35888475      -0.00931010       0.00574708      -0.40308682      -0.04113216       0.13136236       0.01534170
H        4.47499301       4.08034444       9.77766664      -0.73254718      -0.28861232      -0.44790844       0.09165104       0.01391350       0.18952873
H        3.53981880       9.40380535      10.42723409      -0.44239698      -0.10254246      -0.00048768      -0.06309081      -0.12716423      -0.04241678
H       10.77567268       9.55754772      11.15382323      -0.45623697      -0.02333829      -0.41431369       0.01860949      -0.13193726       0.08816301
H       10.90772947       4.92991042       8.67491776       0.00603574      -0.37061332       0.09263425      -0.01657900       0.00215270      -0.05633994
H        2.80507793       4.26117185      10.10431990      -0.44929360      -0.56428836       0.38424733       0.20509862      -0.27215042       0.03984964
C        2.91600440       3.19850995       1.71868749       0.85060257       0.14843030      -0.35516614       0.02166252      -0.48614835       0.33293946
C        9.77365664      10.12221121       9.32045719       1.44061349      -1.23832212       0.16521901       0.05516695      -0.46921214       0.24153500
C        9.61926520      10.15699885       2.97995084       0.37308942       1.01585099       0.91806678      -0.12336508      -0.00860903      -0.46036090
C        3.15144776       9.21940451       2.36299441      -1.03766838      -0.99705937       0.17976937      -0.55410473       0.67864000       0.12679316
Pb       6.47110815      13.00887883      12.23218325       0.02446137      -0.10252080      -0.15583147      -2.79037583      -1.36137216      -1.42173075
Pb       6.56549501       6.54218078      12.27416328       0.06093182      -0.03933343      -0.24693721      -0.87243822      -0.32464657       0.57899488
Pb       0.34003089       6.87694410       5.56308002      -0.17362970      -0.32874044       0.04605630       0.80480929       0.61837377       3.13258047
Pb       0.22311597       6.39384898      12.24728373      -0.01017453      -0.10366419      -0.13013042       2.03687861      -1.38525812      -2.23308472
N        3.52985654      10.07277210       9.63462479      -0.75457381       0.99282964      -0.51024579      -0.36581679       0.08667644       0.27306163
N        9.52186459       3.29183773       3.25497686      -0.58527484      -1.14944556      -0.10736440       0.34064190       0.67055116       0.17340853
N        9.99373251       4.49189689       8.38843780      -0.30448654       0.49290378       0.36816142       0.04964433      -0.30048878       0.56012466
N        3.48467274       4.02035374       9.32801465       0.86156094       0.48029541       0.12670567      -0.11645416       0.10057619      -0.19480444
I        6.68108184       0.37618674      15.38902932       0.09568831      -0.07612720       0.16023355       2.05259646      -2.08943132       0.67793007
I        5.85189354      12.38815695      21.92983442      -0.04875428      -0.12025261       0.01238509      -2.12106284       0.65335050       0.73718793
I        6.06272104       9.78903570      18.13205638      -0.03340760      -0.23812482      -0.16517863      -0.52832741       0.65611536       0.28373473
I        6.93695746       3.19288492      18.77594187      -0.02176127       0.22946124       0.04032278      -2.09082067       0.63016070       0.51084871
I        0.47351742      12.12117918      21.75302878      -0.07665692       0.11543354       0.07188526       0.01596918      -2.19382531      -0.08238113
I       12.63466039       0.77058474      15.22829042      -0.11343209      -0.24642715       0.27300918       0.49373368      -1.38594720       1.31353462
I       12.73519495       3.46697506      18.93690317      -0.04280414      -0.07489754       0.01111408      -1.53427665       0.12616237       1.80176120
I        0.42833991       9.74181622      17.85305233       0.00479251       0.09133076       0.00096873      -0.07013800       3.14652227      -0.97246343
I        9.54098714      13.11400517      24.71561525       0.21096273       0.03279447      -0.06876159       0.14250546      -2.03536282      -0.69199714
I        3.37882062       6.02137429      19.14491672      -0.12749404       0.01064425      -0.07354362       0.78496649       2.41592664      -1.91835307
I        3.27503724       0.49849349      18.36053411      -0.10383937      -0.09282548      -0.07247056      -1.16651828      -0.08143993       1.27808343
I        9.70999705      12.80137754      18.78697880      -0.28299646      -0.03650416       0.02448077      -1.66861299      -0.58575992      -0.36788891
H        4.61266344       2.52908658      14.93939632       0.24533383       0.39541634      -0.22929474       0.14171309       0.11310794       0.07709887
H        8.48545693       3.53009909      15.22494528      -0.59964951       0.76175027      -0.04127854      -0.28347694      -0.00057256       0.10328973
H        9.05856007       9.16016614      15.32789066      -0.38878700      -0.54954439      -0.01321948      -0.03811311       0.11498369      -0.05537369
H        2.56605698       2.71414603      20.57778879       0.13692065       0.05377596      -0.40217261       0.00461895       0.09230701       0.06696922
H        2.61812184       8.68861123      20.54246644       0.06092156      -0.29459599       0.28019916       0.07215000      -0.23293435       0.09951191
H       10.26106525       3.57090848      14.41849903       0.01752970      -0.19540805       0.19538851       0.05543306      -0.09473658      -0.16726247
H        8.78194311       2.96057302      21.23184745       0.44850966      -0.09009379       0.01167867       0.09360371      -0.12580786       0.04458524
H        4.45815072       2.66249454      21.03993579      -1.38169228      -0.35104981       0.45093798       0.04404458      -0.15579880       0.05743219
H        3.01310824       3.57896977      14.18644139       0.39146474      -0.70592057       0.30125678       0.03192705       0.04585043      -0.00578633
H        9.05402933       2.15597834      14.23230276       0.31928105      -0.51821131      -0.22060287       0.05816684       0.16519593      -0.06685853
H        9.59435123       9.93989921      16.90493318      -0.06153649       0.13798961      -0.03467002      -0.02683475       0.17284481      -0.10616103
H        3.05512555       1.88788941      22.11612237       0.25923389      -0.36615341       0.32574882       0.01782832       0.01897882       0.10780771
H        3.54795335       3.00498199      17.14435451      -0.53977663       0.07601059      -0.33985513      -0.20515944       0.03161378       0.24971489
H        9.81868499       8.39102321      23.12100519       0.28409723       0.63798259       0.16249497       0.06260919      -0.05899887      -0.10100866
H       10.27134492      11.93155571      15.36820583       0.52727977       0.23809743       0.66387919       0.12980691      -0.05467288      -0.12519339
H        2.43912570      10.40360408      16.43352751      -0.58607985       0.24664026       0.63803369       0.08536956       0.00578792      -0.10880862
H        2.44764471       4.12851980      16.39539691      -0.79118318       0.32481125      -0.08402083       0.02931018       0.01563124      -0.10816058
H        8.72361917       9.51328569      23.75070623       0.33411898       0.00850866      -0.40105610      -0.14135941       0.02636234      -0.22108856
H        8.58723255      11.55526930      15.43717967      -0.00198538       0.47609606       0.20106719      -0.12007772       0.00376747      -0.08968822
H        3.20825454      11.16117353      15.12165490       0.11701051       0.52874623       0.26574648       0.15427443      -0.14190300      -0.16316520
H        4.09949339       4.31588002      16.31266660       0.34832090       0.85595901       0.18604498      -0.08622075      -0.01937230      -0.06236290
H       10.67538503       3.20196581      17.01458641      -0.32428136      -0.77750673      -0.34419376      -0.14242995       0.11476704      -0.19398971
H        9.54978400      11.18280786      14.13831679      -0.02074506      -0.32382481       0.42608727      -0.01314063      -0.08957332      -0.03741774
H        4.13069180      10.33417716      16.35091590      -0.12527928       0.69547264       0.14764659      -0.04545715      -0.06793687       0.02707539
C        3.39062559       9.45292068      20.91438410       0.75962640      -0.36642415       0.79140319      -0.17838715      -0.29137474      -0.12716962
C        9.43229486       2.94920115      14.96710273      -0.35093664      -0.11171732      -0.21118673       0.17335116       0.24442813      -0.05392524
C        9.74692237       3.42308989      21.52797293      -0.55410825      -0.33044205       0.58603190       0.19328787      -0.78090490      -0.40337024
C        3.32529611       2.69798097      21.40069168       1.18926471       0.56145126      -0.31815085      -0.10984362       0.12537978       0.35510174
Pb       6.55414137       6.40038881      18.45909141      -0.12364135      -0.06461689       0.17662559       1.35544226       1.57041690       2.38471885
Pb       6.40633014      12.76434734      18.71716580       0.05621851       0.06247986      -0.05414520      -0.69187925      -1.40933107       1.22601543
Pb       0.11860463      13.23097540      24.83392075      -0.10114046      -0.28561722      -0.15240563       2.35453371       1.19274181       0.52516286
Pb       0.27171476      12.90233598      18.58359537      -0.12053506      -0.09832936       0.30137343       2.47467318      -1.69949692       2.54917817
N        3.33318654       3.63251935      16.30404680       1.76598717      -1.30080002       0.25395475      -0.47508070      -0.93322263       0.60561758
N        9.70337193       9.43264072      23.28539741      -1.09431325      -0.99422516       0.59843874       0.10575824      -0.79228586       0.01461754
N        9.55531952      11.19360483      15.18855581      -0.24995885      -0.28263486      -1.23629790       0.04939968       0.24396747      -0.48042423
N        3.23835432      10.38476563      15.80260405       0.66935220      -0.21956715      -0.55675524      -0.44341273       0.48270686       0.20485123
I        6.80427037       7.04955077      21.93721262       0.22366445      -0.01061235      -0.23403638       3.07809859       1.17306374      -0.30962143
I        5.87248071       5.99309376      15.56122980       0.06775050       0.03017252      -0.29791133      -2.14145329      -1.35011344      -0.98026946
I        6.19223360       3.44362281      24.28482483      -0.05487564      -0.14983595       0.00474487       0.36629738      -0.02485099      -0.97205297
I        6.88935798       9.59697088      12.69916060      -0.04196219       0.38671760       0.04783045       1.80157274      -0.95051642       0.42394667
I        0.59107845       5.68350071      15.31020707      -0.07872176       0.11594526       0.09597238       0.13522328      -1.41967676      -1.23459551
I       12.76647917       7.04190170      21.60807794      -0.18261454       0.00159666      -0.06475549      -0.66813798       1.97387952       1.58590172
I       12.61709852       9.91596146      12.59569577       0.07490772      -0.05549310       0.17384747       1.86782672      -0.20603428      -1.94703408
I        0.26316912       3.44590705      24.31055401       0.11886495      -0.13793835      -0.11217759      -1.21086013      -0.95396018      -1.38046590
I        9.66673969       6.29144105      17.69779966       0.32530464      -0.11606048      -0.00203245       0.12280018      -0.08379286      -0.62360301
I        3.23658950      12.38011712      12.76279863       0.08224338      -0.02399141      -0.04099489       0.50845188      -1.83263450      -1.30443782
I        3.32596194       7.00625470      24.37110034       0.09891361      -0.16920332       0.11054605       0.16830513       0.96428506      -1.04266856
I        9.81048191       6.06709169      12.33762509      -0.17666085      -0.00041970      -0.06383470       0.41608346       1.64967008       0.57383459
H        4.46600433       9.05084977      20.84572558      -0.75343332       0.21374638      -0.22234807      -0.01417336      -0.03726965      -0.02323989
H        9.17753961       9.81011600      21.26643939      -1.31493206      -0.41126896      -0.68439355      -0.19567407      -0.06595038       0.01595344
H        9.80503967       3.43343550      22.63646821       0.19933938      -0.07220462      -0.16650878      -0.01527658      -0.05764373      -0.17398477
H        3.59250619       8.33470320      15.78542657       0.00503812       0.06488507      -0.71130197       0.04912031       0.00672598       0.16252825
H        2.83242708       1.83432351      15.18128626       0.68566064       0.54535776      -0.41176392       0.17783871       0.00723715       0.20045719
H        9.63438017      11.27335517      22.33177905      -0.09786396       0.10347099      -0.24028800      -0.01425601       0.12014182       0.17081910
H       10.86581110       9.49396583      15.64585200      -0.38489166       0.24530591      -0.06407260       0.11524069       0.07531551       0.10279581
H        2.12312184       8.93511348      14.67302666       0.52847174      -0.02312810       0.13292743      -0.02294214       0.01583198       0.07314822
H        3.31081535      10.37402072      20.30344231       0.24655911       0.60599980      -0.26268274      -0.11091891      -0.05002677      -0.05541481
H       10.94088462      10.16362014      21.64844198      -0.05601970      -0.05207479       0.04925546      -0.09543099       0.06959029      -0.12761246
H       10.62947165       2.93191053      21.06529506      -0.28409339      -0.04970371       0.10879990      -0.04685669       0.12559573       0.08705808
H        3.96009279       9.32414590      14.17143571       0.06681868      -0.44732741      -0.34134939      -0.25105594       0.23847623       0.04819333
H        2.11404176      10.16337665      22.59186714      -0.80036128       1.05856164       0.01852291       0.02642731      -0.06666545       0.06736824
H       10.80783092       1.55030922      16.01653905      -0.14738791       0.41262350      -0.18031991      -0.09859836      -0.02694433      -0.05876145
H        8.88654586       5.41462685      21.45546266       0.64899744      -0.55342841       0.00396806       0.01026186      -0.15591253      -0.03319590
H        3.34762333       4.75398771      21.42731921      -0.43896586       0.40332719      -0.12540496       0.16564111       0.07510114       0.06897807
H        3.79800140      10.58137217      22.81879648      -0.86073384      -0.61602820      -0.16286157      -0.12861244      -0.04644980       0.14120074
H        9.16284147       1.99129546      17.09776480       0.33612711       0.88136016      -0.62349112      -0.18402580      -0.06251775      -0.02077462
H        9.49974618       4.82160778      20.00289168       0.28216505       0.30565917       0.04277493       0.14653779       0.00405120       0.07621733
H        3.99133492       4.14749012      22.79308002       0.77815740      -0.30383108       0.66957645       0.07187011      -0.01481861      -0.13242248
H        3.09767594       8.89287314      23.01473588       0.25959601      -0.37830479       0.49288319       0.05702294       0.22295200      -0.05619598
H       10.37945563       9.76737565      24.03884339       0.50185221      -0.18408946      -0.00695482       0.01068173       0.01260725      -0.10661306
H       10.57172477       5.31591879      21.24942606       0.39114150       0.31981234      -0.07032373       0.12298390      -0.29655183       0.09501835
H        2.34941350       4.10145517      22.67110457      -0.37535371       0.09696014       0.05374049      -0.04038402      -0.10370644      -0.08243167
C        3.50910550       2.84776077      15.02157186      -2.25286921      -0.39500503       0.38769446       0.05967706      -0.28130674      -0.22051853
C        9.85313312      10.21279179      22.02909956       1.43069183       0.74324874       0.45452666       0.43762617       0.62608867      -0.44889002
C        9.78852599       9.84383933      15.81362120       0.80769557       0.05820400      -0.09602150       0.84099676       0.26107677       0.44744991
C        3.22219680       9.14058262      15.02112583      -0.55757398      -0.85525468       0.43684715      -0.37938680      -0.08052555       0.11930182
Pb       6.35474385      13.02113335      24.96621846      -0.07287588      -0.01662158      -0.09536175       0.59314390       1.08158789       2.15652343
Pb       6.53800367       6.55113113      24.96446185       0.03327495      -0.14223459       0.03240720      -0.13083824      -0.09308007       0.23575383
Pb       0.07047714       6.47864484      18.55581557       0.22126882      -0.09338100      -0.28312823       2.65258113       1.20304835       1.62619977
Pb      -0.02394106       6.84889102      24.75009656      -0.05147204      -0.14254115       0.37197540       3.90366836      -0.88745991       0.76669109
N        3.08278871       9.80653119      22.44282882       1.24336562      -0.00592835      -0.98989926      -1.03255143      -0.18966211      -0.04777366
N       10.02320472       2.39742175      16.33310547       0.62351842      -0.07153335       1.43013563       0.63929514      -0.10515628      -0.16196858