768
Lattice="25.625769195560288 0.1442251890105203 -0.06288156074118129 -0.08544278206367628 25.555723663810763 -0.05823012908242495 0.07213310111533067 -0.1299461261962401 25.66616038795785" Properties=species:S:1:pos:R:3:forces:R:3:momenta:R:3 pbc="T T T"
I        6.12108145       0.11329438       1.84056445      -0.07679870      -0.06350392       0.14101925       0.05235787       0.05714673      -0.96525899
I        5.35450384      11.64487033       8.28590020      -0.09301458      -0.01087649      -0.20429982      -1.01617165      -1.00020634      -0.01997726
I        5.03495718       9.16237985       4.43982216       0.01237455      -0.01210281      -0.03213401       0.98265101       0.81585568       1.05557666
I        5.61173661       2.72086196       5.35867929       0.13909706      -0.03128255      -0.01910472      -2.04809055       0.05361521      -0.57973545
I       25.41577590      11.99304122       8.47652786      -0.11795660      -0.09198531      -0.25934433       0.92623077      -0.38015975      -1.82614395
I       11.85571186      25.42605302       1.95086939      -0.28518119       0.13372644       0.12354283       1.33681564       0.47323539       1.54568641
I       11.63314843       2.72911196       5.50165671      -0.03164050      -0.08858923       0.09613966       0.00270327       1.02732516       2.27474224
I       24.95185982       9.17392529       4.43895328      -0.00121516       0.09218567       0.04897591       1.00936468      -0.99416865      -0.10169872
I        8.84989749      12.61126645      11.32623697      -0.15126639      -0.09807606      -0.06253123      -0.99380857       0.79235382       0.79225019
I        2.19527094       5.50539377       5.63443835       0.19565160      -0.02604057      -0.07103849      -1.93635688      -0.64819551      -0.02440112
I        2.27999709      25.33171878       4.45954321       0.13997820       0.27016188       0.06033755       0.05355540       1.66719046       2.54473584
I        8.81716300      11.90719349       5.18033686      -0.14350551       0.07809267      -0.01105747      -1.87914071       0.26187564       0.81577177
H        3.53015536       1.92222339       1.47390482      -0.06524073      -0.39166083       0.24315055       0.10087567       0.01122315      -0.13732375
H        7.69812170       3.40174308       1.58987704       0.19541335       0.13561539      -0.07625842      -0.02666931       0.05566208      -0.01181241
H        7.75836838       8.61394211       1.52044350       0.10071723       0.04258025      -0.15074717      -0.01471014       0.07161458      -0.07514878
H        1.62538135       1.82582851       7.23033517      -0.51587911      -0.22189719      -0.40830502      -0.16529604      -0.04795545      -0.02162241
H        1.28999084       8.39774004       7.75607658       0.07625747      -0.36820057      -0.08782672       0.10219957       0.10618801       0.18824922
H        9.51888711       3.75535780       1.36053996       0.25193444       0.44324420       0.16698843      -0.13152099      -0.03934450       0.21526904
H        7.70403569       2.04530079       7.84051325       0.94934464       0.19668108       0.29148816       0.00524546       0.08028289      -0.13847204
H        3.38946577       1.88758836       7.43635153       0.93394083       0.10351774      -0.60514407       0.32132918       0.09781465       0.02994090
H        2.37542346       2.92665082       0.61590907      -0.36947109       1.18335424      -1.57777334      -0.12675014       0.02448296      -0.18751685
H        8.88024920       2.19819500       0.80357112      -0.25633839       0.15158250       0.18959827      -0.01758212       0.08705201      -0.04060294
H        8.03197523       9.34584162       3.30194278      -0.02690903      -0.08866127      -0.19166946       0.27006038       0.06095075       0.07170711
H        2.38215178       1.19466864       8.74244130       0.00925694       0.04814547      -0.23165230       0.04485593      -0.30543317      -0.14580405
H        2.37746660       2.74537836       3.54025437      -0.24528753      -0.28079841       0.27841413       0.16917780       0.03701084      -0.07559597
H        8.95320304       7.56430014       9.13031414       0.22853482      -0.21770579       0.34681147       0.08617164       0.08975915      -0.10093073
H        9.51287122      11.06809076       2.08366270       0.67900009       0.10291708      -0.03245559       0.07018497       0.09141107      -0.07630424
H        1.28231733       9.91302589       3.18929486       0.38565686      -0.20472242      -0.30271603      -0.02206399      -0.04466411      -0.23284267
H        1.48802320       3.84789678       2.55867718      -0.64277923       0.28209154       0.16487571      -0.16335900      -0.08641578      -0.01831248
H        8.16369293       8.80444170       9.95075578       0.06212700      -0.28879291       0.11436272       0.24851872      -0.04933851      -0.11185923
H        7.89532807      11.22669959       1.64235004      -0.31770313      -0.27369610       0.19526283       0.16421566       0.14533393      -0.17685008
H        1.77299365      10.97957169       1.88788642      -0.00076539      -0.43341222      -0.32413090      -0.01959394      -0.02485593       0.06802710
H        3.13711635       3.91479885       2.66421054       0.34638241       0.45716270       0.09496754      -0.17139077      -0.18746901       0.04958951
H        9.31278695       3.08463839       3.65543065      -0.10579393      -0.24382909      -0.07816813       0.00542723       0.13779227      -0.08250072
H        8.96601327      10.54127870       0.55004838       0.23203236      -0.02511559       0.36503169       0.09534727       0.03256450      -0.03568135
H        2.94790339      10.34821287       2.91887304       0.29227190      -0.15487922       0.39065881      -0.08766950      -0.25642850       0.08946033
C        2.22546642       8.96222500       7.73755950       1.34057042      -1.13951457       0.87415623       0.11300299       0.22310615       0.28146876
C        8.75509456       2.99188532       1.57660880      -0.46106389      -0.90642301      -0.32745543      -0.72673009      -0.15874733      -0.06925326
C        8.50352724       2.65889192       8.40808174      -0.31619342      -1.31906963       0.35874994       0.17157860      -0.20695970       0.15653974
C        2.44270090       1.93964620       7.92752650      -0.81667686       0.63942499       1.86063189       0.25092321       0.08421252      -0.36150951
Pb       5.56983046       5.89046234       4.90138934      -0.15041692      -0.05132768       0.14141678      -0.79204806      -0.10622197      -0.57809120
Pb       5.54436981      12.16172871       4.93427684      -0.03344210       0.17312549      -0.07673364      -1.56696634      -1.68548618      -1.17628721
Pb      24.78275624      12.27504579      11.55307605       0.07266095       0.39666923      -0.07980391       4.96806915       1.29155364      -1.18619986
Pb      24.77425030      12.41857554       5.22920626       0.09562011      -0.23712854      -0.03685578       0.49904300      -1.09194947      -0.11164859
N        2.34062804       3.26135130       2.63872465       1.01429866      -0.20520403       0.58712637      -0.24398959      -0.48908058      -0.05485580
N        9.00654232       8.57219466       9.38250562      -1.07292786       0.71898509      -0.56929057      -0.48362563       0.26337603       0.20590450
N        8.73583645      10.56158110       1.59566099      -0.65826893       0.20167100      -0.78239395       0.29790117       0.09933436      -0.03535301
N        2.05735301      10.08408803       2.43225129      -0.75285750       0.27860548       0.32019492      -0.81974423      -0.00561342       0.05982908
I        6.05105086       6.20875675       8.27864102      -0.07511193       0.19361603       0.07139809      -1.03764559      -1.89616514      -1.08169730
I        5.09924260       5.60751597       1.98360795      -0.09076701      -0.14648629      -0.30954297      -2.99060101       0.30759093       1.52019876
I        4.91220324       2.81000964      10.80769474       0.14659974      -0.27454077       0.12505529       0.09602928       0.42528132       0.16958046
I        6.03382347       8.98964129      24.38968221       0.12316718       0.19980252       0.11378276       0.39869709       0.66097993      -1.01281424
I       25.11589877       5.32113463       1.80885245       0.02391623       0.02747554      -0.05699772      -0.94550697      -0.91812915      -0.14264723
I       11.62237377       6.45299882       8.24139886      -0.15941106      -0.19281763      -0.05370530      -3.09724547       0.08357494       0.49996060
I       11.40427095       9.01931743      24.73112773       0.13248280       0.20739803       0.18523838       0.34188483       0.21604724       3.32838459
I       25.14937591       2.91447139      10.62518169      -0.02426450      -0.18699365       0.19142159      -0.89291419      -1.16887881       1.41048662
I        8.63287525       5.80038234       4.62319717       0.10241766      -0.08075153      -0.09677168       0.22562577      -0.04650271      -0.62049698
I        2.44500664      11.56667164      24.88195053       0.03003500       0.10765245      -0.01306736       1.07412263       0.07361461       0.42752858
I        2.41588852       6.40453673      10.90570226       0.20710557       0.10149618       0.04801992       1.68576485      -2.42793938      -0.67770584
I        9.00833356       5.28238318      24.26255246      -0.29530524       0.06450910       0.02429964      -2.47867579      -1.63814223      -0.78864603
H        3.15742870       8.37581549       7.56806067      -0.69104212      -0.26906636      -0.16931878      -0.04306631      -0.03555545       0.27851148
H        7.91775126       9.20839056       7.58854127       0.50464925       0.06380242       0.42631904       0.07856881      -0.11906556      -0.04082180
H        8.22438904       2.76890663       9.49702763      -0.35423277       0.42530776       0.00919130      -0.11192304      -0.06634585       0.01224204
H        2.96157039       7.96335626       2.27237278       0.00947826       0.16270262       0.15347817      -0.00030278      -0.20970889       0.06205461
H        1.67530998       1.52198056       1.57204574       0.99455113       0.45814047      -0.37437284       0.08805160      -0.00080824       0.17136994
H        8.94686115      10.46716238       8.42917191       0.19339856      -0.22187492      -0.38110949       0.13679969       0.04371420      -0.04687731
H        9.62783056       8.74348941       2.30062897      -1.30476217       0.40556004       0.23191364      -0.14177269      -0.00203449      -0.09578963
H        1.19650920       8.39042804       1.31468848       0.40521506       0.31732187       0.30731148       0.02081884       0.23342259       0.07942996
H        2.20161295       9.70196412       7.00204273      -0.21598773       1.23538073      -1.21613726      -0.12560338       0.11293611       0.04681059
H        9.72315038       9.07071748       7.47166773       0.57462858       0.14283020      -0.55095284      -0.01422102       0.07384140      -0.02200363
H        9.57948465       2.20916277       8.46148327      -0.20956648      -0.37771457      -0.55300184      -0.18413944       0.06831321      -0.04888989
H        2.98302828       9.22499417       0.64679635       0.10201763      -0.08428041      -0.04325899       0.13846972      -0.04940874      -0.06268873
H        1.56144870      10.19945924       9.22949763       0.50533023      -0.19439606       0.27421733       0.05261610      -0.06924403      -0.21442459
H        9.85435266       1.66896455       2.81877575       0.02417486      -0.40860632       0.27210488       0.13859242      -0.11311882      -0.06838879
H        7.81438300       4.55977509       7.95729965      -0.54797917       0.44157966       0.16220167      -0.05702096       0.02452689       0.07008193
H        2.15947609       4.01541059       7.82005408      -0.45178948       0.48640059       0.05677571       0.09053296      -0.12071388       0.18453681
H        3.22842876      10.23810621       9.05918560       0.54311442       0.02871354       0.28203652      -0.04889088      -0.04971799      -0.11618594
H        8.13515560       1.88351548       3.30105477       0.20522511      -0.29671088      -0.12207586      -0.08797838      -0.01965964       0.05219176
H        8.59073024       3.85295832       6.69289851      -0.02999709      -0.12457351      -0.28508360       0.09064632      -0.06384928       0.10742659
H        3.14696082       3.57591420       9.12080690      -0.63648761      -0.21418589      -0.09790193       0.17042893      -0.01370873      -0.03732087
H        2.46751720       8.86150572       9.79985625       0.25517276       0.14693305       0.27578788      -0.20187760      -0.02802405      -0.09110468
H        9.82926840       8.77169024      10.01920305      -0.06507095      -0.20617805      -0.58255396       0.00494661       0.05430778      -0.12010106
H        9.49387552       4.46037444       7.93510132      -0.62030382      -0.27852305       0.02708999      -0.18333183      -0.02355828      -0.01057677
H        1.43705815       3.29214680       9.27322474       0.16427272       0.12330386      -0.44659890      -0.13617404       0.18513949      -0.09424506
C        2.48855117       2.33525808       1.47874425      -0.93609832      -1.71146803       0.62370737      -0.08528345       0.08443815      -0.05167267
C        8.90532339       9.40183918       8.08883568      -0.58362593       0.03426160       1.25281024       0.28414064      -0.19709786      -0.19368125
C        8.49323636       9.20755590       2.20928292       1.37292635      -0.40768077       0.24503524       0.27350468      -0.21613998       0.12500361
C        2.31605870       8.84040384       1.61892574      -0.42602141      -0.14749298      -0.59717850      -0.17118027      -0.13933586       0.20169893
Pb       5.48535796      12.24566656      11.24082779       0.11964849       0.20210575       0.22966701       0.95965174       2.67512642      -4.34127268
Pb       5.74530717       5.88804846      11.35017760       0.04833366      -0.10405285       0.00061648      -0.12396388      -1.75156221       0.54023395
Pb      24.82032483       5.90692619       4.95622129       0.01304091       0.31090656       0.28100037       3.30923537       2.42937655      -0.67702623
Pb      25.06297370       6.02474956      11.52797287      -0.24336779      -0.34928727      -0.35269647       0.54519757      -0.16795458       1.88109606
N        2.42226470       9.60014997       9.07171114      -1.67517743       0.38620119      -0.26290668       0.44013151       0.26431959       0.33015514
N        9.02311079       2.33095873       2.93024846       0.11907827       1.14415212      -0.01139588      -0.67912334       0.22168097      -0.12531981
N        8.59754838       3.93446622       7.71645266       1.44159030       1.09955915       0.07515563      -0.71482535       0.09655161       0.13463111
N        2.24843325       3.31909948       8.58802286       1.23027112      -0.89447534      -0.22401799       0.12944532       0.34678494      -0.14793803
I        6.15714800       0.04832132      14.67364464      -0.07679870      -0.06350392       0.14101925       0.05235787       0.05714673      -0.96525899
I        5.39057039      11.57989727      21.11898039      -0.09301458      -0.01087649      -0.20429982      -1.01617165      -1.00020634      -0.01997726
I        5.07102373       9.09740679      17.27290235       0.01237455      -0.01210281      -0.03213401       0.98265101       0.81585568       1.05557666
I        5.64780316       2.65588890      18.19175948       0.13909706      -0.03128255      -0.01910472      -2.04809055       0.05361521      -0.57973545
I       25.45184245      11.92806816      21.30960805      -0.11795660      -0.09198531      -0.25934433       0.92623077      -0.38015975      -1.82614395
I       11.89177841      25.36107996      14.78394958      -0.28518119       0.13372644       0.12354283       1.33681564       0.47323539       1.54568641
I       11.66921498       2.66413890      18.33473690      -0.03164050      -0.08858923       0.09613966       0.00270327       1.02732516       2.27474224
I       24.98792637       9.10895223      17.27203347      -0.00121516       0.09218567       0.04897591       1.00936468      -0.99416865      -0.10169872
I        8.88596404      12.54629339      24.15931716      -0.15126639      -0.09807606      -0.06253123      -0.99380857       0.79235382       0.79225019
I        2.23133749       5.44042071      18.46751854       0.19565160      -0.02604057      -0.07103849      -1.93635688      -0.64819551      -0.02440112
I        2.31606364      25.26674572      17.29262340       0.13997820       0.27016188       0.06033755       0.05355540       1.66719046       2.54473584
I        8.85322955      11.84222043      18.01341705      -0.14350551       0.07809267      -0.01105747      -1.87914071       0.26187564       0.81577177
H        3.56622191       1.85725033      14.30698501      -0.06524073      -0.39166083       0.24315055       0.10087567       0.01122315      -0.13732375
H        7.73418825       3.33677002      14.42295723       0.19541335       0.13561539      -0.07625842      -0.02666931       0.05566208      -0.01181241
H        7.79443493       8.54896905      14.35352369       0.10071723       0.04258025      -0.15074717      -0.01471014       0.07161458      -0.07514878
H        1.66144790       1.76085545      20.06341536      -0.51587911      -0.22189719      -0.40830502      -0.16529604      -0.04795545      -0.02162241
H        1.32605739       8.33276698      20.58915677       0.07625747      -0.36820057      -0.08782672       0.10219957       0.10618801       0.18824922
H        9.55495366       3.69038474      14.19362015       0.25193444       0.44324420       0.16698843      -0.13152099      -0.03934450       0.21526904
H        7.74010224       1.98032773      20.67359344       0.94934464       0.19668108       0.29148816       0.00524546       0.08028289      -0.13847204
H        3.42553232       1.82261530      20.26943172       0.93394083       0.10351774      -0.60514407       0.32132918       0.09781465       0.02994090
H        2.41149001       2.86167776      13.44898926      -0.36947109       1.18335424      -1.57777334      -0.12675014       0.02448296      -0.18751685
H        8.91631575       2.13322194      13.63665131      -0.25633839       0.15158250       0.18959827      -0.01758212       0.08705201      -0.04060294
H        8.06804178       9.28086856      16.13502297      -0.02690903      -0.08866127      -0.19166946       0.27006038       0.06095075       0.07170711
H        2.41821833       1.12969558      21.57552149       0.00925694       0.04814547      -0.23165230       0.04485593      -0.30543317      -0.14580405
H        2.41353315       2.68040530      16.37333456      -0.24528753      -0.28079841       0.27841413       0.16917780       0.03701084      -0.07559597
H        8.98926959       7.49932708      21.96339433       0.22853482      -0.21770579       0.34681147       0.08617164       0.08975915      -0.10093073
H        9.54893777      11.00311770      14.91674289       0.67900009       0.10291708      -0.03245559       0.07018497       0.09141107      -0.07630424
H        1.31838388       9.84805283      16.02237505       0.38565686      -0.20472242      -0.30271603      -0.02206399      -0.04466411      -0.23284267
H        1.52408975       3.78292372      15.39175737      -0.64277923       0.28209154       0.16487571      -0.16335900      -0.08641578      -0.01831248
H        8.19975948       8.73946864      22.78383597       0.06212700      -0.28879291       0.11436272       0.24851872      -0.04933851      -0.11185923
H        7.93139462      11.16172653      14.47543023      -0.31770313      -0.27369610       0.19526283       0.16421566       0.14533393      -0.17685008
H        1.80906020      10.91459863      14.72096661      -0.00076539      -0.43341222      -0.32413090      -0.01959394      -0.02485593       0.06802710
H        3.17318290       3.84982579      15.49729073       0.34638241       0.45716270       0.09496754      -0.17139077      -0.18746901       0.04958951
H        9.34885350       3.01966533      16.48851084      -0.10579393      -0.24382909      -0.07816813       0.00542723       0.13779227      -0.08250072
H        9.00207982      10.47630564      13.38312857       0.23203236      -0.02511559       0.36503169       0.09534727       0.03256450      -0.03568135
H        2.98396994      10.28323981      15.75195323       0.29227190      -0.15487922       0.39065881      -0.08766950      -0.25642850       0.08946033
C        2.26153297       8.89725194      20.57063969       1.34057042      -1.13951457       0.87415623       0.11300299       0.22310615       0.28146876
C        8.79116111       2.92691226      14.40968899      -0.46106389      -0.90642301      -0.32745543      -0.72673009      -0.15874733      -0.06925326
C        8.53959379       2.59391886      21.24116193      -0.31619342      -1.31906963       0.35874994       0.17157860      -0.20695970       0.15653974
C        2.47876745       1.87467314      20.76060669      -0.81667686       0.63942499       1.86063189       0.25092321       0.08421252      -0.36150951
Pb       5.60589701       5.82548928      17.73446953      -0.15041692      -0.05132768       0.14141678      -0.79204806      -0.10622197      -0.57809120
Pb       5.58043636      12.09675565      17.76735703      -0.03344210       0.17312549      -0.07673364      -1.56696634      -1.68548618      -1.17628721
Pb      24.81882279      12.21007273      24.38615624       0.07266095       0.39666923      -0.07980391       4.96806915       1.29155364      -1.18619986
Pb      24.81031685      12.35360248      18.06228645       0.09562011      -0.23712854      -0.03685578       0.49904300      -1.09194947      -0.11164859
N        2.37669459       3.19637824      15.47180484       1.01429866      -0.20520403       0.58712637      -0.24398959      -0.48908058      -0.05485580
N        9.04260887       8.50722160      22.21558581      -1.07292786       0.71898509      -0.56929057      -0.48362563       0.26337603       0.20590450
N        8.77190300      10.49660804      14.42874118      -0.65826893       0.20167100      -0.78239395       0.29790117       0.09933436      -0.03535301
N        2.09341956      10.01911497      15.26533148      -0.75285750       0.27860548       0.32019492      -0.81974423      -0.00561342       0.05982908
I        6.08711741       6.14378369      21.11172121      -0.07511193       0.19361603       0.07139809      -1.03764559      -1.89616514      -1.08169730
I        5.13530915       5.54254291      14.81668814      -0.09076701      -0.14648629      -0.30954297      -2.99060101       0.30759093       1.52019876
I        4.94826979       2.74503658      23.64077493       0.14659974      -0.27454077       0.12505529       0.09602928       0.42528132       0.16958046
I        5.99775692       9.05461436      11.55660201       0.12316718       0.19980252       0.11378276       0.39869709       0.66097993      -1.01281424
I       25.15196532       5.25616157      14.64193264       0.02391623       0.02747554      -0.05699772      -0.94550697      -0.91812915      -0.14264723
I       11.65844032       6.38802576      21.07447905      -0.15941106      -0.19281763      -0.05370530      -3.09724547       0.08357494       0.49996060
I       11.36820440       9.08429050      11.89804753       0.13248280       0.20739803       0.18523838       0.34188483       0.21604724       3.32838459
I       25.18544246       2.84949833      23.45826188      -0.02426450      -0.18699365       0.19142159      -0.89291419      -1.16887881       1.41048662
I        8.66894180       5.73540928      17.45627736       0.10241766      -0.08075153      -0.09677168       0.22562577      -0.04650271      -0.62049698
I        2.40894009      11.63164471      12.04887033       0.03003500       0.10765245      -0.01306736       1.07412263       0.07361461       0.42752858
I        2.45195507       6.33956367      23.73878245       0.20710557       0.10149618       0.04801992       1.68576485      -2.42793938      -0.67770584
I        8.97226701       5.34735625      11.42947226      -0.29530524       0.06450910       0.02429964      -2.47867579      -1.63814223      -0.78864603
H        3.19349525       8.31084243      20.40114086      -0.69104212      -0.26906636      -0.16931878      -0.04306631      -0.03555545       0.27851148
H        7.95381781       9.14341750      20.42162146       0.50464925       0.06380242       0.42631904       0.07856881      -0.11906556      -0.04082180
H        8.26045559       2.70393357      22.33010782      -0.35423277       0.42530776       0.00919130      -0.11192304      -0.06634585       0.01224204
H        2.99763694       7.89838320      15.10545297       0.00947826       0.16270262       0.15347817      -0.00030278      -0.20970889       0.06205461
H        1.71137653       1.45700750      14.40512593       0.99455113       0.45814047      -0.37437284       0.08805160      -0.00080824       0.17136994
H        8.98292770      10.40218932      21.26225210       0.19339856      -0.22187492      -0.38110949       0.13679969       0.04371420      -0.04687731
H        9.66389711       8.67851635      15.13370916      -1.30476217       0.40556004       0.23191364      -0.14177269      -0.00203449      -0.09578963
H        1.23257575       8.32545498      14.14776867       0.40521506       0.31732187       0.30731148       0.02081884       0.23342259       0.07942996
H        2.23767950       9.63699106      19.83512292      -0.21598773       1.23538073      -1.21613726      -0.12560338       0.11293611       0.04681059
H        9.75921693       9.00574442      20.30474792       0.57462858       0.14283020      -0.55095284      -0.01422102       0.07384140      -0.02200363
H        9.61555120       2.14418971      21.29456346      -0.20956648      -0.37771457      -0.55300184      -0.18413944       0.06831321      -0.04888989
H        3.01909483       9.16002111      13.47987654       0.10201763      -0.08428041      -0.04325899       0.13846972      -0.04940874      -0.06268873
H        1.59751525      10.13448618      22.06257782       0.50533023      -0.19439606       0.27421733       0.05261610      -0.06924403      -0.21442459
H        9.89041921       1.60399149      15.65185594       0.02417486      -0.40860632       0.27210488       0.13859242      -0.11311882      -0.06838879
H        7.85044955       4.49480203      20.79037984      -0.54797917       0.44157966       0.16220167      -0.05702096       0.02452689       0.07008193
H        2.19554264       3.95043753      20.65313427      -0.45178948       0.48640059       0.05677571       0.09053296      -0.12071388       0.18453681
H        3.26449531      10.17313315      21.89226579       0.54311442       0.02871354       0.28203652      -0.04889088      -0.04971799      -0.11618594
H        8.17122215       1.81854242      16.13413496       0.20522511      -0.29671088      -0.12207586      -0.08797838      -0.01965964       0.05219176
H        8.62679679       3.78798526      19.52597870      -0.02999709      -0.12457351      -0.28508360       0.09064632      -0.06384928       0.10742659
H        3.18302737       3.51094114      21.95388709      -0.63648761      -0.21418589      -0.09790193       0.17042893      -0.01370873      -0.03732087
H        2.50358375       8.79653266      22.63293644       0.25517276       0.14693305       0.27578788      -0.20187760      -0.02802405      -0.09110468
H        9.86533495       8.70671718      22.85228324      -0.06507095      -0.20617805      -0.58255396       0.00494661       0.05430778      -0.12010106
H        9.52994207       4.39540138      20.76818151      -0.62030382      -0.27852305       0.02708999      -0.18333183      -0.02355828      -0.01057677
H        1.47312470       3.22717374      22.10630493       0.16427272       0.12330386      -0.44659890      -0.13617404       0.18513949      -0.09424506
C        2.52461772       2.27028502      14.31182444      -0.93609832      -1.71146803       0.62370737      -0.08528345       0.08443815      -0.05167267
C        8.94138994       9.33686612      20.92191587      -0.58362593       0.03426160       1.25281024       0.28414064      -0.19709786      -0.19368125
C        8.52930291       9.14258284      15.04236311       1.37292635      -0.40768077       0.24503524       0.27350468      -0.21613998       0.12500361
C        2.35212525       8.77543078      14.45200593      -0.42602141      -0.14749298      -0.59717850      -0.17118027      -0.13933586       0.20169893
Pb       5.52142451      12.18069350      24.07390798       0.11964849       0.20210575       0.22966701       0.95965174       2.67512642      -4.34127268
Pb       5.78137372       5.82307540      24.18325779       0.04833366      -0.10405285       0.00061648      -0.12396388      -1.75156221       0.54023395
Pb      24.85639138       5.84195313      17.78930148       0.01304091       0.31090656       0.28100037       3.30923537       2.42937655      -0.67702623
Pb      25.09904025       5.95977650      24.36105306      -0.24336779      -0.34928727      -0.35269647       0.54519757      -0.16795458       1.88109606
N        2.45833125       9.53517691      21.90479133      -1.67517743       0.38620119      -0.26290668       0.44013151       0.26431959       0.33015514
N        9.05917734       2.26598567      15.76332865       0.11907827       1.14415212      -0.01139588      -0.67912334       0.22168097      -0.12531981