768
Lattice="31.69945668710882 -0.05318654843770361 -0.36351599514761185 0.040002385871756 30.414649832433703 0.5117498230958147 0.4104475048070117 -0.22194636651643873 17.44856456336718" Properties=species:S:1:pos:R:3:forces:R:3:momenta:R:3 energy=-3335.41208838977 stress="0.0 0.0 0.0 0.0 0.0 0.0 0.0 0.0 0.0" pbc="T T T"
I        6.44810427       2.86425118       2.77348684       0.28057368      -0.09961382      -0.08744746      -0.37844077       1.26489462       1.84427128
I        1.10262901       7.65509038       1.85038291      -0.05731483       0.32495339       0.28259704       0.95946134      -2.12677769       0.06584878
I        6.74169869       3.21744967       7.29943578       0.08123263      -0.23022866      -0.16337203      -1.53620010       0.36361684      -0.89774942
I        0.92468282       7.44663093       6.26236175      -0.01513109       0.19578063      -0.01719088      -3.28257641       1.12046369      -0.48492250
I        5.17843330       6.51518758       4.06648690      -0.13852232      -0.03484006       0.11634702      -0.88736065       0.63660532      -0.15178105
I        2.69867213       3.91299956       9.44467682       0.23931811      -0.06424784      -0.13854454      -0.23315340       1.12588450      -0.92363360
H        3.20195246       4.39017915       5.08160553       0.52738230       0.22036556       0.55052824      -0.01629815      -0.06520580      -0.14984448
H        5.69437627       7.73389337      17.96448794       0.12586418      -0.71143245       0.01679206      -0.13028708       0.03982639       0.07535092
H        1.80989149       3.11592153       5.51310251      -0.71853723       0.14311784       0.79865802       0.14773622       0.18328402       0.08429361
H        6.34551029       7.06627501      16.45221870       0.50950052      -0.34784664       0.12566740       0.09288809       0.01759482      -0.21037645
H        2.86670240       3.04728381       3.84189842      -0.43658943      -0.11213206      -0.12201255      -0.18372643      -0.09131463      -0.14122886
H        4.84063270       6.42503360      17.08218035      -0.34180532      -0.32219012       0.13394491      -0.00036119      -0.11546165       0.04509968
H        1.92454476       5.18240183       3.17708329       0.13594302      -0.36400723      -1.00095216       0.08686269      -0.03831129      -0.05583557
H        7.44321818       6.24498731      18.52664866      -0.46386748      -0.70617062      -0.11821488       0.03400148      -0.11881287       0.07652810
H        1.37167670       5.70929254       4.61912936      -0.15575037       0.06167616       0.64870141      -0.10615342       0.20323177      -0.02961048
H        6.80628198       4.90391270      17.56567348       0.13292885       0.46678743       0.11478562       0.08130550       0.06893683       0.06658242
H        0.57159735       4.44171870       3.91867054      -0.63342674      -0.09426378      -0.90136394      -0.09717972       0.09879810       0.15806824
H        6.09639150       5.32311925      19.06246811      -0.36623466       0.58811716      -0.33374069      -0.07412078      -0.11727407       0.04672601
C        2.36191702       3.77795259       4.69277624       1.38125106      -0.06488946      -0.81414570       0.08147922      -0.20994974      -0.46397917
C        5.82251126       6.78708567      17.38263806      -0.62383115       0.89294239       0.45247548      -0.34282147       0.38186887      -0.14446439
Pb       4.73829537      16.72326303       9.38545324       0.06370762      -0.17203371       0.24033321      -2.44357344      -0.07309766       0.92763780
Pb       0.81936247      16.65031909       9.59103424      -0.08162137      -0.06644893       0.21510804       0.89795990       2.33570502       1.96511386
N        1.50062121       4.83631519       4.05459964      -0.15073645       0.06552540       0.91144042      -0.17594139       0.04137461      -0.12027131
N        6.55920890       5.74798727      18.18603717       1.04403388       0.07791441      -0.60073287      -0.07240869      -0.03162500      -0.87808783
I        4.94077665      10.28819206       6.39586778       0.05946200       0.24135406       0.14483559      -1.25432079      -0.11574815       1.67983936
I        2.85351036      15.34633555       7.30505838      -0.07608432      -0.14708766      -0.04607888      -0.32814298      -1.50526056      -0.89495848
I        4.91824631      10.63070653       2.20645711      -0.11021100       0.07754756      -0.28107715      -0.55956743       2.19876822       2.41054087
I        2.39007500      15.25781444       3.18192626       0.02456081       0.16149644      -0.13206215      -1.00060606       0.71254213       0.29102583
I        6.55250392      13.90596987       0.85488807      -0.11324694       0.50722760       0.06582239       1.20212485       0.57033840       1.28378382
I        1.17855881      11.59403960       4.46492015      -0.09936764       0.03584589      -0.15287254       2.39372684       0.62498066      -0.98945266
H        1.29932124      10.40407034       9.01577240      -0.02652125      -0.62280538       0.16451414      -0.16472054      -0.14762394       0.07024056
H        5.50923616      14.12560661       6.32368580       0.63927559       0.40887371      -0.53391769       0.19098522      -0.13931128      -0.01339860
H        0.78205360      11.75000590       7.86465622      -0.43916151       0.55725214       0.13574044      -0.04812340      -0.00917403       0.15768250
H        7.12644836      13.71144185       5.55311881      -0.15306684       0.19005339       0.02147941       0.09426757       0.06569803      -0.02072671
H        2.43908797      10.95530800       7.67157290       0.34232580      -0.15572696      -0.68339986      -0.12749186       0.00819275      -0.09575321
H        6.30921675      15.26706782       5.03111776      -0.05268817      -0.01216563       0.37716233      -0.10438023      -0.21224953      -0.09859778
H        3.24034793      11.80570540       9.68976311      -0.90754356       0.18004518       0.35285178      -0.04054737       0.07937482      -0.07721888
H        5.88217219      13.38692087       3.38887556       0.28194285       0.16081780       0.12982944       0.02098610      -0.00961235      -0.07402217
H        1.64478862      12.43135906      10.18128260       0.65773258      -0.28860116      -0.02316123       0.20872824      -0.08210153       0.00237057
H        4.52715666      13.97485768       4.09742979      -0.51979131       0.14925547      -0.07679159      -0.03429669      -0.05799299      -0.11753635
H        2.49397308      13.10650386       8.91628335       0.06678463       0.12181322      -0.04074989       0.04804068       0.06205996       0.00560241
H        5.14297265      12.48966292       4.61173374       0.22603362       0.52169573      -0.04932119       0.24137733       0.21772852       0.00487726
C        1.65105975      11.27223440       8.41391345       0.23845036      -0.24457760       0.21715036       0.08057855      -0.20981985      -0.80255871
C        6.16825418      14.23814273       5.40283748      -0.69671565      -1.02483179      -0.16257542      -0.31242102      -0.23709251       0.11364643
Pb       3.09990719       8.99302092       4.21178520      -0.21915908      -0.15485142      -0.00880876      -0.30716464       0.47572496       0.86810582
Pb       6.99966192       9.21835184       4.25776762       0.22717356      -0.17655995       0.05125873       1.09224394      -0.40558519      -0.69723190
N        2.30164650      12.19732326       9.37965084       0.02433251       0.51040792      -0.08931850      -0.46853292       0.20925644       0.14916993
N        5.40259673      13.47523569       4.31089671       0.27368859      -0.45231968       0.43093822      -0.91755140      -0.28392284      -0.65326065
I       14.68383705       2.65171106       2.75232703      -0.05907996      -0.11792562      -0.25891442      -1.99196299       1.63657648      -0.12339866
I        9.04063001       7.82060322       2.03338155      -0.02570315       0.02877299       0.07240207       0.13932875      -1.17667935      -0.07295871
I       14.80217185       3.01005991       7.25276191      -0.03875199      -0.11611852      -0.15583173      -0.75468533      -1.34649132       0.50471534
I        8.82336183       7.73064786       6.56299834       0.09024801       0.03830708      -0.15774743       0.52217787       0.83471510      -1.37949711
I       12.93269024       6.49119979       3.98798688      -0.06267989       0.07143015       0.14090601      -0.94945024       0.53549055       0.62580672
I       10.86643736       3.92163076       9.69616431      -0.07326440      -0.27204062      -0.11951547      -0.69890100       0.93600063       0.39775981
H       10.98993537       4.27982411       5.09844691       0.35907389       0.05885672       0.13179685      -0.25571120       0.02953333      -0.02718187
H       14.79489899       7.41786460      16.40625870       0.18188825       0.33247299      -0.23627508      -0.07800447      -0.18954453      -0.07310169
H        9.49126787       3.53846945       5.78870205       0.01176034       0.08095058       0.31376018       0.05928071       0.00097113      -0.04179961
H       12.98437329       6.88812922      16.52528325      -0.00117695      -0.38045914      -0.03911310      -0.23944755       0.17072655       0.07563348
H       10.09102078       3.00445175       4.17963939       0.02206956       0.03661393      -0.36201262       0.35674908       0.08493833       0.09116220
H       13.73105107       7.96532262      17.87451491       0.38892893       0.09295841      -0.12195013      -0.06782713       0.01441043      -0.09032424
H        8.23731770       4.63976056       4.06843581      -0.97807648      -0.20580796      -0.11763942      -0.31707333       0.06618976      -0.15283347
H       14.66546798       5.11221338      17.30655568      -0.08647766      -0.41165453       0.07896612      -0.06903259      -0.05010362      -0.03461104
H        9.47271415       5.28824624       3.27966684       0.63889864       0.02204001      -0.08646817      -0.01895450       0.15457672      -0.07731092
H       13.56141985       5.51380261      18.70615690       0.60330483      -0.06243464      -0.89202624       0.22847293       0.00705447       0.18278492
H        9.07454270       5.85392829       4.82910974      -0.11223696       0.84925033       0.77819361       0.08239809       0.12225662      -0.07341545
H       15.24254735       6.20893839      18.68738933      -0.34026513      -0.16000419      -0.23386833       0.04409827       0.09142931       0.01373540
C       10.01290119       3.87336282       4.86880070      -0.31348731       0.43455834       0.08592566      -0.27072194      -0.93522884      -0.31109271
C       13.95751201       7.14134308      17.12798980      -0.24183567      -0.57714103       0.70189583      -0.04042988       0.64146052       0.13658003
Pb      12.82484234      16.45984310       9.64019008      -0.23030538       0.23507870       0.05230578       1.47396592      -1.40676124       3.35481098
Pb       8.80313342      16.81057217       9.64354707       0.17890232      -0.05037597      -0.15403852       2.68837786       1.18271710       1.83243280
N        9.16437544       5.01092055       4.25132716       0.38323850      -1.41319554      -0.80877580       0.70483410       0.44813120      -0.04642703
N       14.38242443       5.88734903      18.00592268      -0.58220749       1.04049580       0.72686728      -0.31510615       0.06728965       0.54646149
I       13.08314468      10.72316070       6.46899161      -0.07987458      -0.45485081      -0.14585855      -1.06301492       0.54936653       1.36947882
I       10.86816977      15.25601350       7.42626751      -0.18232176      -0.03545161       0.13873037       0.17097346       0.89086694      -2.03162979
I       12.74669970      10.44296425       2.06359441      -0.12116961       0.01170566       0.05775798       0.10573550      -1.45329767      -1.51632862
I       10.59572832      15.26554828       2.99470397      -0.16226163      -0.06095595       0.36454678      -0.52167587      -0.96161103      -1.36031565
I       14.30519827      14.09190868       1.08432693       0.24277161       0.19264353      -0.17248374      -0.57848573       1.63970265      -0.63344463
I        8.87311630      11.71356945       4.42106848       0.26392115      -0.15886248      -0.12920654       0.55870796      -0.78157861      -0.29285813
H        9.71003927      10.09607591       9.26831481       0.07007648       0.16134470      -0.59587000       0.23159555       0.13323495      -0.12362521
H       13.73939285      14.56464777       6.24169316       0.94966786      -0.17424989      -0.60721415      -0.11423568       0.09429318       0.00810419
H        8.65338505      11.39219314       8.49220322       0.28438205      -0.38798649       0.02126194       0.03613247       0.19823301      -0.16312714
H       15.20758267      14.10815053       5.13097409       0.62968408      -0.05859239       0.41537002      -0.04868570       0.19529523      -0.01068125
H       10.21603728      10.98456465       7.67243183      -0.09547342      -0.25863999       0.33769290      -0.01508215       0.14901021       0.06138797
H       13.98626754      15.40002421       4.64276695       0.49126224       1.01928229      -0.69420698       0.07389317      -0.00367763      -0.14137328
H       11.42870948      11.90001264       9.57489625      -0.06212782      -0.07513335      -0.01563495      -0.05923143       0.11541106      -0.02428963
H       13.66579840      12.96297180       3.65515406       0.23324869       0.34004952      -0.15968028       0.11880302      -0.10989196      -0.13912506
H       10.00514158      12.09885090      10.47762196      -0.12251733       0.02572558      -0.29738130       0.16776842       0.13603906      -0.03591513
H       12.35437548      13.86035884       4.18925894       0.21934350      -0.29922653       0.46317266       0.07748405       0.03007023       0.08849270
H       10.28955974      13.06993354       9.00850558      -0.01919065      -0.23588738       0.26272544       0.07027635       0.15891356       0.02480105
H       13.07265187      12.58893814       5.19398927      -0.49219152      -0.60385655       0.49745531       0.01687272      -0.11677061      -0.11943101
C        9.70244374      11.03762631       8.65032221      -0.85753426       0.24931704       0.17962113       0.33633855       0.15965376       0.86418522
C       14.15516891      14.45403774       5.17737327      -1.86421689      -0.44360949       1.46633385      -0.26037282       0.12940471      -0.08727698
Pb      11.02445192       8.99302919       4.41547931       0.01750237       0.40352671       0.05302074      -1.41596649       2.08495855      -1.75955331
Pb      15.04528280       9.09188437       4.08895857      -0.25264592       0.02953842       0.09072040      -3.77265577      -1.73986341      -1.77959684
N       10.37485834      12.09556089       9.47255134       0.82399338       0.70514676       0.00170086      -0.20221061      -0.42104971      -0.34091040
N       13.24294730      13.41254246       4.54886682      -0.07132736       0.34078445      -1.49848412       0.67954567       0.27794198      -0.08497746
I        6.75658143       2.21865575      11.60431304       0.03790030       0.02233365      -0.18557267      -0.33894047      -1.61335100      -1.30410613
I        1.20279656       7.70997119      10.49694897      -0.04352083      -0.00548457       0.08184085      -1.36038682       0.32012160       1.86277279
I        6.94597001       2.87827682      15.80052315       0.10396232      -0.12399003       0.34888906       0.75868797       1.83913796      -0.40104123
I        1.26131254       7.24939118      14.87679065       0.10664015      -0.03624354      -0.14477661      -1.11809728      -1.67918552      -1.63484165
I        5.15394204       6.24694200      12.39198083       0.26982272       0.18263711       0.38758851       4.16372355      -1.22957182      -0.22368589
I        2.68395399       4.27866163       0.73668908      -0.03330028      -0.32415946      -0.15449671       0.39064490       2.70830813      -0.03894151
H        3.87543102       3.91586924      14.32256899      -0.54021057       0.00561369      -0.52167574      -0.14872194       0.08182556      -0.06700231
H        5.57923429       7.86602793       9.02648679      -0.29575246       0.95494607       0.96108613       0.01127369      -0.02992972      -0.13327232
H        2.39447721       2.98544143      14.82498143      -0.22818264       0.19613914      -0.34355111      -0.01846807       0.22459996       0.25992787
H        6.02915715       6.88732400       7.64777057      -0.52188350      -0.18688773       0.16515283      -0.02991512       0.02378055       0.09481602
H        3.36404078       2.38966499      13.40328144       0.07662574      -0.13262273      -0.03627864      -0.13290789       0.01710593       0.08227448
H        4.37252054       6.62999623       8.45010383      -0.50645208      -0.15938198      -0.27456339       0.14362740       0.08667078      -0.00851972
H        2.51257244       4.29884027      12.04515782       0.47006778      -0.10806007      -0.00873553       0.04341059      -0.15341516       0.00231777
H        6.97129380       6.05580644       9.87548192       0.48175610       0.34669667      -0.59270131       0.13355486      -0.10923733      -0.16605617
H        1.84936223       5.02582378      13.44934621      -0.22152162      -0.89449172      -0.64478070      -0.04019941       0.04061539       0.20401234
H        6.18068848       4.86222246       8.92301372      -0.08118338       0.66577196      -0.03499402      -0.22642607      -0.08846318      -0.09972805
H        1.22384318       3.50009901      12.75759593       0.48378401       0.64020294       0.35278905       0.14121664       0.00969514       0.05715045
H        5.51235819       5.60412019      10.29914825      -0.37970047       0.02505657      -0.04369815       0.04844420      -0.13332958      -0.01397278
C        2.99704290       3.29926202      13.93916735       0.37869920       0.20518127      -0.11181777       0.64348689       0.49221671      -0.01520821
C        5.43548926       6.87581065       8.59327846       1.51743593      -0.88991961      -1.19542542       0.49238138       0.25769825      -0.17992933
Pb       4.49105669      16.80510153       1.23166901       0.05721864      -0.20293062      -0.23886120       0.97953164       1.92306439       0.02207571
Pb       0.48463316      16.79593038       0.77814009      -0.26687252       0.30505650       0.25995911      -0.75611138       2.90628614       1.56998624
N        2.10187239       4.09024314      12.97809440      -0.60920986       0.19227734       1.37009415       0.37597189       0.62495427       0.11671117
N        6.05750752       5.79305856       9.42774413      -0.12379930      -0.69266281       0.81165357       0.55114008       0.74024452       0.07967245
I        5.17710671      10.22238576      15.01620144       0.10497303      -0.03150666       0.17929233      -1.24498703       1.22923421       1.51326006
I        3.00662908      15.33098915      16.25394247       0.17897902      -0.03592458      -0.15277911      -0.34051592      -1.55325429      -0.08336252
I        5.08643330      10.19959700      10.62889850       0.24414757       0.27127429      -0.16511408      -2.01392233       0.37785512      -1.58742305
I        2.89427152      15.02612566      11.51891671       0.18711633       0.02097190       0.11960742      -0.13472781       1.85393183       0.63314783
I        6.84138602      14.21477897       9.75884127       0.17844184      -0.02153052      -0.14200625      -1.31039118      -0.32409518       1.08480821
I        1.33407572      11.36654405      12.94322239      -0.19984082       0.17323032       0.02465976      -0.09100874       0.01761471      -0.80120617
H        1.56286658      10.45658925      18.21150749       0.12720246       0.50774090       0.04434091       0.02774336       0.10433095      -0.11724781
H        5.57196424      14.83390617      14.78175634      -0.40760077      -0.53169406       0.19587072      -0.05382401      -0.17757409       0.11514261
H        0.81630153      11.68392268      16.98027002       0.05236012       0.21936967       0.11192768       0.00177601      -0.06985661       0.09414615
H        7.16644536      13.64179930      14.67450323       0.84552775       0.02160802       0.35400349      -0.05355215      -0.03417250      -0.00368840
H        2.46225316      10.89990808      16.67559656       0.34656414       0.24154498      -0.22928387      -0.08286075      -0.03605456      -0.04645964
H        6.78322912      15.00066413      13.29410269       0.28547324       0.64412310      -0.60665918      -0.21171588       0.06637983      -0.04571177
H        3.24569620      12.13165195      18.77332221       0.64622138      -0.16013549       0.12902052      -0.13013016       0.19123305      -0.05053748
H        6.36951817      12.79480858      12.38436956       0.08016959      -0.10833558       0.25312679      -0.17763559      -0.10093877       0.14837109
H        1.73921389      12.81865309      19.02967198      -0.51692893       0.05283996       1.26029052      -0.15506614      -0.14301837      -0.05215447
H        4.88285229      13.52014409      12.75176201       0.20031729      -0.36368004      -0.11148288      -0.15155927       0.25468636       0.07680184
H        2.58888307      13.34361913      17.74548916       0.18853982       0.70074359      -0.81237569      -0.02272805       0.08631491      -0.00389011
H        5.48807916      12.26042512      13.84004141       0.13354685       0.07088707      -0.30407535      -0.08959382      -0.08489009       0.29297505
C        1.76986772      11.32248501      17.48289115      -0.13158572      -0.39418389       0.29168732       0.11759444       0.09571309      -0.15741890
C        6.36889808      14.22732053      14.05894474      -0.33191579      -0.89316503      -0.66677323      -0.58074767      -0.49402924      -0.39789583
Pb       3.29724135       8.82714591      12.75651509      -0.40073466      -0.17349793       0.17904044      -0.96424165       3.38720773      -2.47878158
Pb       7.28432424       8.96937558      12.82067875      -0.20923680      -0.26505001       0.01090554      -1.12535821       0.74277890       1.05998136
N        2.38786381      12.49429354      18.29371969      -0.58713685      -1.40189443      -0.73658570      -0.09656891      -0.54391152      -0.35564673
N        5.75608106      13.09487584      13.19247861      -0.87560119       1.33905023       0.69187332       0.36527494      -0.40426873       0.55584103
I       14.78708848       2.83924710      11.39809518       0.07370275      -0.04833731       0.18776404      -0.52391979      -0.33199238       1.69920236
I        9.17621770       7.49068991      10.72217955      -0.06778224      -0.01399609      -0.12374071       0.97425332      -1.54082582      -0.64157889
I       15.00979132       3.15606067      15.85016122       0.10631343      -0.14790250      -0.07086199       2.96068474       2.19004510      -0.82341340
I        9.09108237       7.37395038      14.98437809       0.01161129       0.01556573      -0.01591549      -0.45664268      -0.04798671       0.24324475
I       13.28725699       6.29677544      12.56489727      -0.27293251       0.04176490       0.19568108       0.33146635       0.05232259       1.38770105
I       10.61975015       4.27401190       0.65685796      -0.12223191       0.00455743       0.02958523      -2.50663551      -2.12888500      -0.89708520
H       11.17731992       4.14822859      14.28680385      -1.07065378      -0.35738221      -0.53184035       0.01844622       0.01720351      -0.20522113
H       13.55707742       6.88929105       7.25501071       0.02941615       0.20036123       0.19664943       0.19896395       0.13060074       0.05600536
H        9.58101066       3.46692649      14.84582591      -0.04672092      -0.01978574       0.75830436       0.11825113      -0.12316969       0.14252053
H       12.29984484       5.80020865       8.04868335      -0.35585132      -0.16655884       0.42496681       0.03871860      -0.10433805       0.14667858
H       10.42515462       2.58244332      13.61790871       0.39351485      -0.20252654      -0.36240312      -0.08724498       0.01248397      -0.20985150
H       12.69200816       7.55511061       8.71863642      -0.08604924      -0.04299599       0.01798692       0.05971310      -0.14248619      -0.05038468
H        8.54949734       3.75855196      12.69571492      -0.41629382      -0.00891426       0.53151067      -0.04322026       0.20840447      -0.12884185
H       14.69470712       5.07392139       8.70264576      -0.27611243      -0.26104194      -0.00128008       0.07730740      -0.10796440       0.13610992
H        9.87740608       4.33857178      12.04959568       0.00169059       0.54252254       0.56241933       0.07316364       0.12847335       0.02981242
H       13.99746424       5.77684797      10.10400163      -0.38140934      -0.38381187       0.30455521      -0.03543068      -0.04083470      -0.11189473
H        9.11149984       5.29780855      13.34519239       0.15474837      -0.62586156      -0.50768926       0.01554619       0.03556990       0.02018679
H       15.14383655       6.64145043       9.22994826       0.37006161       0.41786330      -0.10551922      -0.11601983      -0.02194596      -0.07583987
C       10.23098552       3.59266072      13.99147927       0.46876438       0.15626297       0.60725823       0.34113629      -0.03123288       0.64066214
C       13.09721770       6.61990270       8.23695032       1.60842243      -0.61500197       0.02811360      -0.01353917      -0.84682242       0.49702894
Pb      12.34172166      16.66411371       0.94938090       0.25609208       0.14331572      -0.25172275       1.10899575       2.51118327      -1.41942292
Pb       8.33872751      16.65295920       1.08294628       0.25832142      -0.03344888      -0.19868270      -2.96873059      -1.80143808      -0.80652638
N        9.38797096       4.31922767      12.99798386       0.64604331       0.52325929      -1.14600467       0.53776212      -0.68051553       0.00594759
N       14.30897335       5.97110005       9.12036318      -0.83993226       0.99364648      -0.85549950      -0.32378394       0.26647912       0.12431421
I       13.14282802      10.22348378      15.04134140      -0.10953602       0.02773892       0.04216373      -0.86093400       1.19749608       0.87553799
I       10.75413002      15.07704187      16.32689787      -0.03245963      -0.09298503      -0.09045238      -0.07897642      -0.30649587      -1.04696798
I       13.30518091      10.15753274      10.85583837      -0.25353213       0.15566982      -0.37370558       1.01578079      -1.38477257       1.48824745
I       10.84342773      15.20601210      11.79553980      -0.23751441       0.05522025       0.07425371      -1.87838261      -1.37696521       1.92959765
I       14.60400781      13.84069516       9.29177986       0.16655387       0.11655090       0.17923483       0.93905712       0.01650516      -0.55922486
I        9.26027357      11.52000916      12.75313063      -0.11003502      -0.12452638       0.09231825       1.52756735       0.88076249       0.65450687
H        9.13200458       9.89462220      17.77972333      -0.01969318       0.74077498      -0.59054594       0.02626884       0.12986174       0.19731260
H       13.46728008      14.87600035      14.38522508      -0.30566665       0.24840689       0.37183840      -0.08187562      -0.01389259       0.02606741
H        8.36532177      11.32659429      16.87532544       1.08588341      -0.39747886       0.15950419       0.17389181      -0.09803749       0.06643618
H       14.99259544      13.51792743      14.34647635       1.10663726      -0.45141460       0.04653392       0.12939786       0.10058183      -0.01047735
H        9.96243357      10.57502702      16.30987022       0.21206116       0.00152478      -0.51350768       0.15354075       0.10780736      -0.11719258
H       14.80294387      14.85921555      12.74005381       0.45657028       1.56055340       0.08985788       0.04417987      -0.06354795      -0.10249134
H       10.97987056      11.26433385      18.42239917      -0.09729524      -0.03039349       0.13983798       0.13965471       0.08679195       0.08939898
H       13.99937586      12.75000549      12.05896861       0.09964605      -0.09657159       0.18909001      -0.10255462      -0.01949581       0.05029691
H        9.52893162      12.09376421      18.86833832      -0.05925340      -0.60480999       0.44689208       0.16455362      -0.00057022      -0.09905063
H       12.62679925      13.74275151      12.47629802       0.07952591       0.14570429      -0.12672466       0.06473450       0.07990331      -0.10301524
H       10.36859758      12.59745568      17.62853652       0.38350946       1.04781662      -0.93000988       0.04059295       0.05348135      -0.03179757
H       13.01472557      12.41177046      13.54210471       0.45905396      -0.04479212      -0.23306262       0.04528571       0.12470304       0.14826034
C        9.34130730      10.83168123      17.16979933      -1.45023131      -0.86406774       0.66949092      -0.86148657      -0.38385080       0.24406926
C       14.26595718      14.20104079      13.67519052      -1.08187681      -0.76106663      -0.66512981       0.61618646       0.25503154       0.24962578
Pb      11.19037540       8.76744364      12.86017461       0.26894906      -0.03402215       0.11802302      -0.82925147       0.83138048      -0.36190492
Pb      15.21880021       8.85647288      12.83860973       0.17633948      -0.07024281       0.04007744      -2.99201224       0.15479884       1.46497253