768
Lattice="25.625769195560288 0.1442251890105203 -0.06288156074118129 -0.08544278206367628 25.555723663810763 -0.05823012908242495 0.07213310111533067 -0.1299461261962401 25.66616038795785" Properties=species:S:1:pos:R:3:forces:R:3:momenta:R:3 pbc="T T T"
I        7.63101412       1.00834306       2.30575672      -0.00732537       0.07829321       0.06391052       0.36386485       0.25636339       0.56380862
I        6.42540211      12.54621439       8.72942850       0.18692939       0.10571214      -0.15648368      -0.05036807       4.03519978      -0.98349119
I        6.28151054      10.05086395       4.67130041       0.27510240       0.13293875       0.14390414       0.12440748      -0.17459578       0.75262552
I        7.84926858       3.73494331       5.72123732      -0.13217471      -0.12429532       0.04699446       2.57818906       0.08404386       0.21308979
I        0.90398023      12.12158775       8.53657890       0.01945698       0.13089681       0.00481605      -0.01307339      -0.31531182      -1.35123456
I       13.17154906       1.31304861       2.14580363      -0.24135803       0.00103845      -0.03626676       2.01052747       0.88911046       0.66173052
I       13.14022623       3.90383438       5.67744391      -0.06172645      -0.11995249      -0.04335063       3.58626508       0.57231992      -1.05326560
I        0.75035433      10.21305542       4.24702332       0.14413035      -0.03436011       0.08751418       0.28092897       1.69795715       0.49809255
I       10.38340847      13.49550322      11.31312245      -0.08125228      -0.14221616       0.06617430       0.99211051      -0.81359434       0.72138145
I        3.80134049       6.13012840       5.67221007       0.12814184       0.12551564       0.03869392       0.47588532      -1.89830599      -1.35860045
I        3.78003975       0.99635376       4.68658522       0.18247663      -0.05386938       0.04684077      -1.15407777       0.16648427      -1.48246033
I       10.22156849      12.91372197       5.85117804      -0.13805915       0.01717277      -0.18184475      -0.38231016       2.78234909       1.21268258
H        4.44232613       2.43812324       1.28796664       0.18386099       0.20827328       0.42675744      -0.10251431       0.13254638      -0.02698942
H        8.99362204       4.61193344       1.92869174      -0.51122271       0.11501977       0.10969242      -0.17083524       0.19444317       0.04408234
H        9.39934978       9.83421231       2.04343932       0.22497468      -0.22390083       0.28798755      -0.10717887       0.26834930       0.05258543
H        3.01444224       3.00219232       7.28728253       0.06675181       0.09305071      -0.05007873      -0.06050786      -0.06349772       0.12465800
H        3.63394228       8.68734531       8.05900158      -0.02229996      -0.59083095      -0.16360613      -0.03592998       0.06634547       0.14399825
H       10.73358024       5.02014234       1.55426427       0.68880445       0.21059551       0.13385144      -0.22298498       0.10390778       0.09744167
H        9.93346091       2.83637729       8.12014885       0.14672332       0.70520666      -0.02192126      -0.04856983      -0.09716257      -0.03620034
H        4.80527425       3.12532100       7.33969919       0.17167122       0.01889205      -0.26884037       0.03073542       0.09193401      -0.16078472
H        3.99383047       4.05858090       0.52236410       0.06946424       0.31979323      -0.13718974       0.09635295      -0.23485981       0.04769776
H       10.07973668       3.23956182       1.41302493       0.01506279       0.99194634       0.65337704      -0.21956342      -0.18294263      -0.00245031
H       10.49871258      10.32348590       3.47654196      -0.07362339      -0.03480465      -1.28380783       0.11649183      -0.07780084       0.08088760
H        3.93081837       2.05660043       8.51836602       0.03048585       0.62695414      -0.10270542      -0.24769120       0.09941171      -0.10858736
H        3.38497938       3.17077661       3.40006935       0.29223228       0.53394788      -0.46679297      -0.10754309       0.10327292      -0.18651065
H       10.22323279       8.60347579       9.82799328       0.23824098       0.82441491      -0.69176753      -0.19233027       0.05693531       0.13122933
H       11.11735323      12.25354968       1.90785955       0.91741257       0.10209245       0.52205337       0.14151336       0.15308808      -0.05486594
H        2.90113274      10.69758966       2.94692419       0.77649413      -0.14796461      -1.08533409      -0.11034506       0.06043871       0.12099705
H        2.71467722       4.60059359       2.66419527       1.89519238      -1.01230287      -0.26588762       0.08920166      -0.02844600       0.19693752
H        9.33083902       9.86595246      10.32983647       0.41867321       0.16399137      -0.28407634      -0.05998237       0.10515730       0.01060662
H        9.49979900      12.25505165       2.10594967      -0.06904863      -0.43004408      -0.23833533      -0.09625839       0.06169733       0.08475950
H        4.16587703      11.63511877       1.99339782      -0.48805721       0.09119935       0.08877284      -0.05892905      -0.05638225      -0.02709922
H        4.47536632       4.50839435       2.95527995      -0.69643480      -0.50759054      -0.27488462      -0.00209065      -0.01274607       0.00052881
H       10.41805134       4.79075920       4.04617775       0.29150942      -0.50834041      -0.50548146       0.15937434      -0.04293099       0.11898525
H       10.25410549      11.60743410       0.71910407      -0.33200510       0.09385987       0.17688726       0.12105967       0.01564616      -0.31635966
H        4.56853047      10.33137036       3.16955232       0.51611099      -0.10273184       0.14277855       0.10097094       0.04290000      -0.04459036
C        4.34889474       9.54389424       8.20854702      -0.59767392       0.31403147       0.85249231       0.17651501      -0.20468169       0.10253150
C       10.03549053       4.22557826       1.99687839      -0.47719098      -1.73788134      -0.88286529      -0.03657884      -1.14755515      -0.06033101
C       10.66036839       3.59529881       8.59172985       0.71511358      -1.15907765      -0.36115490       0.35488682       0.78775191       0.05703042
C        3.89434500       3.03445052       7.94091915      -0.24527267      -0.92723423       0.01116578      -0.06897188       0.53390141      -0.23724764
Pb       6.96860750       6.96078183       5.07479560      -0.10289336       0.00729243       0.08757743       0.53154819       1.62906441      -1.45706562
Pb       7.04530909      13.43927216       5.33346311      -0.20841198      -0.14677874      -0.09818794      -2.34380911      -3.88839226       0.83098484
Pb       0.66974874      13.06446483      11.49177219      -0.01597762       0.25797618      -0.15445956      -0.56886015       1.07774723       2.07978189
Pb       0.45921743      13.24181170       5.09355364       0.25072795      -0.00538968       0.14250127      -2.58994404       0.01259507      -0.31555011
N        3.60175660       3.94225326       2.65788293      -1.52007897       0.40054686       0.42288412       0.05882957       0.25386460       0.09930769
N       10.22138607       9.66726465       9.79499067      -1.70853060      -0.72331168       0.76336438       0.17647203      -0.10022867       0.06667960
N       10.30233528      11.65673571       1.75764985      -0.29062119       0.27205798      -0.42267087       0.35712016      -0.26211784       0.93963928
N        3.82755565      10.62699609       2.38729375      -0.91771561       0.18103808       0.40106314       0.07512431      -0.00733463      -0.18993150
I        7.55365068       7.28934036       8.48138079       0.03356147      -0.09644411       0.04279773       1.02260918       0.23621070       1.98151325
I        6.47568063       6.12514844       2.10110390      -0.05940969       0.05568499      -0.06029347      -0.90084936      -0.85989747       0.85699735
I        6.60424931       3.52411580      11.16128662      -0.06831487       0.11139249      -0.09646485       1.48816661       0.76870385      -0.18950793
I        7.43441081       9.80659508      25.24055285       0.21413781       0.15990032      -0.19898999      -0.56864295       0.09378635      -3.26181406
I        0.76410850       6.24203953       2.00064516       0.17274314      -0.12644123      -0.04974412       0.17683198       0.08089959       0.25489704
I       13.15330932       7.28348733       8.40033100       0.07276255       0.16255802       0.07773212       1.59388654       0.02046088      -0.94683212
I       12.91408101       9.88030067      25.01338659       0.12260060       0.08375191       0.08001920      -0.16661575       0.50402171      -0.03601725
I        1.10391375       3.51258167      10.97981113      -0.04361644       0.06681204       0.09524092       0.28737873      -0.39441012      -2.82793947
I       10.24061978       7.34784439       4.66184205      -0.01491427      -0.16122105       0.14584618       1.50871480       2.45784786      -1.05566639
I        4.05983065      12.63999670      25.06089172      -0.21998000      -0.04739548       0.02376755       0.77368246      -2.47823356       0.40762645
I        3.87456317       7.29390832      11.21955022      -0.10329236      -0.13279701      -0.00950977       0.26794413       0.66438973       1.37194212
I       10.30616095       6.03372466      24.41915465      -0.03927747       0.25963628      -0.06940874       0.68389811      -0.59207347      -2.60451039
H        5.46914025       9.26048636       8.32742428       0.29158404      -0.67618128       0.01351142      -0.02291797      -0.11123683       0.00452680
H        9.36778143      10.10008342       7.94025554      -0.19804138      -0.16020922      -0.45827792       0.01000187      -0.02788323       0.17883138
H       10.50198652       3.62545678       9.69271505       0.00000858       0.12879990      -0.12834951      -0.12699670       0.06093901       0.00190011
H        3.53002882       8.54366694       1.57304485       0.12652258      -0.62945335       0.62668440       0.26832902      -0.13210117      -0.10120968
H        2.67508009       2.88928818       1.02820741      -0.21028028      -0.13724380       0.16335991      -0.06823351      -0.03176059      -0.05541606
H       10.26366519      11.48224056       8.66177715      -0.08317635      -0.59745040       0.15865328      -0.09645254      -0.04959672       0.16814242
H       11.21494491       9.75456101       1.87310575       0.04812624      -0.12851278       0.01030227       0.14779331       0.02608575      -0.05922626
H        2.80565985       9.86530921       0.47087347       1.22156590       0.30087382       0.50581149       0.02324263       0.07045528       0.07660007
H        4.23657582      10.21071143       7.36057076       0.00820684       0.65388627      -0.30289310       0.04152442       0.16169217      -0.14419422
H       11.20791222      10.12531637       7.97736779      -0.45855150      -0.06252219      -0.00117096       0.08155312      -0.17763593       0.03091514
H       11.71400447       3.21625018       8.33686079      -0.71505080       0.63181101       0.37638774      -0.09801991       0.10755849       0.12541676
H        4.67037681       9.68110179       0.64007856       0.01920849      -0.03775835      -0.31821737      -0.04145680       0.24457059      -0.21342168
H        2.81865045      10.68337233       9.33096935       0.23099965       0.22396430       0.12032104       0.05703385      -0.15197995       0.04711840
H       11.52946763       3.57121285       3.49852707      -0.44311424      -0.00859704       0.26737105      -0.14069124       0.10694039       0.19216617
H        9.60732232       5.43133072       8.23005160      -0.27796296      -0.08919070       0.09546288       0.05722828      -0.12238464       0.31015890
H        3.64944566       5.10649222       8.32135838       0.04878475       0.15061798      -0.36482802       0.01894660       0.23547648      -0.22194227
H        4.49729185      11.19400345       9.63647208       0.78531204       0.60260291       0.42289933       0.01201924      -0.12360790       0.00054352
H        9.79857899       3.15105584       4.01594649       0.67010762       0.21370216      -0.52628242      -0.15903969       0.18113435       0.18102100
H       10.73609918       5.04920676       7.04019948      -0.13346742      -0.37475607      -1.01096174       0.06032308      -0.25435879      -0.16160548
H        4.71308321       4.29704476       9.40273569      -0.94615889      -0.10056555      -0.32448125      -0.11231081      -0.07199192       0.05087470
H        3.90020828       9.72146863      10.35239575       0.21398232       0.21932760      -0.53635396      -0.06347857       0.07721248       0.07572220
H       10.97150004       9.95648888      10.41904329       0.88741269       0.23245170       0.40931652       0.02283725       0.04152434       0.03033270
H       11.24265789       5.65894930       8.48726256       0.40298516       0.01131583       0.12379067       0.09514156       0.06790073      -0.13638721
H        2.99131164       4.09777229       9.54282152       0.04914336       0.01868749       0.15989970       0.10056676      -0.06076788       0.04416962
C        3.70341268       3.29331800       1.29362753       0.01619234       0.27263681       0.12961413       0.21156912       0.18784956      -0.37240175
C       10.25708427      10.38456635       8.48232616       0.69454900       0.15117623       0.24776793       0.58988190       0.10173378       0.28061895
C       10.36700683      10.28123311       2.34000384      -0.45171671       0.38042068       1.00597690       0.42005082      -1.22413892      -0.18985662
C        3.71279510       9.60814961       1.17119109      -1.39478979       0.39227098      -0.31186302      -0.15687765      -0.10968035      -0.46855467
Pb       6.96718941      13.18643921      11.70202982       0.13088188      -0.00276609      -0.03178631      -0.89558001      -0.28979012       0.15209775
Pb       6.76346046       6.82119402      11.60457635       0.39413125      -0.09801859       0.01531274       0.11150905      -1.85978624       1.60133152
Pb       0.67855738       6.88576015       4.95480446      -0.01927824       0.09582001       0.30688718      -0.72417661       1.08504110       0.55526314
Pb       0.43385857       6.83029866      11.60344713      -0.07912726      -0.32832923      -0.21956764       1.59333685      -0.19496819       0.61585982
N        3.88230271      10.34013437       9.49560969      -1.12950568      -0.84317609      -0.62169395       0.49639547       0.12813764       0.18907620
N       10.46780691       3.88301398       3.46514254      -0.23723381       0.57556554       0.65054718       0.30535211       0.08858978      -0.23940208
N       10.53956440       4.98836389       8.04948480      -0.34047771       0.18603980       0.86200486       0.12664156       0.19162052      -0.14116502
N        3.79631532       4.21227809       8.85209894       0.90443808       0.10645179       0.95979094       0.58730720      -0.21963114      -0.07200030
I        7.66708067       0.94337000      15.13883691      -0.00732537       0.07829321       0.06391052       0.36386485       0.25636339       0.56380862
I        6.46146866      12.48124133      21.56250869       0.18692939       0.10571214      -0.15648368      -0.05036807       4.03519978      -0.98349119
I        6.31757709       9.98589089      17.50438060       0.27510240       0.13293875       0.14390414       0.12440748      -0.17459578       0.75262552
I        7.88533513       3.66997025      18.55431751      -0.13217471      -0.12429532       0.04699446       2.57818906       0.08404386       0.21308979
I        0.94004678      12.05661469      21.36965909       0.01945698       0.13089681       0.00481605      -0.01307339      -0.31531182      -1.35123456
I       13.20761561       1.24807555      14.97888382      -0.24135803       0.00103845      -0.03626676       2.01052747       0.88911046       0.66173052
I       13.17629278       3.83886132      18.51052410      -0.06172645      -0.11995249      -0.04335063       3.58626508       0.57231992      -1.05326560
I        0.78642088      10.14808236      17.08010351       0.14413035      -0.03436011       0.08751418       0.28092897       1.69795715       0.49809255
I       10.41947502      13.43053016      24.14620264      -0.08125228      -0.14221616       0.06617430       0.99211051      -0.81359434       0.72138145
I        3.83740704       6.06515534      18.50529026       0.12814184       0.12551564       0.03869392       0.47588532      -1.89830599      -1.35860045
I        3.81610630       0.93138070      17.51966541       0.18247663      -0.05386938       0.04684077      -1.15407777       0.16648427      -1.48246033
I       10.25763504      12.84874891      18.68425823      -0.13805915       0.01717277      -0.18184475      -0.38231016       2.78234909       1.21268258
H        4.47839268       2.37315018      14.12104683       0.18386099       0.20827328       0.42675744      -0.10251431       0.13254638      -0.02698942
H        9.02968859       4.54696038      14.76177193      -0.51122271       0.11501977       0.10969242      -0.17083524       0.19444317       0.04408234
H        9.43541633       9.76923925      14.87651951       0.22497468      -0.22390083       0.28798755      -0.10717887       0.26834930       0.05258543
H        3.05050879       2.93721926      20.12036272       0.06675181       0.09305071      -0.05007873      -0.06050786      -0.06349772       0.12465800
H        3.67000883       8.62237225      20.89208177      -0.02229996      -0.59083095      -0.16360613      -0.03592998       0.06634547       0.14399825
H       10.76964679       4.95516928      14.38734446       0.68880445       0.21059551       0.13385144      -0.22298498       0.10390778       0.09744167
H        9.96952746       2.77140423      20.95322904       0.14672332       0.70520666      -0.02192126      -0.04856983      -0.09716257      -0.03620034
H        4.84134080       3.06034794      20.17277938       0.17167122       0.01889205      -0.26884037       0.03073542       0.09193401      -0.16078472
H        4.02989702       3.99360784      13.35544429       0.06946424       0.31979323      -0.13718974       0.09635295      -0.23485981       0.04769776
H       10.11580323       3.17458876      14.24610512       0.01506279       0.99194634       0.65337704      -0.21956342      -0.18294263      -0.00245031
H       10.53477913      10.25851284      16.30962215      -0.07362339      -0.03480465      -1.28380783       0.11649183      -0.07780084       0.08088760
H        3.96688492       1.99162737      21.35144621       0.03048585       0.62695414      -0.10270542      -0.24769120       0.09941171      -0.10858736
H        3.42104593       3.10580355      16.23314954       0.29223228       0.53394788      -0.46679297      -0.10754309       0.10327292      -0.18651065
H       10.25929934       8.53850273      22.66107347       0.23824098       0.82441491      -0.69176753      -0.19233027       0.05693531       0.13122933
H       11.15341978      12.18857662      14.74093974       0.91741257       0.10209245       0.52205337       0.14151336       0.15308808      -0.05486594
H        2.93719929      10.63261660      15.78000438       0.77649413      -0.14796461      -1.08533409      -0.11034506       0.06043871       0.12099705
H        2.75074377       4.53562053      15.49727546       1.89519238      -1.01230287      -0.26588762       0.08920166      -0.02844600       0.19693752
H        9.36690557       9.80097940      23.16291666       0.41867321       0.16399137      -0.28407634      -0.05998237       0.10515730       0.01060662
H        9.53586555      12.19007859      14.93902986      -0.06904863      -0.43004408      -0.23833533      -0.09625839       0.06169733       0.08475950
H        4.20194358      11.57014571      14.82647801      -0.48805721       0.09119935       0.08877284      -0.05892905      -0.05638225      -0.02709922
H        4.51143287       4.44342129      15.78836014      -0.69643480      -0.50759054      -0.27488462      -0.00209065      -0.01274607       0.00052881
H       10.45411789       4.72578614      16.87925794       0.29150942      -0.50834041      -0.50548146       0.15937434      -0.04293099       0.11898525
H       10.29017204      11.54246104      13.55218426      -0.33200510       0.09385987       0.17688726       0.12105967       0.01564616      -0.31635966
H        4.60459702      10.26639730      16.00263251       0.51611099      -0.10273184       0.14277855       0.10097094       0.04290000      -0.04459036
C        4.38496129       9.47892118      21.04162721      -0.59767392       0.31403147       0.85249231       0.17651501      -0.20468169       0.10253150
C       10.07155708       4.16060520      14.82995858      -0.47719098      -1.73788134      -0.88286529      -0.03657884      -1.14755515      -0.06033101
C       10.69643494       3.53032575      21.42481004       0.71511358      -1.15907765      -0.36115490       0.35488682       0.78775191       0.05703042
C        3.93041155       2.96947746      20.77399934      -0.24527267      -0.92723423       0.01116578      -0.06897188       0.53390141      -0.23724764
Pb       7.00467405       6.89580877      17.90787579      -0.10289336       0.00729243       0.08757743       0.53154819       1.62906441      -1.45706562
Pb       7.08137564      13.37429910      18.16654330      -0.20841198      -0.14677874      -0.09818794      -2.34380911      -3.88839226       0.83098484
Pb       0.70581529      12.99949177      24.32485238      -0.01597762       0.25797618      -0.15445956      -0.56886015       1.07774723       2.07978189
Pb       0.49528398      13.17683864      17.92663383       0.25072795      -0.00538968       0.14250127      -2.58994404       0.01259507      -0.31555011
N        3.63782315       3.87728020      15.49096312      -1.52007897       0.40054686       0.42288412       0.05882957       0.25386460       0.09930769
N       10.25745262       9.60229159      22.62807086      -1.70853060      -0.72331168       0.76336438       0.17647203      -0.10022867       0.06667960
N       10.33840183      11.59176265      14.59073004      -0.29062119       0.27205798      -0.42267087       0.35712016      -0.26211784       0.93963928
N        3.86362220      10.56202303      15.22037394      -0.91771561       0.18103808       0.40106314       0.07512431      -0.00733463      -0.18993150
I        7.58971723       7.22436730      21.31446098       0.03356147      -0.09644411       0.04279773       1.02260918       0.23621070       1.98151325
I        6.51174718       6.06017538      14.93418409      -0.05940969       0.05568499      -0.06029347      -0.90084936      -0.85989747       0.85699735
I        6.64031586       3.45914274      23.99436681      -0.06831487       0.11139249      -0.09646485       1.48816661       0.76870385      -0.18950793
I        7.39834426       9.87156815      12.40747265       0.21413781       0.15990032      -0.19898999      -0.56864295       0.09378635      -3.26181406
I        0.80017505       6.17706647      14.83372535       0.17274314      -0.12644123      -0.04974412       0.17683198       0.08089959       0.25489704
I       13.18937587       7.21851427      21.23341119       0.07276255       0.16255802       0.07773212       1.59388654       0.02046088      -0.94683212
I       12.87801446       9.94527374      12.18030639       0.12260060       0.08375191       0.08001920      -0.16661575       0.50402171      -0.03601725
I        1.13998030       3.44760861      23.81289132      -0.04361644       0.06681204       0.09524092       0.28737873      -0.39441012      -2.82793947
I       10.27668633       7.28287133      17.49492224      -0.01491427      -0.16122105       0.14584618       1.50871480       2.45784786      -1.05566639
I        4.02376410      12.70496977      12.22781152      -0.21998000      -0.04739548       0.02376755       0.77368246      -2.47823356       0.40762645
I        3.91062972       7.22893526      24.05263041      -0.10329236      -0.13279701      -0.00950977       0.26794413       0.66438973       1.37194212
I       10.27009440       6.09869773      11.58607445      -0.03927747       0.25963628      -0.06940874       0.68389811      -0.59207347      -2.60451039
H        5.50520680       9.19551330      21.16050447       0.29158404      -0.67618128       0.01351142      -0.02291797      -0.11123683       0.00452680
H        9.40384798      10.03511036      20.77333573      -0.19804138      -0.16020922      -0.45827792       0.01000187      -0.02788323       0.17883138
H       10.53805307       3.56048372      22.52579524       0.00000858       0.12879990      -0.12834951      -0.12699670       0.06093901       0.00190011
H        3.56609537       8.47869388      14.40612504       0.12652258      -0.62945335       0.62668440       0.26832902      -0.13210117      -0.10120968
H        2.71114664       2.82431512      13.86128760      -0.21028028      -0.13724380       0.16335991      -0.06823351      -0.03176059      -0.05541606
H       10.29973174      11.41726750      21.49485734      -0.08317635      -0.59745040       0.15865328      -0.09645254      -0.04959672       0.16814242
H       11.25101146       9.68958795      14.70618594       0.04812624      -0.12851278       0.01030227       0.14779331       0.02608575      -0.05922626
H        2.84172640       9.80033615      13.30395366       1.22156590       0.30087382       0.50581149       0.02324263       0.07045528       0.07660007
H        4.27264237      10.14573837      20.19365095       0.00820684       0.65388627      -0.30289310       0.04152442       0.16169217      -0.14419422
H       11.24397877      10.06034331      20.81044798      -0.45855150      -0.06252219      -0.00117096       0.08155312      -0.17763593       0.03091514
H       11.75007102       3.15127712      21.16994098      -0.71505080       0.63181101       0.37638774      -0.09801991       0.10755849       0.12541676
H        4.70644336       9.61612873      13.47315875       0.01920849      -0.03775835      -0.31821737      -0.04145680       0.24457059      -0.21342168
H        2.85471700      10.61839927      22.16404954       0.23099965       0.22396430       0.12032104       0.05703385      -0.15197995       0.04711840
H       11.56553418       3.50623979      16.33160726      -0.44311424      -0.00859704       0.26737105      -0.14069124       0.10694039       0.19216617
H        9.64338887       5.36635766      21.06313179      -0.27796296      -0.08919070       0.09546288       0.05722828      -0.12238464       0.31015890
H        3.68551221       5.04151916      21.15443857       0.04878475       0.15061798      -0.36482802       0.01894660       0.23547648      -0.22194227
H        4.53335840      11.12903039      22.46955227       0.78531204       0.60260291       0.42289933       0.01201924      -0.12360790       0.00054352
H        9.83464554       3.08608278      16.84902668       0.67010762       0.21370216      -0.52628242      -0.15903969       0.18113435       0.18102100
H       10.77216573       4.98423370      19.87327967      -0.13346742      -0.37475607      -1.01096174       0.06032308      -0.25435879      -0.16160548
H        4.74914976       4.23207170      22.23581588      -0.94615889      -0.10056555      -0.32448125      -0.11231081      -0.07199192       0.05087470
H        3.93627483       9.65649557      23.18547594       0.21398232       0.21932760      -0.53635396      -0.06347857       0.07721248       0.07572220
H       11.00756659       9.89151582      23.25212348       0.88741269       0.23245170       0.40931652       0.02283725       0.04152434       0.03033270
H       11.27872444       5.59397624      21.32034275       0.40298516       0.01131583       0.12379067       0.09514156       0.06790073      -0.13638721
H        3.02737819       4.03279923      22.37590171       0.04914336       0.01868749       0.15989970       0.10056676      -0.06076788       0.04416962
C        3.73947923       3.22834494      14.12670772       0.01619234       0.27263681       0.12961413       0.21156912       0.18784956      -0.37240175
C       10.29315082      10.31959329      21.31540635       0.69454900       0.15117623       0.24776793       0.58988190       0.10173378       0.28061895
C       10.40307338      10.21626005      15.17308403      -0.45171671       0.38042068       1.00597690       0.42005082      -1.22413892      -0.18985662
C        3.74886165       9.54317655      14.00427128      -1.39478979       0.39227098      -0.31186302      -0.15687765      -0.10968035      -0.46855467
Pb       7.00325596      13.12146615      24.53511001       0.13088188      -0.00276609      -0.03178631      -0.89558001      -0.28979012       0.15209775
Pb       6.79952701       6.75622096      24.43765654       0.39413125      -0.09801859       0.01531274       0.11150905      -1.85978624       1.60133152
Pb       0.71462393       6.82078709      17.78788465      -0.01927824       0.09582001       0.30688718      -0.72417661       1.08504110       0.55526314
Pb       0.46992512       6.76532560      24.43652732      -0.07912726      -0.32832923      -0.21956764       1.59333685      -0.19496819       0.61585982
N        3.91836926      10.27516131      22.32868988      -1.12950568      -0.84317609      -0.62169395       0.49639547       0.12813764       0.18907620
N       10.50387346       3.81804092      16.29822273      -0.23723381       0.57556554       0.65054718       0.30535211       0.08858978      -0.23940208