768
Lattice="31.69945668710882 -0.05318654843770361 -0.36351599514761185 0.040002385871756 30.414649832433703 0.5117498230958147 0.4104475048070117 -0.22194636651643873 17.44856456336718" Properties=species:S:1:pos:R:3:forces:R:3:momenta:R:3 energy=-3313.17106892703 stress="0.0 0.0 0.0 0.0 0.0 0.0 0.0 0.0 0.0" pbc="T T T"
I        6.47501829       3.35281426       2.84529144       0.15300110      -0.02134584       0.07454718      -1.51851898      -0.36329604      -1.09043392
I        1.38534198       7.95684899       2.17693192      -0.40866037      -0.13200118      -0.20920143       0.15030692      -0.65319169       3.52869029
I        7.16447339       3.10699925       6.81069235      -0.26750996      -0.17753938       0.46509912      -1.00432959       0.10069784      -2.65629758
I        1.36066728       7.44617305       6.33919685      -0.31462486       0.16207326       0.01801768      -0.26957483       2.06191734       1.95238425
I        4.87028610       6.50154593       4.14609548       0.47513854       0.11013266       0.17619390      -3.86757871      -1.07158457       4.62365846
I        2.87444051       4.00779364       9.50177014       0.38868270       0.21341548      -0.44168611      -0.67228708      -3.37342318       1.22645916
H        2.64177434       3.46339775       5.54750655       0.15545513       0.61903239      -0.42940400       0.22556990       0.50429632       0.06609163
H        5.80444009       8.04869328      17.17372492      -0.26036714       1.34549215       1.00894371      -0.12449970       0.11390473      -0.00852345
H        0.92284157       2.93264980       5.66193231      -0.62797622      -0.64454559       0.80889004      -0.12293650      -0.03096735      -0.01314978
H        6.42533074       6.80209626      16.06806725       0.82627398      -0.15944783      -1.12926220       0.32839763       0.13912057       0.19414873
H        1.84388377       2.46498670       4.14137935      -0.18837339      -1.07840417      -0.48978284      -0.15463877       0.23237849       0.19594249
H        4.71785487       6.61833459      16.78310978       1.48539940       0.48847110       0.28093006       0.17095391      -0.17209642      -0.04921819
H        1.91579362       4.99570962       3.49881665      -0.45704844       0.02527543       0.24901776       0.13779493      -0.18082999      -0.03722074
H        7.22904912       6.84457865      18.57623161      -1.59563279      -1.53729194      -0.05635035      -0.36694834      -0.07795214       0.19315381
H        0.93658877       5.26667786       4.95600208      -0.12867640       0.85397990       0.24870885      -0.31788947       0.10257216      -0.11021160
H        6.83762009       5.13738313      17.93683191      -0.79961882       1.90728571       0.71848258      -0.11572239       0.02875399      -0.03216654
H        0.34805157       4.25537018       3.55345837      -2.36524862      -1.11301641      -0.43499322      -0.01759291       0.06291933      -0.07425616
H        5.66879455       6.13439687      19.01446091       0.44854764      -0.10375139      -0.28630975      -0.01364577       0.23820412      -0.02955790
C        1.66690453       3.24034024       4.91089557       0.29135229       1.10927398       0.36555314       0.30690528       0.12983228       0.38845926
C        5.79865690       6.98143570      16.94776090      -1.58835255      -3.49544647       0.94097103      -0.69996187      -0.81415662       0.95941374
Pb       4.95902141      16.85967715       9.44338599       0.00252508      -0.18487526      -0.14946888      -2.02869373       0.35364932      -0.68226241
Pb       1.00371175      16.67866338       9.41807541      -0.01108587      -0.02286010       0.09527555       0.67288923      -1.43676274      -1.38003944
N        1.13977673       4.52321085       4.19337555       3.83694796       0.67228047      -0.15314805       0.22786935      -0.75759535      -0.29617266
N        6.39392860       6.15752693      18.20980140       1.54762089       1.16838604      -1.64057216      -0.58982078      -0.50616477       1.39393031
I        4.95436276      10.90696549       6.53338223       0.32661857      -0.33089928      -0.20144554       3.22645203      -0.88245512      -3.12122655
I        2.95824220      15.10143654       7.44488816       0.12869455       0.18932174      -0.24082931      -0.25273195       2.86731373      -1.04468599
I        5.32591826      10.30982200       2.11989672       0.09832803       0.03376385      -0.09459661       0.63856520       1.28073869      -2.82587010
I        2.58233144      15.23631627       3.19447631       0.03778248       0.23929834      -0.46697328      -1.60933694       0.31843206       1.65764604
I        6.66615520      14.01812368       0.69718836      -0.09206192       0.03014129       0.08004127      -0.06801389       2.57101946       3.28850861
I        1.24617433      11.62081460       3.82018367      -0.25388447       0.11023629       0.41899502       0.37147582      -1.21973205      -1.95384880
H        1.56072229      10.35953146       8.77624594      -0.13509330       0.97826324      -0.08626513      -0.16348155       0.00437140      -0.02767027
H        5.88623330      15.53084039       5.51707427       0.96959624      -0.38355352      -0.85815955       0.18280622      -0.07981125       0.30955424
H        0.72379409      12.02872692       8.37661933      -0.24074571      -0.59471150      -0.04284949      -0.00196811      -0.06538283      -0.08521843
H        7.25869340      13.67680560       5.20314702       0.78793090      -0.21027224       0.58224778       0.22527448       0.05669754       0.21538024
H        2.06298599      11.31493768       7.31270554      -0.43769455       0.22423399       0.83105398      -0.07509042       0.15650561       0.32798729
H        7.20796509      15.19558210       3.58490613      -0.21763922      -2.37751654       1.19728119       0.01875351      -0.17333824      -0.12787304
H        3.50040532      11.72261471       9.25582647       1.53096264      -0.84761500       0.03739893       0.13323210      -0.01958801      -0.04971356
H        5.75307865      12.88368169       3.29948844       0.04868910      -0.12822918       0.60921639      -0.03862675      -0.20457155       0.00721147
H        2.34816076      12.10461425      10.26583718      -0.76244862       0.58026922       0.21763141       0.12946872      -0.06097181      -0.02240470
H        4.59996331      13.97698942       3.95716044      -0.73650107       0.67012635       0.00089456      -0.11271922      -0.30073946       0.17085240
H        2.82636504      13.14867817       8.99964115      -0.54718231       1.42263327      -1.19520344      -0.37251196       0.26870009      -0.13092459
H        5.02139491      12.66965005       5.00439579       0.57152046       0.56407541       0.00228015      -0.25317121       0.06035111       0.35803664
C        1.66394834      11.41048052       8.38648537      -0.18755662      -0.45219607      -1.99642934      -0.14943465       0.17070415      -0.92560961
C        6.55212988      14.49141925       4.69648452      -1.15904592       3.42992141      -0.13383424      -0.36124289      -0.12846861      -1.22328935
Pb       3.21783959       8.92860658       4.30093543      -0.13912679       0.26693471       0.12289509      -0.93242548      -1.33675201      -0.21461250
Pb       7.16540720       9.31380135       4.50997137       0.07462566      -0.46906169       0.01677105       2.88266663       2.83835310      -0.30021055
N        2.59643053      12.17651547       9.20281826       0.68519730      -1.42676534       2.32517126       0.48428690      -1.06798513       0.09508661
N        5.44091166      13.45077597       4.25771244      -0.30336244      -1.37136121      -1.36923434      -0.72295773       0.07030300       0.89098597
I       14.27041052       2.44130361       2.82713881       0.05046934       0.24840024       0.37940929      -0.00780328       0.20914278      -0.20028698
I        9.14015098       8.24318699       1.92346506      -0.40430279      -0.06878272       0.15100311      -0.32514979      -0.03699455      -0.97356842
I       15.19315113       3.04765332       7.50479529      -0.35195016       0.10542452      -0.31446375       0.57496248       3.34456650       1.08272517
I        9.58788458       7.31160833       6.33327075      -0.19555212       0.37326092      -0.32584473       3.11593186      -0.81515943       1.64604487
I       13.60063455       6.46504182       4.03801832      -0.56344960       0.15136964       0.09298609       0.40006636      -1.86644024      -2.47179681
I       10.85098397       4.15740239       9.52222211      -0.04057200      -0.21574112      -0.08174102       0.10137464      -1.13904609      -0.57782672
H       11.67182914       3.93646230       5.26181458       0.74866574       0.58088883       0.35512515      -0.36168037      -0.00827565      -0.03031945
H       14.34470708       6.88257525      16.51317847       0.14787102      -0.00895052       0.07061550      -0.00428875      -0.09070470       0.31768865
H       10.01536787       3.55599804       5.89533172       0.06036311      -0.58949965       0.64643500       0.00442066       0.01679494       0.11149483
H       12.77752843       6.46735982      17.23190026      -0.54925141       0.76513969      -0.24273408       0.00453191      -0.41588852       0.05567403
H       10.78142308       2.62151883       4.40450018      -0.51254031       1.73325380       1.58788228       0.14261385       0.13032240      -0.24470856
H       13.88953937       7.79826259      18.03427793       0.14922904      -1.51321610      -0.03483235       0.01955247      -0.00549991       0.15755685
H        8.99431372       4.45330898       3.93260650      -0.08465342      -0.66839745       0.01912061      -0.26638610      -0.34929683      -0.00338172
H       14.35027704       4.64963861      17.49061081       0.05248603      -0.16790320       0.06984596       0.11999171       0.12606971       0.16480468
H       10.57120189       4.50010918       3.17677475      -0.50862725       0.39541716       0.12663052       0.26378982      -0.11084474      -0.16382069
H       13.83599468       5.23484820      19.04828815      -0.38004978      -0.04400508       0.08273181      -0.07547862       0.05179172       0.20284125
H       10.07406727       5.58518140       4.53278207       0.23982237      -0.10612380      -0.27290218      -0.20410044       0.09148255       0.03379215
H       15.30445214       5.70107133      18.53669091       0.44545635      -0.13144287      -0.01750368      -0.00606801       0.04919778       0.20673556
C       10.67963655       3.60192518       5.04299057      -0.78676998      -2.03960841      -2.26388465       0.26754220       0.56798433      -0.31034558
C       13.79773773       6.79784609      17.46040970      -0.18459319      -0.47845796       0.26306150      -0.18707032      -0.33345676      -0.95704295
Pb      12.94422343      16.52312474       9.51525161       0.15711643       0.68497371      -0.69459840       1.37738501      -0.30113795      -2.82045568
Pb       9.11580726      16.75523304       9.40338387      -0.12052527       0.34315653      -0.29876781       1.52879005      -5.31313872      -0.81205456
N       10.03419377       4.59656808       4.11376329       0.65232196       0.66123281      -0.01153701       0.52771424       0.08190631      -0.16524671
N       14.34428729       5.48209992      18.18204290       0.58937738       1.76127483      -0.34160106       1.43182623      -0.15688765       0.50378372
I       13.48329806      10.17379487       6.34470874      -0.46439379       0.15909524       0.31605423      -2.43349025       1.45961619      -0.78968218
I       11.08508621      14.92677903       7.23063606      -0.34021149       0.25031876       0.51428386       1.29204962       3.76276687       2.44193304
I       13.30948602      10.87122944       2.12210126      -0.39731991      -0.21503948       0.03690497      -3.02210823      -1.42632952      -1.15117115
I       10.52688411      15.56541145       2.91447204       0.05960711      -0.15851817       0.08227667      -1.91026471      -1.72198504       2.45712345
I       14.59830892      14.21195045       0.76796765       0.09686711      -0.20630588      -0.02943375      -3.08783996       2.55785930      -1.43608736
I        9.23618855      11.70787490       4.29647645       0.09858610      -0.36864071       0.11351310       3.09413779      -1.47188928       0.09831878
H        9.25166451      10.48581303       8.96270918       0.04079450       0.70291769       0.56594656       0.00036198      -0.08136230      -0.02834711
H       13.07298168      13.91622384       5.88058930      -0.10577096       0.12007033       0.23638507       0.04713372       0.43055172      -0.17834829
H        8.71526504      12.27597808       8.54020364       0.06247199      -0.45985845       0.03027777       0.33514379      -0.26299416      -0.02290295
H       14.62595544      13.20074372       5.35682974       1.05672097      -0.58695926       0.34842971      -0.12253523      -0.12484478       0.01220160
H       10.06555677      11.37132452       7.72385764       0.50146485       0.39690254      -0.41026750       0.00513120       0.11376898      -0.27331406
H       14.16650827      14.72553328       4.64771046      -0.26312721       0.98413878      -0.47712146       0.07408231      -0.05805220       0.23616741
H       11.42412530      11.77982226       9.85885686      -0.11810093      -0.40817200      -0.64248868      -0.13644989      -0.06294854       0.14230799
H       13.47711529      13.18546583       2.97218071       0.17763463      -0.30726683       0.50283714       0.07044097      -0.27898678      -0.02158854
H       10.10436407      12.15522325      10.62136781      -0.90236743       0.61756327       0.76474120       0.03199003       0.06653172       0.22397767
H       12.12758196      13.56001803       3.81878479       0.27548898      -0.83146675       0.37343503      -0.20699299       0.43460272      -0.17524944
H       10.73910372      13.25419975       9.43427265      -0.58599737      -0.56855981      -0.26379834       0.42951148       0.24924973      -0.40242293
H       12.95006582      11.97662909       4.15782975      -0.12018237       0.26910581       0.14308491       0.13269096       0.07581886      -0.08958597
C        9.58156291      11.54283781       8.68193982      -0.39245326      -0.10181974      -0.59778098      -0.19198993      -0.37625398      -0.58702014
C       13.77477209      13.78278966       5.04833752      -0.42426792      -0.88503734      -0.03853307      -0.23636511      -0.13854339       0.58780408
Pb      11.27768702       8.96427449       4.13222426       0.22415515       0.14797076       0.02752684       3.05887687       3.71104199      -1.16959858
Pb      15.32030936       9.06413497       4.23731535      -0.08323186       0.35985437      -0.23026266       0.03629931      -1.67650774      -2.70662556
N       10.49406189      12.22463659       9.66049650       1.38912550      -0.21083442       0.41569828      -0.10664951       0.00925810       0.68814970
N       13.04389071      13.02621671       3.96492860      -0.40490105       1.49053697      -0.98482812       0.13977313      -0.72906855      -0.25344305
I        6.61089758       2.97807079      11.41599666      -0.27862536      -0.44984027      -0.43796071      -1.97336031       2.81325989      -2.62475595
I        0.87216659       8.18312301      10.20285457       0.54098672      -0.21560208       0.00231697      -2.14567926      -2.76588433      -2.39385871
I        6.63486869       2.69301343      15.97704386       0.14323019       0.34028984       0.38026371      -0.29679615      -1.00144319      -0.46126105
I        1.61694011       7.38474024      14.56522962       0.20163804      -0.03938356       0.50369470      -1.14426798      -1.43232999      -5.26860787
I        5.48212120       6.38328467      13.21471246      -0.03463827      -0.03430577      -0.31548263      -2.62224742      -2.07967028      -0.91886607
I        2.50591994       4.12450659       0.92492823      -0.09680166       0.04280902      -0.15433529       2.09593100      -1.43820482       2.57755108
H        3.70101065       3.56742816      14.02863812       0.06215921       0.06772084      -0.04706242       0.19154813       0.06455222       0.19072623
H        6.10882679       7.82844379       8.75457190       0.36288971      -0.28416550       0.16429167      -0.19306152       0.38870440       0.13647988
H        1.90736164       2.96095463      14.17962773      -0.00281849      -0.17888083       0.93264912      -0.15083074      -0.18536410       0.23568135
H        6.85232706       6.75614397       7.50817140      -0.52971197      -0.37187430       0.23756088      -0.17708066      -0.31938863      -0.05820397
H        2.82121285       2.43468670      12.73510508       0.26044177       0.11109084      -0.00619138      -0.09001735       0.16348861       0.11745238
H        5.02021005       6.56416551       8.14019487       0.83285645       0.15792655      -0.41599078      -0.35122836       0.11722894       0.11037757
H        2.78459346       4.63563550      11.88312296       0.80774250       0.54845916      -1.40092263       0.09817443       0.03266800       0.00847709
H        7.53767930       5.96711737       9.75199245      -0.83744218      -0.01498858      -0.32644400      -0.03441010      -0.03693825      -0.01542664
H        2.02934983       5.36648970      13.20990913       0.07990025      -0.07410794       0.20284070      -0.17421536       0.04263599       0.32684142
H        6.58063727       4.76372047       9.09180462      -0.31004599       0.15560689      -0.39669994      -0.28804092      -0.44696548       0.30279338
H        1.26000210       4.12696606      12.21645701       0.93725762       0.76472298       0.48881578      -0.08276271       0.19198166      -0.07319317
H        5.92043122       5.80434220      10.27519067       0.07132976       0.01048105      -0.53959771      -0.23377794      -0.25196611      -0.09158793
C        2.73453989       3.28452765      13.47106300      -0.51668295       0.17839803      -0.15070223      -0.54925039      -0.20067027       0.63794993
C        6.12908918       6.77269614       8.37527189      -1.68744764       0.98246016      -1.11363193      -0.41776638      -0.38020602       0.32112420
Pb       4.44136284      16.55772113       0.79528767      -0.28817946      -0.37999382       0.43652403       2.74026449      -6.13769280       0.12154991
Pb       0.40025366      16.85405116       0.64235276       0.55595676      -0.54308145       0.46684701      -1.13145575      -2.46683721      -0.24404338
N        2.19516557       4.48301578      12.67607990      -1.90244424      -1.48972239       0.10476736      -0.25670258       0.07299663       0.21882230
N        6.51533802       5.78351119       9.38824144       1.95626776      -0.77235853       2.39678901       0.68152924       0.07770766      -0.34301635
I        4.79492038      10.48761288      14.57644379       0.21808274      -0.04453679       0.76299501       3.94027761      -1.25418461      -3.40198140
I        3.01435160      14.51475189      16.23513639       0.07533172       0.38985833      -0.10301006      -1.03639887      -0.09341964       0.16891044
I        5.58222345      10.06713117      10.26032695       0.03762054       0.09056871       0.24924038      -1.30976224       1.29719351       2.57076814
I        2.80052304      15.13516230      11.56778669       0.47544019       0.27406014      -0.23836022      -3.73162423       0.35003728      -2.61517527
I        7.14309034      14.31257249       9.39994133      -0.29645298       0.03690923       0.30998902       3.88811761      -4.12254594       1.73710855
I        1.47357879      11.75889139      12.73282792       0.33103183      -0.25278236      -0.02966526       0.49846393       1.36102140       2.04723784
H        1.48153593      10.13672474      17.85613329      -0.11685401      -1.19157048       0.12614207      -0.11729611      -0.00547340       0.13302885
H        5.81583890      14.77892821      14.72826395      -0.19755728      -0.76290963      -0.82727898      -0.06469903       0.15049497       0.25806685
H        0.69746238      11.57357473      17.21634939       0.32595058       0.11122853       0.20203199      -0.05299974       0.09229691       0.02507989
H        7.25275389      13.61737474      14.32584673       0.49836944      -0.58301293      -0.31030083       0.40583840      -0.06377039      -0.31881132
H        2.15840204      10.95918694      16.42923361       0.40997318      -0.43972545      -1.07194106      -0.26761373       0.10066718       0.18153751
H        6.78027687      14.97444146      13.16919254       0.32544720       1.28759255      -0.97883974      -0.19185704       0.07456687      -0.16903731
H        3.50664824      11.42231719      18.28926128       0.36009471      -0.13490882       0.35654424      -0.05646853      -0.01453289      -0.04339747
H        6.11667650      13.04828607      12.14057623      -0.19986364      -0.05452479       0.69228617      -0.07479057       0.10842991       0.00838495
H        2.13116701      11.96141853      19.19955875       0.89568936      -0.37366073      -0.72135839       0.29050113       0.04967500       0.02713084
H        4.67776696      13.64521421      12.61034123       0.28263846       0.55339217       0.61278180      -0.16143601      -0.12869680       0.00403708
H        2.62117747      12.79641792      17.77679536       0.39983655      -0.22368540       0.26172946       0.12255159       0.10027377      -0.09477889
H        5.26225657      12.29409502      13.36501323       0.42240840      -0.11657891       0.98326919      -0.04526208      -0.06549879      -0.41298480
C        1.66745538      11.06177843      17.36613584      -0.95985757       0.15587511      -0.20114568       0.27887658      -0.61140703      -0.01588484
C        6.40921934      14.17226799      13.83778634      -1.40938619      -0.12889460       1.77285816       0.59710696      -0.00286449       0.20092701
Pb       3.49765502       8.88290605      12.39026083      -0.29444451       0.19884155      -0.19626649      -1.01078035      -0.96652683       2.76606804
Pb       7.42721902       8.92769101      13.09603155      -0.08469718       0.18865604      -0.32172745      -0.09698972      -3.08328030      -1.74393219
N        2.56397565      11.82703146      18.21595139      -1.20985338       2.01803991       0.93169399       1.24541764      -1.30873631       0.19256010
N        5.56946930      13.24029064      13.02705321       0.27300439       0.32454057      -2.33720586      -0.82867176      -1.03320018      -0.06401166
I       14.89480120       3.04734385      11.72521899       0.20864494       0.05967095       0.06677965      -1.41375740       1.31724264      -0.93200852
I        9.23409626       7.73613442      10.77055295       0.11082411       0.15158467       0.01755298       0.71704623       0.14027203       1.89641350
I       14.76287357       2.46890150      16.23069959      -0.01937017       0.32982461      -0.47135138       0.77785746       1.30101901      -0.28915611
I        9.46785135       7.81287529      15.15398312      -0.15809992       0.01251816       0.09252071       2.01609811       2.44946997       1.06069724
I       12.74880235       6.34477368      13.29506633       0.18871893       0.76811722      -0.35691798      -0.88951786      -2.07038293       0.90103481
I       10.66527367       4.29904090       0.93928366       0.05036298      -0.09512303      -0.24615308      -2.58366716       1.60188491       4.23307730
H       10.75965398       4.37450618      13.96224601       1.48236145       0.60916564       0.60641972      -0.05576782      -0.23164418      -0.05691966
H       14.21900566       6.54793886       7.21050704       0.40520261       0.74823478      -0.72614384      -0.08491526      -0.05898560      -0.05039098
H        9.22411976       3.84934526      14.77245784      -0.25221026       0.74225820      -0.08218862      -0.12276894       0.14929118       0.33521725
H       12.47035013       6.48261648       7.91327463       0.01802539      -0.18628766      -0.65303289       0.07424828       0.19243530       0.29362453
H        9.76665644       3.04358900      13.33471577       0.45843616      -0.22879340       0.09514555      -0.16664617      -0.25204938       0.30456555
H       13.27412361       7.92154233       8.35391534       0.88465784       0.25097804      -0.52528435       0.19284532       0.01306987      -0.49152104
H        8.16632596       4.57655560      12.72181403      -0.83562572      -0.85538376      -1.11673605       0.11351898       0.11022150       0.00235297
H       14.05676615       5.02927918       9.07720420       0.58953137       0.27467914       0.29901928       0.19894834       0.07398926       0.00389628
H        9.66134648       4.94443185      11.90340599      -0.69887624       0.17287984       0.93143095      -0.13091140      -0.04889310      -0.26353792
H       13.08422243       6.04360916      10.08153827       0.08849040       0.00509807       0.70388884       0.13255488      -0.24674283       0.41210361
H        8.90720608       5.82959156      13.27638742       0.89570898       0.78230416      -0.31088339       0.21218179       0.39925483      -0.02678102
H       14.76879356       6.41364789       9.82499834       0.98250988      -0.00118879       0.31466864      -0.06083452       0.09524181       0.03537682
C        9.78136312       4.01975158      13.84695020      -1.35657378      -1.15522824      -1.54071621       1.21710498      -0.52163318      -0.92330728
C       13.49463279       6.85899662       8.05782540      -1.47212970      -0.86912820       2.03588467       0.14420326      -0.55388978       0.69354363
Pb      12.66107483      16.71582128       0.78499658      -0.37624729       0.65115913      -0.03737101      -6.91527564      -2.21637464       1.91931633
Pb       8.43096003      16.56825676       0.59167032       0.18486180       0.67390138       0.37094776       5.23007186       2.28466904       1.81487066
N        9.11189291       4.92659028      12.82697947       0.60661843      -0.11220723       1.47179838      -0.19098407       0.75155445       0.49788920
N       13.92036483       6.04247020       9.37402167      -1.51665929      -0.25744729      -1.16447238       0.19046603       0.02020983      -0.33938063
I       13.49497785      10.27013351      15.32601479      -0.29297389       0.33440102      -0.23090671      -1.73904319      -2.19786306       2.55561478
I       11.00307090      15.26045096      16.06017837       0.10392448      -0.29843480      -0.16057557      -1.73946761       0.43240719      -1.85894046
I       13.33209843      10.37377830      10.78504008       0.08358121      -0.00296469      -0.23043861      -1.02379348       0.00635033      -0.33938171
I       11.14230696      15.75695894      11.73631680      -0.31411252      -0.43022735       0.49011911       1.19540211      -2.06430165      -3.07487642
I       14.50654576      13.60337002       9.70784211       0.02268276       0.36074240      -0.06879707       1.33950814       0.05858719       1.16787240
I        9.03088482      11.82951730      13.15834400       0.22733425      -0.03870570      -0.23049071       0.34488483       1.91555340      -0.74181125
H       10.00473541      10.38008191      17.20597683      -0.13404783      -0.13067088       0.48928829      -0.05605680       0.01683628       0.14852505
H       14.18082119      14.57080875      15.31776407       0.14191873      -0.14905749      -0.17089211       0.05773203      -0.03826295       0.02920011
H        9.16846024      11.97252071      16.72296267       0.41056383      -0.54490250       0.29658630       0.24755401       0.21743198       0.07878368
H       15.56483258      13.75814558      14.30951122       0.02060013       0.20619654       0.16704085      -0.13357339      -0.26639285       0.08115572
H       10.93534078      11.72108829      16.22658000      -0.62165551       0.01515162       0.95080382      -0.24725642       0.04719042      -0.06231164
H       14.84105166      15.45367670      13.82349534       0.08609681      -1.51095531       1.09710558       0.06554366      -0.22928092       0.09133921
H       11.60749359      12.01942132      18.62925583      -1.83830293       0.29845398      -0.12202448       0.25295864       0.27466212       0.32764085
H       14.05094271      13.45512833      12.39968982      -0.06336249       0.39910818       0.80300515      -0.03476233      -0.45762103       0.02911420
H        9.84884500      12.12080329      19.17370283       0.64277319       0.23527138      -0.24017643       0.04776292      -0.28978286       0.14488578
H       12.70142602      14.13860962      13.08750855       0.63805356       0.42723255       0.79402823       0.01602192       0.30848297       0.32925292
H       10.62301807      13.25790561      18.04899019      -0.01208074       0.90371601       0.25752063      -0.10938773       0.04071571      -0.22202587
H       13.46556817      12.80714442      13.83439411      -0.38185572      -0.37543898      -0.22369081       0.22553401       0.00206746       0.37360695
C       10.12968531      11.51142629      17.08464793       0.10562850       0.08415524      -2.33469120      -0.60575384       0.42562765      -0.23073697
C       14.64855721      14.43237934      14.32507059      -1.06072954       1.50048798      -2.66415487      -0.62501930       0.61883402       0.30787889
Pb      11.32030612       9.43432861      12.85958181       0.17342421      -0.69759977       0.48028175      -1.17181699      -0.45350181      -0.04722310
Pb      15.21146333       8.90223408      13.08976790      -0.16997089      -0.39069081       0.29455305      -1.14832130      -2.84920583       1.26510262