768
Lattice="38.16606883306081 0.7708101007676014 0.3666927628512125 -0.3296249581406084 22.360322942442707 0.08526197331993467 -0.1800967783537251 -0.06462717078727989 19.468533293292147" Properties=species:S:1:pos:R:3:forces:R:3:momenta:R:3 pbc="T T T"
I       17.80571669       6.71091144       3.99106202       0.05913347       0.13794026      -0.01126366       0.50691145       0.14636067       0.53973930
I       18.34233921      10.81232947       1.72981644       0.28096328      -0.18492709      -0.06315801       0.14852855       4.14505669      -0.59981870
I        8.76269199      12.27990527       3.74716906       0.14917529       0.10975836       0.03091385      -0.44617042      -0.71345012       0.00904960
I        8.56534923       4.84576129       1.40956692      -0.29120916       0.01931192      -0.08334611       0.52119830       0.56487021      -0.87002563
I       16.32957321       3.17798555       1.46520953      -0.03631791       0.15686701       0.05548922      -0.46581493       1.33936479      -0.13674297
I        1.21737706      14.02568795       3.91820352      -0.19009505      -0.08939625       0.11934226       2.08477801      -0.00006017       0.92219769
I       10.66542303       8.88685423       1.41898192      -0.23708862      -0.20538044       0.03946479       2.37033982       0.35825081      -1.43584257
I        6.50179958       8.56920249       3.61512404       0.04195665      -0.22990037       0.08233883       0.42569068       0.64969428       1.13275502
I        2.73227214       6.30032765       1.17076275       0.06697490       0.05894801       0.12851345       1.89390796      -0.81046825       1.44196713
I       14.63916335      10.83531637       4.03503046       0.11716212       0.14508606       0.04996810      -0.00708100      -1.47935326      -1.74929108
I        4.86548670      12.18205065       1.35995975       0.36236590      -0.05003104      -0.06858403      -0.27021093      -1.24966747      -1.48141853
I       12.22489032       5.29594344       4.09027468      -0.20996281      -0.03518147      -0.09765720      -0.10000338       3.00188455       1.62643214
H        5.49180364       4.98933196       2.61361824       0.22260726       0.37279323      -0.44666273      -0.05204327      -0.14439531      -0.05124744
H       11.61470765      12.39902504       2.83477720       0.09019398      -0.46170523      -0.02652016       0.22844516      -0.12257418      -0.07680506
H        3.80859494       9.09717133       3.50004292       0.44664113      -0.03843604       0.16536818       0.06073025       0.15235632       0.05072132
H       14.81565309       6.48567572       2.20562279      -0.85329056       0.64680332      -1.36613718      -0.02672836      -0.02454624      -0.12183529
H        4.19884566       4.61002618       3.95115945      -0.48695479      -0.59016446      -0.31111516      -0.01980511      -0.02536809       0.09893099
H       11.96734124      12.18663635       1.02239270      -0.07705081      -0.12975518       0.25203066      -0.14434814      -0.02109994      -0.00744166
H        2.80062850      10.25421098       2.62229638      -0.38797069       0.41738495      -0.52965447       0.04507111       0.07944417      -0.15832705
H       13.55091002       7.50355525       1.20913996       0.89458134      -0.29891686       0.19324266       0.03352341      -0.03860046       0.05164852
H        5.71069968       5.47050128       4.41008441       0.43569542      -0.37741485      -0.40207880      -0.04233127       0.17734795       0.12626180
H       13.11543926      13.03561397       2.05566879       0.28375213       0.74496351      -0.00128039      -0.19643375      -0.22223575       0.03484432
H        2.80137241      10.32113434       4.41926938       0.11964462       0.23928123      -0.18046104       0.10888900       0.02291962       0.05110960
H       15.02883123       6.75764708       0.41660603       0.09208681      -0.42500100      -0.83663650      -0.13668112      -0.10825471      -0.02215630
H        5.68571920       2.76687968       4.71664464      -0.08962843      -0.01635397      -0.30092527      -0.20356068       0.06843297       0.10376283
H       11.37527078      14.54141522       0.71073270      -0.23051772      -0.33952000       0.28171022      -0.12666122       0.04321224       0.16206766
H        1.62004706       8.17243332       4.64484820       0.26635100       0.57259242      -0.89360593      -0.02643363      -0.05522626       0.08772953
H       15.36846842       8.80789683       2.67582958      -0.25413190       0.07644492      -0.23205868      -0.07475201       0.05203691      -0.08720027
H        6.99693488       3.30516192       3.77662419       0.42804513       0.25881522       0.07975064       0.18321856      -0.03436158      -0.15146511
H       11.38702184      14.83684611       2.36991626      -0.41994344      -0.42659332      -0.28139300       0.05676047       0.13149275      -0.01654085
H        1.91019811       7.88051783       2.97114369       0.04216487      -0.46724183      -0.72362855      -0.03541314      -0.17689113      -0.06776120
H       15.28623006       9.19190725       1.02584466      -0.15494613       1.11331314      -1.10555871       0.01247417      -0.11607184       0.08745370
H        5.65782902       2.66809130       3.00593067      -0.08837100      -0.41434962       0.12933201      -0.04630224      -0.04719210      -0.08247711
H       10.17834805      13.76869742       1.69817977       0.26177363       0.32220908       0.07777291      -0.14128624       0.03222345       0.00453174
H        0.73918734       9.14223382       3.45114068       1.72954560      -0.35128061      -0.22138264       0.05843658       0.10503265       0.08987148
H       16.45979919       8.21109516       1.55213860       1.74675388      -0.66558490       0.03817743       0.10559369       0.01169317       0.05275733
C        5.31500300       4.66870116       3.67445588       0.12142047       0.17718603       1.19913848       0.24064152      -0.50320681       0.01259706
C       12.04092100      12.85382727       1.90345549      -0.52043761      -0.65384070      -0.20779447       0.21624855      -1.11165494      -0.20309962
C        2.84658188       9.65946942       3.52558066       0.40199917       0.30460628       0.95018459      -0.27927524      -0.06446891       0.33117230
C       14.63003401       7.20377168       1.32497780       0.17080652      -0.19255601       2.57677291      -0.15864628       0.77869189      -0.42528963
Pb       0.13006841       4.57250112       1.41689220       0.06152820       0.00866275      -0.12793760       0.97154982       1.59300530      -0.70911589
Pb      17.29873631      12.63770619       4.08073050      -0.22147701       0.14044437       0.24664585      -1.35391906      -2.38395932       2.15557520
Pb       7.60932042      10.39516191       1.33160219      -0.21336267       0.26505351      -0.18620141      -1.70505857       0.42878020       1.13440472
Pb       9.41557522       6.76345648       3.80562621       0.22967219      -0.05115583       0.22895598      -2.65438082      -1.10277541       0.65108388
N        5.95148611       3.27069346       3.81745459      -0.60199207       0.61291627       0.04878316       0.55414068       0.47763037      -0.24476134
N       11.17562110      14.05258961       1.64819829       0.72259133       0.83490686      -0.06342486       0.01226256       0.64793612      -0.14543528
N        1.73632591       8.67833493       3.63268445      -2.84798341      -0.53452833       1.32777900      -0.07514310      -0.49884370       0.31466220
N       15.49703273       8.41924514       1.67220755      -1.54931866      -0.24028624       0.62732872      -0.13425861       0.21757252      -0.38550609
I       17.98532125       6.96934157       9.00616133      -0.10012867      -0.05721264      -0.12357996       0.19776331       0.20022528       1.16861572
I       18.47933040      10.67429836       6.38903394       0.15447355       0.08353064      -0.04865314       0.17815139      -0.11061610      -0.36967599
I        8.96244536      12.08337390       8.58711909       0.02996457       0.09390698       0.05283050       2.56399147       0.23499515      -0.02262861
I        8.14453585       4.83844431       6.23750271       0.39047292       0.36459428       0.07022992       0.46383683       0.58125805      -0.99794269
I       16.17998380       3.50392492       6.50504040       0.41454664      -0.28969477       0.02731756       1.41733502      -0.20547742       0.09687058
I        1.18660503      13.92867549       8.71564129      -0.20534737       0.07459024      -0.01431284       0.02425385       0.34948793      -0.88097796
I       10.43321712       8.70379953       6.25444095       0.12104363      -0.03891658       0.01334559       0.24020332      -0.26610078      -0.25543886
I        6.44709824       8.49176711       8.55259534       0.17545613      -0.07370812       0.08880518       1.75413357      -0.53957921      -3.37562418
I        2.65123510       6.74214426       6.21045344       0.15481143      -0.29822011       0.07629977      -0.70763563       2.03254259      -1.84701650
I       14.70748997      10.92055368       8.98041546      -0.28285589      -0.05081763       0.03621723       0.01302248      -2.99531377       1.05720243
I        5.04524981      12.09072223       6.31907717      -0.20285382       0.04676707       0.00695900       0.12393793       1.35960312       2.30993917
I       12.12342683       5.07438769       8.89866263      -0.07282767       0.38354882      -0.04544227      -0.11088971      -0.22199304      -2.01172584
H        4.17692165       3.76094285       8.38417417       0.48545998      -0.53803375       0.26908752       0.00058876      -0.06223866       0.10282668
H       12.03314189      12.15184416       7.26248284       0.08092837       0.59814303      -1.29836237      -0.02949195       0.00539737       0.21127665
H        2.36691297      10.96991116       8.13510261      -0.36081139      -0.68570774       0.80402347       0.07215545       0.08396167      -0.07748746
H       14.91310706       6.98993213       5.29745626       0.05469428       0.34484242       0.04890966       0.07097703      -0.04960001      -0.14335571
H        5.16082117       4.71005867       9.59171775      -0.16695990       0.82778337       0.28925141       0.08607172      -0.08911465      -0.02430577
H       12.17831165      12.39079506       5.38488852      -0.19087627       0.20237900       0.59229460       0.01008976      -0.18679862      -0.08980163
H        2.82785249      10.34041316      10.00822759      -0.02856698       0.31107582      -0.36627649       0.03342545      -0.09205526       0.23075306
H       14.45346480       6.77429725       7.06834099       0.20531163       0.68604618      -0.34755491      -0.11733506       0.22213429       0.11835419
H        5.35660584       4.94648112       7.80431193       0.45848063       0.59893031      -0.56181624       0.01687657       0.12749920      -0.08288944
H       13.23196491      13.34311578       6.54588562      -0.80623080      -0.31013615      -0.15101801       0.10810171      -0.11194566       0.06467833
H        3.65738740       9.53759079       8.43104220       0.79232236       0.20062648       0.11912995       0.07157540       0.22810404       0.12168604
H       13.59961158       8.07813593       5.97765248       0.78413570      -0.27293944      -0.01354597       0.25031400       0.14296365      -0.10912201
H        7.28461014       3.66513383       8.66895900       0.44647749       0.30221026       0.25538741       0.03939479      -0.21059413       0.08664312
H       11.55864835      14.65218117       7.30166211      -0.18621280       0.14038622       0.14245405       0.12676627       0.06109976       0.01197972
H        1.92887266       8.10191360       9.45249470       0.15959795       0.51400936       0.05141878      -0.14274440       0.05942560      -0.09786926
H       15.50083858       9.09241834       7.38733711      -0.19406972       0.93445560       1.42261770      -0.10966858       0.08815227      -0.11720794
H        6.28548463       2.56243640       7.86475918       0.03207731      -0.08842528       0.10304990      -0.06480178      -0.00273182       0.06957698
H       10.25419296      13.56250288       6.86554071       0.04955626       0.36544721       0.09788636       0.07796977      -0.09383438       0.06179611
H        1.84073838       8.40061298       7.86289987      -0.10721891      -0.61493663      -1.15816443      -0.04466185       0.18256061       0.04337442
H       15.61282341       9.42928025       5.78923979      -0.27001569       0.08119981      -0.41085283       0.01500842       0.13277538       0.12665207
H        6.11707170       2.72026371       9.54277751       0.67109708      -0.42954947      -0.28273423       0.08167381       0.03937920      -0.00852756
H       11.03676043      14.57793456       5.64138426       0.43937127       0.09115156      -0.26169998       0.11339053       0.08889052       0.13113042
H        0.73016203       9.14723401       8.87047055      -0.41968971       0.17918069      -0.11989482       0.00368522       0.00088297      -0.02490834
H       16.63002413       8.30553423       6.48090001       0.60776043      -0.34515175       0.26497492       0.18490957      -0.34082053      -0.03443958
C        5.18179814       4.23395850       8.59435435       0.00409492      -0.13149632       0.08220825      -0.52740898       0.34750456       0.09390101
C       12.19835101      12.88958046       6.40134599       1.55869398      -0.65309438       0.73856686       0.12588872       0.69448050      -0.07787346
C        2.68681416      10.05512842       8.82158571      -0.55244951      -0.61986521       0.13262509       0.52406236      -0.23478657      -0.09787903
C       14.61333526       7.55955426       6.19256641      -0.86719866      -0.26336148       0.27188031       0.62391359      -0.54586184      -0.64291066
Pb       0.15378948       4.80227656       6.31344315      -0.11819052      -0.20087904       0.07377255      -0.79851467      -0.71668266       1.13309934
Pb      17.28338968      12.53108634       8.90245718       0.00875893       0.29555751      -0.28389303      -0.09304196       0.52916884      -1.06122269
Pb       7.67091124      10.44978323       6.05979253      -0.06973796      -0.02589750       0.25913054      -0.43269752       0.32100068       0.90796057
Pb       9.38444738       6.92331580       8.83390416       0.17526497      -0.29276070      -0.34411914       3.67919947       0.45399318       1.58208972
N        6.34674554       3.24910951       8.66307965      -2.05128838      -0.64985022      -0.13443987       0.43679269       0.17590814      -0.38090862
N       11.21628243      13.98522227       6.53920573      -1.10822819      -0.48140091      -0.01337164      -0.50961847      -0.46691073      -0.85373584
N        1.71447988       8.88819352       8.74493324       0.32799657       0.77844054       0.61506602       0.38655796       0.27393117      -0.87789323
N       15.66839978       8.64252648       6.50806323      -0.30462604      -1.35353462      -1.18654531       0.50242241      -0.46606172      -0.32310019
I       17.71566830       6.67859785      13.72532867       0.05913347       0.13794026      -0.01126366       0.50691145       0.14636067       0.53973930
I       18.25229082      10.78001588      11.46408309       0.28096328      -0.18492709      -0.06315801       0.14852855       4.14505669      -0.59981870
I        8.67264360      12.24759168      13.48143571       0.14917529       0.10975836       0.03091385      -0.44617042      -0.71345012       0.00904960
I        8.47530084       4.81344770      11.14383357      -0.29120916       0.01931192      -0.08334611       0.52119830       0.56487021      -0.87002563
I       16.23952482       3.14567196      11.19947618      -0.03631791       0.15686701       0.05548922      -0.46581493       1.33936479      -0.13674297
I        1.12732867      13.99337436      13.65247017      -0.19009505      -0.08939625       0.11934226       2.08477801      -0.00006017       0.92219769
I       10.57537464       8.85454064      11.15324857      -0.23708862      -0.20538044       0.03946479       2.37033982       0.35825081      -1.43584257
I        6.41175119       8.53688890      13.34939069       0.04195665      -0.22990037       0.08233883       0.42569068       0.64969428       1.13275502
I        2.64222375       6.26801406      10.90502940       0.06697490       0.05894801       0.12851345       1.89390796      -0.81046825       1.44196713
I       14.54911496      10.80300278      13.76929711       0.11716212       0.14508606       0.04996810      -0.00708100      -1.47935326      -1.74929108
I        4.77543831      12.14973706      11.09422640       0.36236590      -0.05003104      -0.06858403      -0.27021093      -1.24966747      -1.48141853
I       12.13484193       5.26362985      13.82454133      -0.20996281      -0.03518147      -0.09765720      -0.10000338       3.00188455       1.62643214
H        5.40175525       4.95701837      12.34788489       0.22260726       0.37279323      -0.44666273      -0.05204327      -0.14439531      -0.05124744
H       11.52465926      12.36671145      12.56904385       0.09019398      -0.46170523      -0.02652016       0.22844516      -0.12257418      -0.07680506
H        3.71854655       9.06485774      13.23430957       0.44664113      -0.03843604       0.16536818       0.06073025       0.15235632       0.05072132
H       14.72560470       6.45336213      11.93988944      -0.85329056       0.64680332      -1.36613718      -0.02672836      -0.02454624      -0.12183529
H        4.10879727       4.57771259      13.68542610      -0.48695479      -0.59016446      -0.31111516      -0.01980511      -0.02536809       0.09893099
H       11.87729285      12.15432276      10.75665935      -0.07705081      -0.12975518       0.25203066      -0.14434814      -0.02109994      -0.00744166
H        2.71058011      10.22189739      12.35656303      -0.38797069       0.41738495      -0.52965447       0.04507111       0.07944417      -0.15832705
H       13.46086163       7.47124166      10.94340661       0.89458134      -0.29891686       0.19324266       0.03352341      -0.03860046       0.05164852
H        5.62065129       5.43818769      14.14435106       0.43569542      -0.37741485      -0.40207880      -0.04233127       0.17734795       0.12626180
H       13.02539087      13.00330038      11.78993544       0.28375213       0.74496351      -0.00128039      -0.19643375      -0.22223575       0.03484432
H        2.71132402      10.28882075      14.15353603       0.11964462       0.23928123      -0.18046104       0.10888900       0.02291962       0.05110960
H       14.93878284       6.72533349      10.15087268       0.09208681      -0.42500100      -0.83663650      -0.13668112      -0.10825471      -0.02215630
H        5.59567081       2.73456609      14.45091129      -0.08962843      -0.01635397      -0.30092527      -0.20356068       0.06843297       0.10376283
H       11.28522239      14.50910163      10.44499935      -0.23051772      -0.33952000       0.28171022      -0.12666122       0.04321224       0.16206766
H        1.52999867       8.14011973      14.37911485       0.26635100       0.57259242      -0.89360593      -0.02643363      -0.05522626       0.08772953
H       15.27842003       8.77558324      12.41009623      -0.25413190       0.07644492      -0.23205868      -0.07475201       0.05203691      -0.08720027
H        6.90688649       3.27284833      13.51089084       0.42804513       0.25881522       0.07975064       0.18321856      -0.03436158      -0.15146511
H       11.29697345      14.80453252      12.10418291      -0.41994344      -0.42659332      -0.28139300       0.05676047       0.13149275      -0.01654085
H        1.82014972       7.84820424      12.70541034       0.04216487      -0.46724183      -0.72362855      -0.03541314      -0.17689113      -0.06776120
H       15.19618167       9.15959366      10.76011131      -0.15494613       1.11331314      -1.10555871       0.01247417      -0.11607184       0.08745370
H        5.56778063       2.63577771      12.74019732      -0.08837100      -0.41434962       0.12933201      -0.04630224      -0.04719210      -0.08247711
H       10.08829966      13.73638383      11.43244642       0.26177363       0.32220908       0.07777291      -0.14128624       0.03222345       0.00453174
H        0.64913895       9.10992023      13.18540733       1.72954560      -0.35128061      -0.22138264       0.05843658       0.10503265       0.08987148
H       16.36975080       8.17878157      11.28640525       1.74675388      -0.66558490       0.03817743       0.10559369       0.01169317       0.05275733
C        5.22495461       4.63638757      13.40872253       0.12142047       0.17718603       1.19913848       0.24064152      -0.50320681       0.01259706
C       11.95087261      12.82151368      11.63772214      -0.52043761      -0.65384070      -0.20779447       0.21624855      -1.11165494      -0.20309962
C        2.75653349       9.62715583      13.25984731       0.40199917       0.30460628       0.95018459      -0.27927524      -0.06446891       0.33117230
C       14.53998562       7.17145809      11.05924445       0.17080652      -0.19255601       2.57677291      -0.15864628       0.77869189      -0.42528963
Pb       0.04002002       4.54018753      11.15115885       0.06152820       0.00866275      -0.12793760       0.97154982       1.59300530      -0.70911589
Pb      17.20868792      12.60539260      13.81499715      -0.22147701       0.14044437       0.24664585      -1.35391906      -2.38395932       2.15557520
Pb       7.51927203      10.36284832      11.06586884      -0.21336267       0.26505351      -0.18620141      -1.70505857       0.42878020       1.13440472
Pb       9.32552683       6.73114289      13.53989286       0.22967219      -0.05115583       0.22895598      -2.65438082      -1.10277541       0.65108388
N        5.86143772       3.23837987      13.55172124      -0.60199207       0.61291627       0.04878316       0.55414068       0.47763037      -0.24476134
N       11.08557271      14.02027602      11.38246494       0.72259133       0.83490686      -0.06342486       0.01226256       0.64793612      -0.14543528
N        1.64627752       8.64602134      13.36695110      -2.84798341      -0.53452833       1.32777900      -0.07514310      -0.49884370       0.31466220
N       15.40698434       8.38693155      11.40647420      -1.54931866      -0.24028624       0.62732872      -0.13425861       0.21757252      -0.38550609
I       17.89527286       6.93702798      18.74042798      -0.10012867      -0.05721264      -0.12357996       0.19776331       0.20022528       1.16861572
I       18.38928201      10.64198477      16.12330059       0.15447355       0.08353064      -0.04865314       0.17815139      -0.11061610      -0.36967599
I        8.87239697      12.05106031      18.32138574       0.02996457       0.09390698       0.05283050       2.56399147       0.23499515      -0.02262861
I        8.05448746       4.80613072      15.97176936       0.39047292       0.36459428       0.07022992       0.46383683       0.58125805      -0.99794269
I       16.08993541       3.47161133      16.23930705       0.41454664      -0.28969477       0.02731756       1.41733502      -0.20547742       0.09687058
I        1.09655664      13.89636190      18.44990794      -0.20534737       0.07459024      -0.01431284       0.02425385       0.34948793      -0.88097796
I       10.34316873       8.67148594      15.98870760       0.12104363      -0.03891658       0.01334559       0.24020332      -0.26610078      -0.25543886
I        6.35704985       8.45945352      18.28686199       0.17545613      -0.07370812       0.08880518       1.75413357      -0.53957921      -3.37562418
I        2.56118671       6.70983067      15.94472009       0.15481143      -0.29822011       0.07629977      -0.70763563       2.03254259      -1.84701650
I       14.61744158      10.88824009      18.71468211      -0.28285589      -0.05081763       0.03621723       0.01302248      -2.99531377       1.05720243
I        4.95520142      12.05840864      16.05334382      -0.20285382       0.04676707       0.00695900       0.12393793       1.35960312       2.30993917
I       12.03337844       5.04207410      18.63292928      -0.07282767       0.38354882      -0.04544227      -0.11088971      -0.22199304      -2.01172584
H        4.08687326       3.72862926      18.11844082       0.48545998      -0.53803375       0.26908752       0.00058876      -0.06223866       0.10282668
H       11.94309350      12.11953057      16.99674949       0.08092837       0.59814303      -1.29836237      -0.02949195       0.00539737       0.21127665
H        2.27686458      10.93759757      17.86936926      -0.36081139      -0.68570774       0.80402347       0.07215545       0.08396167      -0.07748746
H       14.82305867       6.95761854      15.03172291       0.05469428       0.34484242       0.04890966       0.07097703      -0.04960001      -0.14335571
H        5.07077278       4.67774508      19.32598440      -0.16695990       0.82778337       0.28925141       0.08607172      -0.08911465      -0.02430577
H       12.08826326      12.35848147      15.11915517      -0.19087627       0.20237900       0.59229460       0.01008976      -0.18679862      -0.08980163
H        2.91790088      10.37272675       0.27396094      -0.02856698       0.31107582      -0.36627649       0.03342545      -0.09205526       0.23075306
H       14.36341641       6.74198366      16.80260764       0.20531163       0.68604618      -0.34755491      -0.11733506       0.22213429       0.11835419
H        5.26655745       4.91416753      17.53857858       0.45848063       0.59893031      -0.56181624       0.01687657       0.12749920      -0.08288944
H       13.14191652      13.31080219      16.28015227      -0.80623080      -0.31013615      -0.15101801       0.10810171      -0.11194566       0.06467833
H        3.56733901       9.50527720      18.16530885       0.79232236       0.20062648       0.11912995       0.07157540       0.22810404       0.12168604
H       13.50956319       8.04582234      15.71191913       0.78413570      -0.27293944      -0.01354597       0.25031400       0.14296365      -0.10912201
H        7.19456175       3.63282024      18.40322565       0.44647749       0.30221026       0.25538741       0.03939479      -0.21059413       0.08664312
H       11.46859996      14.61986758      17.03592876      -0.18621280       0.14038622       0.14245405       0.12676627       0.06109976       0.01197972
H        1.83882427       8.06960001      19.18676135       0.15959795       0.51400936       0.05141878      -0.14274440       0.05942560      -0.09786926
H       15.41079019       9.06010475      17.12160376      -0.19406972       0.93445560       1.42261770      -0.10966858       0.08815227      -0.11720794
H        6.19543624       2.53012281      17.59902583       0.03207731      -0.08842528       0.10304990      -0.06480178      -0.00273182       0.06957698
H       10.16414457      13.53018929      16.59980736       0.04955626       0.36544721       0.09788636       0.07796977      -0.09383438       0.06179611
H        1.75068999       8.36829939      17.59716652      -0.10721891      -0.61493663      -1.15816443      -0.04466185       0.18256061       0.04337442
H       15.52277502       9.39696666      15.52350644      -0.27001569       0.08119981      -0.41085283       0.01500842       0.13277538       0.12665207
H        6.02702331       2.68795012      19.27704416       0.67109708      -0.42954947      -0.28273423       0.08167381       0.03937920      -0.00852756
H       10.94671204      14.54562097      15.37565091       0.43937127       0.09115156      -0.26169998       0.11339053       0.08889052       0.13113042
H        0.64011364       9.11492042      18.60473720      -0.41968971       0.17918069      -0.11989482       0.00368522       0.00088297      -0.02490834
H       16.53997574       8.27322064      16.21516666       0.60776043      -0.34515175       0.26497492       0.18490957      -0.34082053      -0.03443958
C        5.09174975       4.20164491      18.32862100       0.00409492      -0.13149632       0.08220825      -0.52740898       0.34750456       0.09390101
C       12.10830262      12.85726687      16.13561264       1.55869398      -0.65309438       0.73856686       0.12588872       0.69448050      -0.07787346
C        2.59676577      10.02281483      18.55585236      -0.55244951      -0.61986521       0.13262509       0.52406236      -0.23478657      -0.09787903
C       14.52328687       7.52724067      15.92683306      -0.86719866      -0.26336148       0.27188031       0.62391359      -0.54586184      -0.64291066
Pb       0.06374109       4.76996297      16.04770980      -0.11819052      -0.20087904       0.07377255      -0.79851467      -0.71668266       1.13309934
Pb      17.19334129      12.49877275      18.63672383       0.00875893       0.29555751      -0.28389303      -0.09304196       0.52916884      -1.06122269
Pb       7.58086285      10.41746964      15.79405918      -0.06973796      -0.02589750       0.25913054      -0.43269752       0.32100068       0.90796057
Pb       9.29439899       6.89100221      18.56817081       0.17526497      -0.29276070      -0.34411914       3.67919947       0.45399318       1.58208972
N        6.25669715       3.21679592      18.39734630      -2.05128838      -0.64985022      -0.13443987       0.43679269       0.17590814      -0.38090862
N       11.12623404      13.95290868      16.27347238      -1.10822819      -0.48140091      -0.01337164      -0.50961847      -0.46691073      -0.85373584