768
Lattice="38.16606883306081 0.7708101007676014 0.3666927628512125 -0.3296249581406084 22.360322942442707 0.08526197331993467 -0.1800967783537251 -0.06462717078727989 19.468533293292147" Properties=species:S:1:pos:R:3:forces:R:3:momenta:R:3 energy=-3315.493866916619 stress="0.0 0.0 0.0 0.0 0.0 0.0 0.0 0.0 0.0" pbc="T T T"
I       17.15687819       6.42050625       4.42392837       0.00965418       0.03747307       0.11272064      -1.73095169      -2.18851130      -0.56599421
I       18.05442411      10.81457492       2.20149759      -0.34271893      -0.03962629      -0.33066675       0.72903364      -0.79946106       2.03510134
I        8.25403860      12.33924065       3.96577736      -0.31430432      -0.21351696       0.16173970      -0.51956491      -0.47994263      -3.09155289
I        7.68433241       4.82716739       1.35215717       0.01911170      -0.06126696       0.26187885       1.38249733      -0.22237254       1.54230769
I       15.21289395       2.97713759       2.23234150       0.62177610      -0.16317713      -0.07103978      -4.54770887      -2.15330120       4.09895845
I        0.39343615      13.90520820       4.47520716       0.07893590       0.12583497      -0.58634887      -3.06839794      -2.12853992       0.61813455
I        9.67219816       8.56510862       1.74395372       0.19867626       0.32497260      -0.05374477       3.67460875       5.52787906       1.19843824
I        6.02593428       8.47538198       4.39020889      -0.24442145      -0.11998526      -0.09065547      -3.31870162       3.10741414       1.11646561
I        2.12982973       6.36545036       2.02511626       0.00714868      -0.01123362      -0.27637115      -0.38338059       0.51680887      -0.06706347
I       13.78414381      10.80308601       4.28436742      -0.06571378       0.01207923       0.38111476      -0.52792593       1.83944582       3.21978673
I        3.90041413      11.71595606       1.89367796      -0.00946018       0.06892249       0.00590131      -0.99172945      -0.18409104       0.57552234
I       11.40594473       5.04259059       3.89156333       0.37416068      -0.10136621       0.16599933       1.25088418       3.23178966      -2.39739264
H        5.63485516       5.16284298       3.27469871       0.14822124       0.20811237      -0.27554409      -0.13706157       0.07021716      -0.21045610
H       11.26613875      11.62664690       2.60100871      -0.48541239       0.08063698      -0.08562782      -0.04913487       0.22794177       0.18179338
H        2.80858473       9.36348496       3.41281603      -0.70136214       0.84941836      -0.18047556      -0.19431989       0.01894540       0.06689376
H       13.40728525       6.82763692       2.45648674       0.16219224       0.12442007       0.11639285      -0.04305728      -0.03138111      -0.13973563
H        3.91457750       3.85567690       3.02246174      -2.17457230       0.01915052       0.19922763       0.12426657      -0.10161097       0.09129228
H       11.44680841      11.66742679       0.79037922      -0.49099349       0.41609699       0.28248354      -0.31266454      -0.12793337       0.01076791
H        1.19406652      10.53308576       3.16199334      -0.02714568      -0.14143830       0.65386483      -0.46706646       0.15768201       0.05585055
H       12.75104338       7.86227721       0.93503863       0.52979846       0.39481098      -0.22138778       0.08508516      -0.27909071       0.22592455
H        4.56280887       4.41155849       5.05197830      -0.01945699       0.87128740       0.83104018      -0.10465394      -0.08931348      -0.00138103
H       12.46051613      12.69465579       1.85568121      -1.31358256       0.13904289      -0.02982159       0.15302511       0.11954924       0.01287797
H        2.08742127      10.28259569       5.06130664      -0.22951830       0.20951262      -0.35304094      -0.02784126      -0.08287488      -0.20202933
H       14.56014634       6.98010442       0.71153721      -0.36529473       0.37696683       0.37452107       0.07353821       0.06756407       0.02953128
H        5.15675578       2.27240287       4.62966209       0.46933377       0.46869490      -0.43043516      -0.08790189      -0.29141721      -0.36623482
H       10.62686552      14.13523488       0.95481129       0.38294426      -0.40314183       0.58891956       0.26763279      -0.01132529       0.03080616
H        1.37854443       7.87178487       4.87451435      -0.19312171       0.89171344      -0.24920457      -0.01603935      -0.23198332       0.13710453
H       14.27385444       9.22134961       2.89761932       0.25694484      -0.20716960       0.04977674       0.20316080      -0.03500365       0.16507124
H        6.74025215       3.05012965       4.23073462      -0.69449235      -0.21600741      -0.14525055       0.08089948       0.13093468      -0.16915687
H       10.18158609      13.96799293       2.63261937       0.82671503      -0.34848323      -0.19735144      -0.09143879      -0.13502683       0.05176749
H        0.61439904       8.04551450       3.18269313       0.22190813       1.50702152       1.56531727      -0.22959996      -0.06027164      -0.00684253
H       15.35778563       9.34964305       1.23420776      -0.80032819      -0.71465347       0.37792929       0.15754222      -0.18196240       0.17819970
H        5.58157929       2.38981930       3.00604844       0.56586776       0.32018006      -0.20685761       0.34775501       0.01501073      -0.09019258
H        9.43069862      13.08189411       1.39575467      -1.05853257      -0.93754790      -0.04222019       0.08534861       0.32792044       0.07131675
H       -0.04780450       9.00575057       4.63278465      -2.07309194      -0.05047960       0.41409358       0.15928604       0.13712611      -0.06941190
H       15.71522038       8.05395684       2.64717889       0.92967798       0.32036172       0.61741998      -0.17161499      -0.06153702       0.01147341
C        4.86332492       4.25069638       3.80755288       2.30069699      -1.82218831      -0.61860994       0.13755184       0.58215793      -1.62569604
C       11.39997457      12.28779206       1.73481208       1.80610230       0.27017537       0.13362707       0.17470876      -1.14096948       0.02696863
C        1.77253845       9.84793586       3.92693325       1.85975225      -1.72670822       0.03121536       1.14930743      -1.03611366       0.92644221
C       13.80758886       7.55455691       1.50723712      -0.98866244      -1.47808617      -0.48668595       1.14178822       0.02075698       0.49480144
Pb      37.59037929       5.58349968       2.16845107       0.12616786      -0.32622995       0.29131185      -1.82547918       3.42625215       5.39639324
Pb      16.41031245      12.45333882       4.25807649       0.39732010       0.30632120       0.14076400      -5.45438608      -1.59764408      -2.64400352
Pb       6.73292237      10.41971154       1.91289704       0.19110885      -0.18051622      -0.41069137       0.51450488      -3.57954400       0.49282853
Pb       8.83521056       6.62821359       4.01956348      -0.02735802       0.11892435       0.25298153      -0.49260497       1.16361212      -5.45858222
N        5.68970963       2.94615192       3.89624813      -0.79800457       0.00067516       1.03073374       0.30123298       1.59897197       0.26744481
N       10.38540448      13.38660634       1.69695053       0.40984564       1.17693515      -0.92795813       1.06055790       0.00044786       0.02347255
N        0.87455823       8.64804050       4.19869637       1.32865866      -1.63541850      -1.43407707       0.35271952      -0.04573865       0.09999547
N       14.81049457       8.60760972       2.13676546       0.42936481       0.95442910      -1.16030395      -0.01146866      -0.31094540       0.64619987
I       17.03858906       6.65858487       9.07147935       0.10690165       0.14075375       0.33285471      -0.41309606       0.20676346      -0.52174470
I       17.92911744      10.97117401       6.81146296      -0.23011483      -0.32503770       0.02970042       0.65362967      -1.86733194      -1.35383160
I        8.45903734      12.35819705       9.05718265      -0.49550983      -0.17739958       0.12449004      -0.41348096       1.20655206       1.80561592
I        7.79135863       4.70456280       6.48552917      -0.28854442      -0.09452630      -0.20811340       1.20003221      -3.00257523       2.74938181
I       16.05082366       3.16142719       6.71678519      -0.64907123      -0.09403366       0.21553809      -0.38084596      -1.08947285      -2.33267927
I        0.25674968      13.77814733       9.18241461      -0.16516225       0.04317722      -0.12555787      -1.49022957       0.38678497      -1.81523038
I       10.10961232       8.57616963       6.58104805      -0.39157311      -0.39996387      -0.05674552      -1.94516578       1.09077215      -0.53127119
I        5.85259103       8.57141255       8.93361805       0.03856613      -0.02880654      -0.04836990       0.65566599      -0.13637968       1.17981858
I        2.09958602       6.34088574       6.76019067      -0.05359924      -0.16599384      -0.42250373      -0.59258441      -3.43212119      -0.71089331
I       13.65031934      10.92258897       8.70537674       0.11067246      -0.25061568       0.15504321       0.47832068       0.48000669       1.66668757
I        4.35560175      11.67019615       7.24439115      -0.04321353       0.33310727      -0.14301780      -0.82550590       0.00410078      -1.26903997
I       11.29312311       5.05706840       9.41849616       0.19072256       0.05790215      -0.04858582      -2.88533247      -2.44180339      -0.24745270
H        3.66650114       3.65741310       8.20392361      -1.39842954      -0.68714598      -0.19144624      -0.30268344      -0.07228448      -0.08378523
H       11.19942119      11.83707580       7.35023092       0.46224774       1.21288078      -1.01694479       0.27576561      -0.30364574      -0.04713492
H        0.86906548      11.03830690       8.78681397       0.67718562      -0.50210584       1.27453223      -0.29143763       0.22260831      -0.17172602
H       14.50853244       6.27522005       5.86805343      -0.15170236      -0.83327612      -1.36486489       0.15092254       0.38253757      -0.03484498
H        4.51809589       4.65123161       9.47732004       0.05964957      -1.32390639      -1.54329780       0.07169584       0.14386029      -0.12452712
H       10.80469478      12.21600414       5.58971674      -0.44321064       0.05253990      -0.19832533      -0.15928156      -0.08495923       0.07275686
H        1.57678909      10.19137187      10.65757532      -0.09304374      -0.29282938      -0.75603744       0.02816802      -0.10274835       0.01581105
H       14.27382348       6.44123186       7.64520722      -0.29483030       0.02684900      -0.67515735       0.37431756       0.11279448      -0.27602649
H        4.96237930       4.74708546       7.67975820       0.53406009      -0.00906885      -0.59645097       0.01454307      -0.06587842      -0.22386488
H       12.20468482      13.04500827       6.24745792      -1.57703887       0.58671303       0.44355866      -0.22664290       0.02344894      -0.02146303
H        2.79663202      10.14923242       8.88205573       1.32391353      -0.17080009      -0.17803879       0.48175947       0.05968743       0.03383864
H       13.06213579       7.21479463       6.58155559      -0.94832061      -0.00283467      -0.50090487       0.14930986      -0.32714071       0.04544736
H        6.57584811       3.12219249       9.26709560       1.06355343       0.47048528      -0.28293695       0.17298682       0.05820770      -0.26668624
H       10.66005629      14.50169068       7.53055488      -0.33585736      -0.00196399       1.57441091      -0.30064153      -0.30549940      -0.09509904
H        1.37698720       7.92234937       9.84636408       0.92796868      -0.25374902      -0.73941786       0.00376465      -0.12334428       0.06791142
H       14.49117677       8.80925978       7.44727083       0.27471254       0.21480175       0.62167517      -0.00701757       0.00324008       0.21495394
H        5.87685923       2.30756821       7.64230121      -0.04812932       1.18125998       0.93209902       0.06648989       0.04706677       0.13624489
H        9.03279487      13.26276218       7.64443358       1.27844679       0.53185019       0.04571495      -0.16295890       0.08372553       0.20145002
H        1.63867745       8.21697553       8.11716935      -0.05830651      -0.70470630      -0.36826338      -0.15664522       0.20982406       0.03197913
H       14.77313802       8.78887483       5.90985259      -0.21524496       0.43643349      -1.31488842       0.24984497       0.18634737       0.19589797
H        5.02714714       2.07957683       9.30687465       0.16941934       0.89104942      -0.79888852       0.00318370      -0.25432500      -0.12058791
H        9.61144889      14.33869413       6.02799002      -0.08585702      -0.45934715      -0.86505182      -0.15415190       0.15078821      -0.01451309
H        0.15270750       8.52796930       9.10762809       0.05350846       0.02794688      -0.84472237       0.07131123      -0.11461909       0.11555019
H       15.96040416       8.12067494       6.84482315      -0.29278920      -0.43246386       0.12712908       0.40182178      -0.08124331      -0.08825627
C        4.64249707       4.03840899       8.44600945       1.32821478       0.81902201       2.25219162       0.23609152       0.72858245      -0.21741998
C       11.11533707      12.71878859       6.52137250       1.13334822      -2.25552348       0.66781152       0.16543845      -1.02667107      -1.37043190
C        1.68124552      10.10951333       9.37148206      -1.71150735       0.64258398      -0.58645574       0.42331076      -0.84859872       1.71922315
C       14.07637679       6.89357235       6.62651541       2.28733070       1.32860712       2.61620634       0.20111867       0.51148020      -0.08072926
Pb      37.45164980       5.32333432       7.11021854       0.39504422       0.40260870      -0.21793150       0.47250259       1.52190961       3.17879036
Pb      16.32113478      12.69775221       9.15888029       0.22623139      -0.20805659       0.02807348       0.17281824      -2.44212150      -1.76316700
Pb       7.14119944      10.42873281       6.58529178       0.25690679      -0.07226013       0.23557206       1.77448390       1.92052891       1.62877996
Pb       8.55620382       6.56272220       8.96716122       0.16569167       0.39184566      -0.13077558       0.61999555      -1.18961993      -0.61271364
N        5.61417828       2.87330417       8.63889529      -1.91797955      -1.53893958       0.70511739      -1.17665765      -0.12006700       0.13748870
N       10.01823954      13.71495958       6.95413664      -0.14203049       0.60537716      -1.00412245       0.59689624       0.39000507      -0.82245815
N        1.23189136       8.58851300       9.04223292      -1.17969630       1.48554222       2.37589622      -0.49959071       0.59437039       0.23169638
N       14.91464781       8.18859600       6.69643115      -0.75605347      -0.38490023       0.39489717      -1.37640189      -0.39493817      -0.36994960
I       16.96535533       7.16933598      14.24485839       0.05578296      -0.23707788      -0.12875964       1.21739652       5.50932894      -0.59430952
I       17.41868683      10.78079429      11.42825689       0.39500108      -0.34331305       0.01175371      -2.62718008      -2.84351900      -1.40624216
I        7.95286795      12.28802959      13.71739645       0.29855318       0.06982822       0.13177909       0.35946236      -1.37217032      -2.41487201
I        7.38667912       4.67395404      11.44660344       0.25910632       0.12061166       0.14990205      -2.18154088       0.20148735      -4.67783931
I       15.51486254       3.33018977      11.86733324      -0.00278037       0.03097910      -0.20619820      -3.19205896      -0.76776447      -1.77258676
I        0.00387897      13.67551845      13.97973876      -0.27296348       0.32400945      -0.18525750       1.43994229       0.03089925       1.89653604
I        9.64975617       8.67148289      11.05559607      -0.00135255       0.00402259       0.26453398      -1.39159809      -0.78718289       1.78493273
I        6.13677514       8.39625086      13.98916168      -0.18239556      -0.19214346      -0.36569361       1.75076470      -1.63536037      -0.94187291
I        1.72695107       5.90686840      11.26460915       0.71218454      -0.04077582      -0.04346223      -1.13600176      -0.96656183       0.01712181
I       13.88716262      11.02992840      13.83254166       0.04051938      -0.13507625      -0.06622256      -1.53000674       0.52080515       1.34681908
I        4.31225781      12.45254472      11.34259768       0.13882610      -0.42376746      -0.05695321       3.22531709      -3.40761078      -0.46527892
I       12.02940053       5.24780091      14.05708516      -0.56690769       0.22038727      -0.16395121       1.65710752       3.37530173       1.49597518
H        4.18018181       4.60602895      13.15965486       0.35437651       0.99223211      -1.15809359       0.16897709      -0.15217484       0.02800758
H       10.62757870      11.73340270      12.25491689      -0.17368987      -0.29256396       0.77603327      -0.08671228      -0.40966008       0.04243600
H        2.81783476       9.36080010      11.96496582      -0.40076159       0.49874814       0.66317208      -0.17137483      -0.05255773      -0.09923549
H       13.19227625       7.07301067      12.11975058       0.05798068      -0.07701108      -0.37911717      -0.07624822       0.04753982       0.27415843
H        3.18449030       3.41855621      14.02726568       0.18696447      -0.45106428      -0.19930568      -0.09616375       0.27820627       0.10694406
H       11.09682040      11.93627736      10.50845895      -0.13515033       0.15151877       0.15362497       0.01755529       0.09609141      -0.13609913
H        0.64177381       9.99903268      12.08726809      -0.20077682      -0.29854911       0.69519239      -0.11356715      -0.11101481       0.11811308
H       12.51943885       8.36620812      10.75418798       0.67862037      -0.59741719      -0.15019164      -0.00733587      -0.02630086      -0.16799257
H        4.37519572       4.26311806      14.90804906       0.53192829       0.85285937       1.06083078       0.31870788      -0.00158297       0.24314312
H       12.33693162      12.46657532      11.81425617      -1.31112442      -0.05830051       0.03441855      -0.11451237       0.05768684       0.05219958
H        1.95423818       9.95155629      13.91725880       0.63983339       1.25396405       0.72179753      -0.20009519      -0.16979752      -0.22994713
H       13.80072861       6.87197438      10.21131946      -0.96208736       1.48944169       2.78747090       0.09152853      -0.04941612       0.07679396
H        5.14764259       2.01732375      14.29219531      -0.44187476      -1.02417547       1.13406903       0.13162888      -0.15855448      -0.03773563
H       10.74792789      14.23354509      10.53666067       0.06983333       0.03531912      -0.35609823      -0.18127446       0.12169875       0.02004281
H        1.76814738       7.65176063      14.54667882      -0.35095764       1.27318367      -1.69215450      -0.02990015       0.14406331       0.16937934
H       14.62779989       9.12527560      12.11923623       0.48208643      -0.02417741      -0.11806311       0.08816102       0.08165289      -0.08478149
H        6.19804482       3.23001854      13.89047043       1.38677618       0.58773968      -0.23851889      -0.27532388       0.03278796       0.19698133
H       10.97972601      14.48879696      12.15076649      -0.32105159      -0.37939376       0.12089789       0.11641366       0.05135535      -0.10849617
H        1.01378276       7.35535644      12.80361355      -0.10418073      -0.06630439       0.43731635       0.19120267       0.07254440      -0.06112806
H       14.74844956       9.33578235      10.50884034      -0.37979986       0.25312699      -0.93236655       0.11076924      -0.21577722       0.30242718
H        5.39779690       2.38206243      12.71194955      -0.96102384      -1.24116463      -2.15454494      -0.19762255      -0.02397310       0.28214912
H        9.42431179      13.75240478      11.58396124       2.39775540       0.42128508       0.09787605      -0.14523285      -0.06420293       0.04817940
H        0.06339277       8.13777351      13.98198111      -0.86860196      -0.01466495       0.28816299       0.02021229       0.22348952      -0.06444444
H       15.62031690       8.03621782      11.20505375       1.32936701      -0.24061372       0.32838210       0.02363601       0.03354349      -0.03872054
C        4.19661768       3.85310365      13.93924057      -0.71673152      -1.52810973      -0.28618354       0.05889670      -0.54422147       0.66921773
C       11.16220550      12.41017133      11.52245409       2.07248699      -0.70961963      -1.01310775      -0.83625117       0.57860852       0.59734941
C        1.68443835       9.47844133      12.86635794       0.83012979      -0.46939379      -0.99440579      -0.07269132       0.57797715       0.96090815
C       13.46646210       7.63509794      11.08490597       0.19743223      -1.12369408      -2.57267582      -1.11057451       0.39687733      -0.38856135
Pb      37.19386114       5.38712812      11.69341508      -0.51336823      -0.18492241       0.14091325       1.13724089      -2.19792817      -1.55380119
Pb      16.64079761      12.60011469      14.02090403       0.07332245      -0.36719207      -0.03773782       3.02126344       2.46387813      -1.53799998
Pb       6.97540474      10.50543963      11.48118172      -0.21288828       0.03687518      -0.41911241       2.05036019      -2.66207067      -3.16346511
Pb       8.83308728       6.53256551      13.78453243       0.79404366       0.42986761      -0.03127410       2.36047587      -1.38608106      -0.66445090
N        5.28375950       2.80277520      13.62973978      -0.30041495       1.81774397       1.95164886      -0.50863852      -0.85141933       1.56149123
N       10.55898545      13.74869535      11.43848977      -2.45592434       0.87122642       0.29435393      -0.32631202       1.25013830      -0.78778136
N        1.09701097       8.09636200      13.61991747       0.40937500      -1.89252955       0.49477478       2.13944478      -0.53404961       0.46872024
N       14.72385019       8.56098016      11.22839090      -1.30910173       0.62088119       1.20459290      -0.46716725      -0.41237579       0.01661239
I       16.89504343       6.64838409      19.36465418       0.04956973      -0.21483341      -0.00344243      -2.31612706       0.48780296      -1.76702605
I       17.67866745      10.44442039      16.45862940       0.04110093       0.23773999       0.09231483       0.61490138      -0.09751671       2.09754959
I        7.78930147      12.21648794      18.95592433      -0.01385834      -0.04139917      -0.07394617       1.31923073       0.83484427       2.00734531
I        7.69509361       5.14420805      15.86786162      -0.36237349      -0.51272430       0.18327398       0.57131958       0.67911166       1.22203555
I       14.96032954       3.21188784      16.79342367       0.31126040       0.33522520      -0.25992867      -0.47006545      -2.39784530       1.05687776
I       -0.06150481      13.97177544      18.74457654       0.43874262      -0.05596924      -0.25777876      -2.01643262       0.23414241       4.09688099
I       10.11585250       8.73542151      16.40218939      -0.30089911      -0.28296015      -0.42992745       1.66220248      -4.82078096      -1.81595031
I        5.94191650       8.29363846      18.55974030      -0.09114983       0.22122207       0.09707410      -2.06417818      -4.35016961      -0.81627263
I        2.32031528       5.78787139      16.20955954      -0.22241909       0.53338293       0.08955880       0.54106490       4.53330177       2.91236354
I       13.93574954      10.69129644      18.63687893       0.10944484       0.05832815       0.38728624       1.99279850      -0.46473163       3.73887571
I        4.33727323      11.58145417      16.28583136      -0.38452968      -0.02622210      -0.07498582      -1.75837558      -4.21203563      -2.16180353
I       11.36343494       4.94888926      18.71336043      -0.01959469      -0.29974714       0.17505783      -1.58551807       5.40969605       0.22119642
H        3.25110995       3.48861997      17.48008998       0.95761502       0.72769129       0.12252411       0.10833035       0.13225771      -0.01596046
H       10.68989474      11.94953839      17.53437077      -0.17933698       0.79138644      -0.16941458       0.20187190      -0.10139220       0.25125023
H        2.00369792      10.11936226      17.83213405       0.11650248      -0.18242372       1.47928693      -0.03705838       0.21052700      -0.08855354
H       13.11266640       7.26581578      15.13642440       0.20319997       0.18518514       0.42513919      -0.08978828       0.00450504       0.17230260
H        3.60918397       4.51489849      19.61282147      -0.10884298      -0.36635540      -0.11575025      -0.13530204      -0.18485610       0.07860449
H       11.09476599      11.93629040      15.77152897       0.00245845       1.00327166       0.62016721      -0.42280878       0.35451823       0.13224637
H        0.60806135      10.49143160      19.66165773       0.15740430       1.13236009       1.05097693       0.14970752      -0.27948084      -0.05731227
H       14.82783962       6.56785050      16.97210456       0.35874528      -0.70838943       0.80230155       0.09173863       0.17154812       0.25670099
H        4.88455939       5.17211659      17.86538306      -0.07644486       0.48514923      -0.80865475      -0.30046386       0.05017338       0.10876500
H       11.96500750      13.09157134      16.93224810       0.57889503       0.37068059      -0.04392730       0.08675633      -0.37157514       0.27837055
H        2.84454725       9.89215943      19.83448355       1.24255990      -0.60704495       0.52048300      -0.03964045       0.00938540      -0.12628349
H       12.94277486       8.12964280      17.65330046      -0.11964353      -0.94856756      -0.15539897       0.00837631       0.28071581       0.00573069
H        6.30268594       3.61908464      19.08968536       2.34878754       1.37383879      -0.23480973       0.09428355      -0.07965434      -0.32797367
H        9.81988669      14.35211364      17.42350518       0.42135406      -0.44705590      -1.27152682      -0.06213948       0.26535219      -0.01992752
H        1.09268856       7.87199185      19.63808935       0.18098865       0.09879272       0.14074506      -0.11186720      -0.15930324       0.01868376
H       15.43915917       9.22651670      17.14844319      -0.87520914      -0.37603234       0.42658386       0.21638947       0.18669509      -0.02956589
H        5.80008287       2.65580281      17.59997496      -0.77889818      -0.49792089      -1.68077337      -0.07666592      -0.00101149       0.06903254
H        8.93584312      13.11098375      16.57136360       1.70747353       1.13462315      -0.52184668       0.13720842      -0.02633633       0.01221091
H        1.84304722       7.77751266      18.00002213       0.11994538       0.41345707       0.03903870       0.27520405       0.04935539      -0.21745843
H       14.33562649       9.25122892      15.46379977      -0.19927432       0.30088022       0.23756065      -0.04382345      -0.00958120       0.06860806
H        5.09057481       2.41812649      19.15808379      -0.49500294       0.10230815       0.12669936      -0.30413761       0.01819947      -0.01948359
H        9.90812231      14.36136704      15.70492048       0.59711419       0.08944807      -0.73727743      -0.03423732       0.18556904      -0.71230893
H        0.09109573       8.47348110      18.21788774       2.90009397      -0.82010726      -0.12487461       0.22059185       0.21182066      -0.23096915
H       15.85905805       8.14874434      15.41026722      -0.17691701       0.46892926       0.06793773       0.06880680      -0.00567555      -0.02307541
C        4.19837008       4.19524013      18.35570886      -0.32852251      -1.42478983       0.36897336       0.10596292      -0.88042592      -0.11556731
C       10.98522771      12.63976409      16.70346435      -0.39995750      -0.50463731      -0.95530646      -0.40560387       0.33311948      -0.44968311
C        1.73498851       9.83346402      19.09810774      -0.87677986       0.76252734      -3.30202524      -0.33347105      -1.39032120       0.60804214
C       13.92491105       7.52188634      16.52042677      -2.61965365       0.94014399      -0.26312948      -0.49201022      -0.90984952      -0.23338459
Pb      37.64471200       5.21502039      16.71004333      -0.51233586       0.13847309      -0.14948399       3.45164422      -2.32777794       0.01229498
Pb      16.45582107      12.36166279      18.93281435       0.36763153       0.24844434       0.03096642      -3.18144176       2.46821139      -1.17759863
Pb       7.17732194      10.22557240      16.12932554      -0.00646268       0.00855813       0.63445187      -3.07553953       1.45190219       1.22184495
Pb       8.81715702       6.70558255      18.74062216       0.10235626       0.07616055      -0.17126268      -3.79904734      -1.57478881       2.00500152
N        5.41547096       3.22835699      18.49516749      -1.29744814      -0.49836008       2.49070366      -0.80304561       0.18049967      -0.84454667
N        9.89395488      13.72349333      16.50762322      -2.37275029      -2.21359931       2.86529473       0.91421479      -1.51192438       0.61855863