768
Lattice="25.625769195560288 0.1442251890105203 -0.06288156074118129 -0.08544278206367628 25.555723663810763 -0.05823012908242495 0.07213310111533067 -0.1299461261962401 25.66616038795785" Properties=species:S:1:pos:R:3:forces:R:3:momenta:R:3 pbc="T T T"
I        7.63167024       1.01177415       2.30879372      -0.00482130       0.07642902       0.06348164       0.40111942       0.25138128       0.56899571
I        6.42563310      12.54431651       8.73183639       0.17810121       0.10496739      -0.16041709      -0.07851292       4.03142948      -1.00701676
I        6.28134881      10.05240988       4.66779369       0.27637947       0.12867237       0.15110853       0.11513914      -0.14602495       0.76936000
I        7.84058295       3.73639657       5.72905785      -0.12990221      -0.12321074       0.04391887       2.62575523       0.10882720       0.21660966
I        0.90579198      12.12383473       8.53844197       0.00548196       0.13417446      -0.00173781      -0.04490679      -0.30428014      -1.38028052
I       13.17414576       1.30603626       2.14545290      -0.24500086       0.00638323      -0.03288427       2.02024697       0.91029424       0.67273688
I       13.13376239       3.90285136       5.66555283      -0.06184398      -0.11791281      -0.04344108       3.58110783       0.56927064      -1.07803495
I        0.75277020      10.21204275       4.24844533       0.14072468      -0.03298533       0.08511265       0.26891177       1.69301879       0.49833629
I       10.38426173      13.49635273      11.31227053      -0.07897550      -0.14254732       0.06732667       0.99641693      -0.81938504       0.71823796
I        3.79617767       6.12934719       5.67488528       0.12755535       0.12722108       0.03679559       0.50036838      -1.87426793      -1.38059983
I        3.77894833       0.99454335       4.68720402       0.18430163      -0.05372256       0.04654035      -1.14076423       0.16744909      -1.49073140
I       10.22006298      12.91781091       5.85566121      -0.13827447       0.01610430      -0.18152510      -0.38653392       2.79082071       1.20929634
H        4.44304303       2.44055886       1.28540417       0.21011986       0.18579139       0.42549527      -0.10543515       0.13050073      -0.02767925
H        9.02053642       4.65025906       1.93645770      -0.41873590       0.05023360       0.11478165      -0.18009403       0.19699146       0.04249876
H        9.42107745       9.82029895       2.02336327       0.21312356      -0.22468982       0.28839161      -0.10776594       0.26774177       0.05068995
H        3.02307980       3.02053784       7.26066981       0.04890343       0.09575790      -0.05914341      -0.07245059      -0.07270096       0.13676955
H        3.75722557       8.51408853       8.13399288      -0.03414354      -0.57709552      -0.16154830      -0.02379033       0.06343312       0.14938272
H       10.76523907       4.99084911       1.55618103       0.67072037       0.21540214       0.13865213      -0.22151526       0.11149459       0.09546830
H        9.93711145       2.83587473       8.12519384       0.11685524       0.68884433      -0.03853079      -0.03451363      -0.10297559      -0.05132463
H        4.81456292       3.12150410       7.34804406       0.14994889       0.02130517      -0.26156082       0.02309927       0.09600414      -0.16932082
H        3.99486915       4.06118269       0.52244401       0.06945444       0.34471314      -0.16348248       0.09811121      -0.23370292       0.04441254
H       10.05377287       3.24521185       1.41552016       0.02284629       0.96186679       0.63576814      -0.22220108      -0.18196019      -0.00224954
H       10.45246264      10.33724533       3.48477763      -0.06779030      -0.02361905      -1.21894588       0.11881391      -0.08065881       0.07459229
H        3.90330979       2.05413397       8.50428681       0.02795868       0.63975890      -0.11229306      -0.23009654       0.09758035      -0.10439419
H        3.38626273       3.16915493       3.39747251       0.28756477       0.50381181      -0.43225839      -0.11124390       0.10390516      -0.19034307
H       10.26079075       8.59924634       9.82162496       0.23115990       0.83175926      -0.68771807      -0.19250778       0.06038283       0.13303848
H       11.11043566      12.25995997       1.91197271       0.93700008       0.11295794       0.52871169       0.14686061       0.15626125      -0.05511739
H        2.87244591      10.72131752       2.90740914       0.81003410      -0.14544621      -1.10560379      -0.11826316       0.07329006       0.09932276
H        2.71681724       4.60027118       2.66534372       1.89370210      -1.01090116      -0.26943891       0.09233824      -0.02963262       0.19427552
H        9.31445899       9.83037582      10.32068415       0.44374320       0.16353765      -0.29995293      -0.05616550       0.10428111       0.00918553
H        9.49145917      12.25439152       2.09251272      -0.00073749      -0.47272513      -0.26383303      -0.09425459       0.06225178       0.08446935
H        4.23504582      11.62937703       2.00204635      -0.49192354       0.15416864       0.02125056      -0.02616501      -0.06423076      -0.02024793
H        4.47810075       4.50649493       2.95537591      -0.70580357      -0.51208581      -0.27167652      -0.00557535      -0.01789727       0.00359947
H       10.39254998       4.79096942       4.04812592       0.29242778      -0.47212797      -0.46409416       0.17124386      -0.04656590       0.11748018
H       10.26528453      11.59883175       0.71732388      -0.32880623       0.09950639       0.24989098       0.12018475       0.01586302      -0.30592355
H        4.54243321      10.29947145       3.22839224       0.46778982      -0.10208930       0.09738445       0.09635863       0.02702111      -0.01764508
C        4.35631175       9.54428476       8.20777256      -0.52730696       0.32102702       0.79881369       0.20834190      -0.21196627       0.11332347
C       10.04400534       4.22887566       2.00065841      -0.57471283      -1.65651433      -0.87968692      -0.06875249      -1.14470500      -0.06265780
C       10.66474241       3.59715864       8.58760446       0.68220338      -1.09958931      -0.33208447       0.34375426       0.77272802       0.02899257
C        3.89098193       3.03781287       7.93198537      -0.20036480      -0.93840181       0.02807073      -0.06068372       0.52505521      -0.19386584
Pb       6.96321077       6.96527086       5.07354171      -0.09710723      -0.00329903       0.08662171       0.57741097       1.62428005      -1.46615580
Pb       7.04475896      13.44159542       5.33470684      -0.21249716      -0.14014235      -0.09493272      -2.35113241      -3.91344464       0.85355266
Pb       0.67002477      13.06294507      11.49361706      -0.01189611       0.25905434      -0.15488164      -0.56696058       1.07822496       2.06084979
Pb       0.45791490      13.23961003       5.09059668       0.25030366      -0.00104029       0.14515088      -2.59200683       0.03815389      -0.28383562
N        3.60306391       3.94140442       2.65750685      -1.50307270       0.43434009       0.39097188       0.06607065       0.25854630       0.09236461
N       10.22083421       9.66261738       9.79376138      -1.72942441      -0.72546494       0.78797305       0.19672905      -0.10037959       0.07728754
N       10.30182223      11.65701413       1.75711402      -0.38936734       0.29464584      -0.46548937       0.33509287      -0.25735387       0.93908057
N        3.83252347      10.62270355       2.39478064      -0.90217663       0.10920614       0.54686705       0.08419128      -0.02948105      -0.17463706
I        7.55252385       7.29319455       8.48249690       0.03226347      -0.09761777       0.03830705       1.01873424       0.23270148       1.99855293
I        6.48422705       6.11316971       2.10227863      -0.06103238       0.06074113      -0.05944848      -0.91167943      -0.86874530       0.86340578
I        6.60841614       3.52305319      11.15996087      -0.07139951       0.11320038      -0.09796410       1.46030051       0.77482611      -0.20721365
I        7.43748459       9.80594713      25.24597347       0.21648579       0.15314109      -0.20109350      -0.58364641       0.08910894      -3.25247051
I        0.76922927       6.24865579       1.99949723       0.17372676      -0.12873190      -0.04899114       0.16183974       0.06488393       0.27689146
I       13.15141448       7.28149960       8.39739888       0.07367360       0.16472749       0.08262605       1.57448695      -0.01615216      -1.00109918
I       12.91515631       9.87912137      25.01493280       0.11977949       0.08657325       0.07993522      -0.16965373       0.47230511      -0.02722704
I        1.10589108       3.51268263      10.98216818      -0.04537036       0.06747769       0.09655343       0.28634167      -0.38295014      -2.81861457
I       10.23287401       7.35275466       4.66180236      -0.00936352      -0.16275375       0.14745417       1.46565510       2.47319313      -1.05545914
I        4.06205177      12.63815413      25.05942616      -0.21282138      -0.04948194       0.02680200       0.77761127      -2.50656266       0.42975916
I        3.87618462       7.29368613      11.21997905      -0.09807789      -0.12930241      -0.01045243       0.30749579       0.67934919       1.38577778
I       10.30629673       6.02965804      24.41448905      -0.03420054       0.26022636      -0.06733907       0.66509723      -0.57157223      -2.59124417
H        5.59339989       9.43340899       8.24957576       0.23048511      -0.65200623       0.02794014       0.00255116      -0.11084649       0.00418015
H        9.38442448      10.06558577       7.92460824      -0.18055681      -0.15388447      -0.44619553       0.01074629      -0.03258167       0.17541591
H       10.51712171       3.62658281       9.68917887      -0.00520394       0.13038343      -0.13943175      -0.14554370       0.05811987       0.00624663
H        3.35973546       8.53794249       1.60017907       0.14415103      -0.59381373       0.58627364       0.22953231      -0.15399481      -0.10267453
H        2.67492306       2.88985800       1.02564483      -0.17710531      -0.11093427       0.16231486      -0.06994632      -0.02943216      -0.05567719
H       10.21230354      11.48162142       8.66682201      -0.08477065      -0.58036434       0.16533940      -0.10222776      -0.05620641       0.16626736
H       11.23740061       9.77388676       1.92317703      -0.00262904      -0.10193051       0.02518181       0.14976763       0.02593414      -0.06415615
H        2.90449407       9.92315644       0.35959261       1.07640508       0.30796308       0.40950837       0.05423130       0.09623272       0.05583200
H        4.03019399      10.21045929       7.35775990       0.02156075       0.61518279      -0.25588787       0.03657805       0.16253564      -0.14872841
H       11.22623862      10.16458286       7.99300444      -0.51003019      -0.04820316       0.02467954       0.08419951      -0.17481727       0.03567446
H       11.71498206       3.22254994       8.32340031      -0.64804383       0.59125168       0.36118555      -0.10125805       0.12092022       0.14243985
H        4.76892928       9.58869005       0.78835952      -0.04272008      -0.02765680      -0.28925143      -0.02823400       0.23670330      -0.19152850
H        2.76728810      10.63157369       9.34501826       0.18466076       0.24974337       0.12229952       0.05148905      -0.15741318       0.04573879
H       11.52166309       3.58046371       3.51625944      -0.40907065      -0.03937966       0.27112785      -0.14497492       0.10965493       0.17978768
H        9.59493744       5.42814490       8.21889102      -0.22658801      -0.12647621       0.08556780       0.05314069      -0.12346068       0.29737737
H        3.66292476       5.11076358       8.32587663       0.04540850       0.12222193      -0.34258884       0.01139319       0.23998456      -0.22546241
H        4.44344342      11.25176597       9.61729082       0.83877264       0.63128992       0.43166954       0.01392834      -0.11315218      -0.00096466
H        9.78991193       3.14381891       4.00525314       0.69283849       0.23136439      -0.52274657      -0.15408722       0.18387672       0.18900192
H       10.74477399       5.05390864       7.03442509      -0.13972792      -0.37521860      -0.93975507       0.08663152      -0.24603786      -0.15333041
H        4.70849304       4.28490745       9.41093762      -0.93082811      -0.09841663      -0.31946577      -0.11719106      -0.07204150       0.03912004
H        3.94614551       9.72528330      10.35234916       0.21329041       0.24446158      -0.56051638      -0.05911390       0.07973155       0.07693395
H       10.95520517       9.97735819      10.42930982       0.89197319       0.22913731       0.40592720       0.02728325       0.04212022       0.03254513
H       11.23313127       5.66934671       8.49426054       0.34640433      -0.02511589       0.09654174       0.08732627       0.06861333      -0.11461275
H        2.98833141       4.10004766       9.53502616      -0.00029075       0.02014997       0.19655483       0.11135212      -0.06572180       0.04892606
C        3.70457357       3.29500390       1.29179844      -0.04661649       0.24194442       0.15609488       0.21128869       0.18381711      -0.36723984
C       10.25176141      10.38520287       8.48419705       0.73471776       0.11580686       0.19700252       0.59419399       0.11640280       0.28975899
C       10.36554072      10.28706719       2.35132100      -0.38528591       0.34722511       0.91311275       0.43005279      -1.22768304      -0.19023399
C        3.71968205       9.59804243       1.18810246      -1.20579301       0.35030066      -0.22879603      -0.18595517      -0.05206315      -0.56664453
Pb       6.96932413      13.18516165      11.70037122       0.12395438      -0.00261415      -0.03192165      -0.89780551      -0.28725212       0.14861993
Pb       6.76581664       6.82188055      11.60298593       0.39106032      -0.10160663       0.01363658       0.10754178      -1.87121801       1.59110075
Pb       0.67810447       6.88737922       4.95378770      -0.02816104       0.09211932       0.30466838      -0.77861988       1.05573718       0.55137938
Pb       0.43555848       6.83058202      11.60211766      -0.08025082      -0.32918679      -0.21626219       1.57141969      -0.20765487       0.60818335
N        3.86797302      10.34341730       9.49414643      -1.13465817      -0.93589140      -0.61359345       0.45935124       0.12976763       0.18013070
N       10.45833138       3.88373018       3.46878176      -0.27774669       0.55906205       0.60587712       0.34838125       0.07994300      -0.24184105
N       10.53574732       4.99079181       8.04599484      -0.32787663       0.25568329       0.84132754       0.15951389       0.20306988      -0.11261847
N        3.79674882       4.21117099       8.85227928       0.94088898       0.12317910       0.89427298       0.59159484      -0.22803413      -0.03441600
I        7.66773679       0.94680109      15.14187391      -0.00482130       0.07642902       0.06348164       0.40111942       0.25138128       0.56899571
I        6.46169965      12.47934345      21.56491658       0.17810121       0.10496739      -0.16041709      -0.07851292       4.03142948      -1.00701676
I        6.31741536       9.98743682      17.50087388       0.27637947       0.12867237       0.15110853       0.11513914      -0.14602495       0.76936000
I        7.87664950       3.67142351      18.56213804      -0.12990221      -0.12321074       0.04391887       2.62575523       0.10882720       0.21660966
I        0.94185853      12.05886167      21.37152216       0.00548196       0.13417446      -0.00173781      -0.04490679      -0.30428014      -1.38028052
I       13.21021231       1.24106320      14.97853309      -0.24500086       0.00638323      -0.03288427       2.02024697       0.91029424       0.67273688
I       13.16982894       3.83787830      18.49863302      -0.06184398      -0.11791281      -0.04344108       3.58110783       0.56927064      -1.07803495
I        0.78883675      10.14706969      17.08152552       0.14072468      -0.03298533       0.08511265       0.26891177       1.69301879       0.49833629
I       10.42032828      13.43137967      24.14535072      -0.07897550      -0.14254732       0.06732667       0.99641693      -0.81938504       0.71823796
I        3.83224422       6.06437413      18.50796547       0.12755535       0.12722108       0.03679559       0.50036838      -1.87426793      -1.38059983
I        3.81501488       0.92957029      17.52028421       0.18430163      -0.05372256       0.04654035      -1.14076423       0.16744909      -1.49073140
I       10.25612953      12.85283785      18.68874140      -0.13827447       0.01610430      -0.18152510      -0.38653392       2.79082071       1.20929634
H        4.47910958       2.37558580      14.11848436       0.21011986       0.18579139       0.42549527      -0.10543515       0.13050073      -0.02767925
H        9.05660297       4.58528600      14.76953789      -0.41873590       0.05023360       0.11478165      -0.18009403       0.19699146       0.04249876
H        9.45714400       9.75532589      14.85644346       0.21312356      -0.22468982       0.28839161      -0.10776594       0.26774177       0.05068995
H        3.05914635       2.95556478      20.09375000       0.04890343       0.09575790      -0.05914341      -0.07245059      -0.07270096       0.13676955
H        3.79329212       8.44911547      20.96707307      -0.03414354      -0.57709552      -0.16154830      -0.02379033       0.06343312       0.14938272
H       10.80130562       4.92587605      14.38926122       0.67072037       0.21540214       0.13865213      -0.22151526       0.11149459       0.09546830
H        9.97317800       2.77090167      20.95827403       0.11685524       0.68884433      -0.03853079      -0.03451363      -0.10297559      -0.05132463
H        4.85062947       3.05653104      20.18112425       0.14994889       0.02130517      -0.26156082       0.02309927       0.09600414      -0.16932082
H        4.03093570       3.99620963      13.35552420       0.06945444       0.34471314      -0.16348248       0.09811121      -0.23370292       0.04441254
H       10.08983942       3.18023879      14.24860035       0.02284629       0.96186679       0.63576814      -0.22220108      -0.18196019      -0.00224954
H       10.48852919      10.27227227      16.31785782      -0.06779030      -0.02361905      -1.21894588       0.11881391      -0.08065881       0.07459229
H        3.93937634       1.98916091      21.33736700       0.02795868       0.63975890      -0.11229306      -0.23009654       0.09758035      -0.10439419
H        3.42232928       3.10418187      16.23055270       0.28756477       0.50381181      -0.43225839      -0.11124390       0.10390516      -0.19034307
H       10.29685730       8.53427328      22.65470515       0.23115990       0.83175926      -0.68771807      -0.19250778       0.06038283       0.13303848
H       11.14650221      12.19498691      14.74505290       0.93700008       0.11295794       0.52871169       0.14686061       0.15626125      -0.05511739
H        2.90851246      10.65634446      15.74048933       0.81003410      -0.14544621      -1.10560379      -0.11826316       0.07329006       0.09932276
H        2.75288379       4.53529812      15.49842391       1.89370210      -1.01090116      -0.26943891       0.09233824      -0.02963262       0.19427552
H        9.35052554       9.76540276      23.15376434       0.44374320       0.16353765      -0.29995293      -0.05616550       0.10428111       0.00918553
H        9.52752572      12.18941846      14.92559291      -0.00073749      -0.47272513      -0.26383303      -0.09425459       0.06225178       0.08446935
H        4.27111237      11.56440397      14.83512654      -0.49192354       0.15416864       0.02125056      -0.02616501      -0.06423076      -0.02024793
H        4.51416730       4.44152187      15.78845610      -0.70580357      -0.51208581      -0.27167652      -0.00557535      -0.01789727       0.00359947
H       10.42861653       4.72599636      16.88120611       0.29242778      -0.47212797      -0.46409416       0.17124386      -0.04656590       0.11748018
H       10.30135108      11.53385869      13.55040407      -0.32880623       0.09950639       0.24989098       0.12018475       0.01586302      -0.30592355
H        4.57849976      10.23449839      16.06147243       0.46778982      -0.10208930       0.09738445       0.09635863       0.02702111      -0.01764508
C        4.39237830       9.47931170      21.04085275      -0.52730696       0.32102702       0.79881369       0.20834190      -0.21196627       0.11332347
C       10.08007189       4.16390260      14.83373860      -0.57471283      -1.65651433      -0.87968692      -0.06875249      -1.14470500      -0.06265780
C       10.70080896       3.53218558      21.42068465       0.68220338      -1.09958931      -0.33208447       0.34375426       0.77272802       0.02899257
C        3.92704848       2.97283981      20.76506556      -0.20036480      -0.93840181       0.02807073      -0.06068372       0.52505521      -0.19386584
Pb       6.99927732       6.90029780      17.90662190      -0.09710723      -0.00329903       0.08662171       0.57741097       1.62428005      -1.46615580
Pb       7.08082551      13.37662236      18.16778703      -0.21249716      -0.14014235      -0.09493272      -2.35113241      -3.91344464       0.85355266
Pb       0.70609132      12.99797201      24.32669725      -0.01189611       0.25905434      -0.15488164      -0.56696058       1.07822496       2.06084979
Pb       0.49398145      13.17463697      17.92367687       0.25030366      -0.00104029       0.14515088      -2.59200683       0.03815389      -0.28383562
N        3.63913046       3.87643136      15.49058704      -1.50307270       0.43434009       0.39097188       0.06607065       0.25854630       0.09236461
N       10.25690076       9.59764432      22.62684157      -1.72942441      -0.72546494       0.78797305       0.19672905      -0.10037959       0.07728754
N       10.33788878      11.59204107      14.59019421      -0.38936734       0.29464584      -0.46548937       0.33509287      -0.25735387       0.93908057
N        3.86859002      10.55773049      15.22786083      -0.90217663       0.10920614       0.54686705       0.08419128      -0.02948105      -0.17463706
I        7.58859040       7.22822149      21.31557709       0.03226347      -0.09761777       0.03830705       1.01873424       0.23270148       1.99855293
I        6.52029360       6.04819665      14.93535882      -0.06103238       0.06074113      -0.05944848      -0.91167943      -0.86874530       0.86340578
I        6.64448269       3.45808013      23.99304106      -0.07139951       0.11320038      -0.09796410       1.46030051       0.77482611      -0.20721365
I        7.40141804       9.87092020      12.41289327       0.21648579       0.15314109      -0.20109350      -0.58364641       0.08910894      -3.25247051
I        0.80529582       6.18368273      14.83257742       0.17372676      -0.12873190      -0.04899114       0.16183974       0.06488393       0.27689146
I       13.18748103       7.21652654      21.23047907       0.07367360       0.16472749       0.08262605       1.57448695      -0.01615216      -1.00109918
I       12.87908976       9.94409444      12.18185260       0.11977949       0.08657325       0.07993522      -0.16965373       0.47230511      -0.02722704
I        1.14195763       3.44770957      23.81524837      -0.04537036       0.06747769       0.09655343       0.28634167      -0.38295014      -2.81861457
I       10.26894056       7.28778160      17.49488255      -0.00936352      -0.16275375       0.14745417       1.46565510       2.47319313      -1.05545914
I        4.02598522      12.70312720      12.22634596      -0.21282138      -0.04948194       0.02680200       0.77761127      -2.50656266       0.42975916
I        3.91225117       7.22871307      24.05305924      -0.09807789      -0.12930241      -0.01045243       0.30749579       0.67934919       1.38577778
I       10.27023018       6.09463111      11.58140885      -0.03420054       0.26022636      -0.06733907       0.66509723      -0.57157223      -2.59124417
H        5.62946644       9.36843593      21.08265595       0.23048511      -0.65200623       0.02794014       0.00255116      -0.11084649       0.00418015
H        9.42049103      10.00061271      20.75768843      -0.18055681      -0.15388447      -0.44619553       0.01074629      -0.03258167       0.17541591
H       10.55318826       3.56160975      22.52225906      -0.00520394       0.13038343      -0.13943175      -0.14554370       0.05811987       0.00624663
H        3.39580201       8.47296943      14.43325926       0.14415103      -0.59381373       0.58627364       0.22953231      -0.15399481      -0.10267453
H        2.71098961       2.82488494      13.85872502      -0.17710531      -0.11093427       0.16231486      -0.06994632      -0.02943216      -0.05567719
H       10.24837009      11.41664836      21.49990220      -0.08477065      -0.58036434       0.16533940      -0.10222776      -0.05620641       0.16626736
H       11.27346716       9.70891370      14.75625722      -0.00262904      -0.10193051       0.02518181       0.14976763       0.02593414      -0.06415615
H        2.94056062       9.85818338      13.19267280       1.07640508       0.30796308       0.40950837       0.05423130       0.09623272       0.05583200
H        4.06626054      10.14548623      20.19084009       0.02156075       0.61518279      -0.25588787       0.03657805       0.16253564      -0.14872841
H       11.26230517      10.09960980      20.82608463      -0.51003019      -0.04820316       0.02467954       0.08419951      -0.17481727       0.03567446
H       11.75104861       3.15757688      21.15648050      -0.64804383       0.59125168       0.36118555      -0.10125805       0.12092022       0.14243985
H        4.80499583       9.52371699      13.62143971      -0.04272008      -0.02765680      -0.28925143      -0.02823400       0.23670330      -0.19152850
H        2.80335465      10.56660063      22.17809845       0.18466076       0.24974337       0.12229952       0.05148905      -0.15741318       0.04573879
H       11.55772964       3.51549065      16.34933963      -0.40907065      -0.03937966       0.27112785      -0.14497492       0.10965493       0.17978768
H        9.63100399       5.36317184      21.05197121      -0.22658801      -0.12647621       0.08556780       0.05314069      -0.12346068       0.29737737
H        3.69899131       5.04579052      21.15895682       0.04540850       0.12222193      -0.34258884       0.01139319       0.23998456      -0.22546241
H        4.47950997      11.18679291      22.45037101       0.83877264       0.63128992       0.43166954       0.01392834      -0.11315218      -0.00096466
H        9.82597848       3.07884585      16.83833333       0.69283849       0.23136439      -0.52274657      -0.15408722       0.18387672       0.18900192
H       10.78084054       4.98893558      19.86750528      -0.13972792      -0.37521860      -0.93975507       0.08663152      -0.24603786      -0.15333041
H        4.74455959       4.21993439      22.24401781      -0.93082811      -0.09841663      -0.31946577      -0.11719106      -0.07204150       0.03912004
H        3.98221206       9.66031024      23.18542935       0.21329041       0.24446158      -0.56051638      -0.05911390       0.07973155       0.07693395
H       10.99127172       9.91238513      23.26239001       0.89197319       0.22913731       0.40592720       0.02728325       0.04212022       0.03254513
H       11.26919782       5.60437365      21.32734073       0.34640433      -0.02511589       0.09654174       0.08732627       0.06861333      -0.11461275
H        3.02439796       4.03507460      22.36810635      -0.00029075       0.02014997       0.19655483       0.11135212      -0.06572180       0.04892606
C        3.74064012       3.23003084      14.12487863      -0.04661649       0.24194442       0.15609488       0.21128869       0.18381711      -0.36723984
C       10.28782796      10.32022981      21.31727724       0.73471776       0.11580686       0.19700252       0.59419399       0.11640280       0.28975899
C       10.40160727      10.22209413      15.18440119      -0.38528591       0.34722511       0.91311275       0.43005279      -1.22768304      -0.19023399
C        3.75574860       9.53306937      14.02118265      -1.20579301       0.35030066      -0.22879603      -0.18595517      -0.05206315      -0.56664453
Pb       7.00539068      13.12018859      24.53345141       0.12395438      -0.00261415      -0.03192165      -0.89780551      -0.28725212       0.14861993
Pb       6.80188319       6.75690749      24.43606612       0.39106032      -0.10160663       0.01363658       0.10754178      -1.87121801       1.59110075
Pb       0.71417102       6.82240616      17.78686789      -0.02816104       0.09211932       0.30466838      -0.77861988       1.05573718       0.55137938
Pb       0.47162503       6.76560896      24.43519785      -0.08025082      -0.32918679      -0.21626219       1.57141969      -0.20765487       0.60818335
N        3.90403957      10.27844424      22.32722662      -1.13465817      -0.93589140      -0.61359345       0.45935124       0.12976763       0.18013070
N       10.49439793       3.81875712      16.30186195      -0.27774669       0.55906205       0.60587712       0.34838125       0.07994300      -0.24184105