768
Lattice="25.625769195560288 0.1442251890105203 -0.06288156074118129 -0.08544278206367628 25.555723663810763 -0.05823012908242495 0.07213310111533067 -0.1299461261962401 25.66616038795785" Properties=species:S:1:pos:R:3:forces:R:3:momenta:R:3 pbc="T T T"
I        6.05862032       1.23022810       2.34873334       0.01519434       0.02079111      -0.33587587      -0.98188267       0.01852492      -0.45346598
I        5.35353177      12.86952168       8.63154012      -0.07930192      -0.04032507       0.37047593       1.37068844      -1.65106829      -2.72663379
I        5.08233052      10.20218440       4.71440432       0.12770735      -0.04927439       0.01813974       2.21386208      -0.78320683      -1.56639012
I        6.12773588       3.78773020       5.78984074      -0.00966319       0.09693468      -0.02568710       1.28012687       0.33957626       1.06061563
I       25.36167247      13.02922473       8.63002014      -0.10647162      -0.02690421      -0.07710666       1.02111280       0.82453705      -0.39662471
I       11.87306405       1.29461412       2.21621197      -0.16400652      -0.07812285       0.07076568       1.55128085       1.00419493       2.17963498
I       11.63030619       3.79263121       5.99169184       0.10939350       0.07252332       0.03073103      -0.08948909       0.91150338      -0.87140002
I       25.10100437      10.24565147       4.72194136       0.19302694       0.17356681      -0.07807056      -0.85390449       2.54203992      -1.41143308
I        8.76797779      13.26763124      11.43869351       0.25551789       0.25977871       0.00900629       1.24419524       0.48904417      -1.40955984
I        2.64033215       6.51488565       5.82901653      -0.36991833       0.00777039      -0.09154686      -1.35930784       0.98279736       1.45363166
I        2.71642354       1.11128993       5.06359451      -0.36124896       0.06281744      -0.13610726       1.31426739      -0.23913730       0.73615281
I        8.97476252      13.12676603       5.34261260       0.16880317      -0.07712732       0.07073385      -0.02062441       1.13945347      -0.97914159
H        3.19196600       2.87324022       1.43293712       0.53342455      -0.28180126      -0.15262668       0.04864209       0.02786239      -0.09180734
H        7.89638853       4.31071641       1.41974715      -0.61436395       0.05432292       0.25242690       0.18680637      -0.07813260       0.25684426
H        7.92779440       9.86584006       1.94569291      -0.60808891      -0.27513171      -0.05885194       0.00646325      -0.05969643      -0.04377657
H        1.82753186       3.20072345       7.55874830      -0.28683647      -0.56078373      -0.29483597       0.03238677      -0.06372520       0.09732926
H        1.70368768       8.71605591       8.41766886      -0.86030566      -0.39651601      -0.32139418       0.08903116       0.07906351       0.07175473
H        9.64605291       4.75234213       1.64166937       0.02101103      -0.43732527       0.07853392      -0.03911730      -0.08551230       0.08370348
H        7.38806687       3.67831842       8.77869590       0.33695044       0.71660143       0.20186462       0.08107954       0.22406858       0.06338688
H        3.63060070       3.18957212       8.04952124       0.01342732      -0.11909304       0.10220336      -0.02366626       0.00167324      -0.01992881
H        2.35242991       4.32907699       0.76736968       0.00135752      -0.15653322      -0.06107126       0.07792674      -0.10547689      -0.03860369
H        9.17399797       2.95164871       1.21458932      -0.01803657       0.15112997      -0.56196877       0.04666856      -0.02747801       0.02565872
H        8.80398621      10.29542714       3.46793749      -0.26059365       0.77938767       0.18609878      -0.08399943      -0.08282428      -0.14499250
H        2.34036823       2.67157300       9.39730960       0.02702462       0.83340913      -1.63025850       0.09481230       0.15369839       0.02025520
H        2.46240046       3.59753993       3.67224831       0.10548765      -0.03083366      -0.04143649      -0.06532856       0.28098162      -0.07402702
H        8.75198779       8.85324737      10.46696201      -0.09379995      -0.20935532      -0.45893909      -0.23590359      -0.12308070      -0.09442884
H        9.64203353      12.33086737       2.13966604      -0.55897573      -0.63205485      -0.27733844       0.20202115       0.04696427      -0.14383111
H        1.64110244      11.14242529       3.10407210      -0.45128276       0.07254174       0.00621689      -0.19305763       0.01779194       0.10304190
H        1.81495992       4.97932520       2.99233157      -1.09081652       0.69314653       0.17335273      -0.03470470      -0.06802564       0.02471168
H        8.02539759      10.25622592      10.92655649       0.25981534      -0.00051924       0.32405183       0.14743489      -0.12233395       0.13449183
H        7.95955705      12.34023141       2.04820727       0.60007344      -0.62185081      -0.03600041      -0.02526206      -0.01060923      -0.10219598
H        2.56662839      11.64758758       1.71782977      -0.07928048       0.39415057       0.30086359      -0.12535479      -0.13741946       0.12610869
H        3.44513193       4.77391475       2.97212802       0.32535792       0.13131094      -0.15647895      -0.08829453      -0.10198549      -0.01488426
H        9.00479763       4.40792980       3.76739218       0.01975017      -0.47973447       0.41910226       0.11481100       0.05315506      -0.15483413
H        8.83821796      11.78278441       0.76936324       0.17468366      -0.26095021      -0.35957848      -0.00477667       0.00340391      -0.06364554
H        3.28269126      10.92870348       3.12133998       0.32157762       0.21298039       0.10878344       0.06718859       0.05218085      -0.16832831
C        2.36953695       9.65161741       8.14126873       0.99245607       1.13169431       0.02640029      -0.38096491       0.20135951      -0.70321469
C        8.88983567       3.91486655       1.75505067       0.55919339      -0.69317280       0.49996153       0.08303434       0.60633309       0.11181834
C        8.53339014       3.99623100       8.84425474      -0.42057360      -0.27610878      -0.16894399      -0.24995648      -0.92595274       0.65570870
C        2.55078015       3.31964629       8.40570247       0.12371854      -0.79181761       1.90000643       0.75586874      -0.28150665      -0.42602165
Pb       5.78908533       6.93447349       5.32453614      -0.12777775       0.00115849       0.20864854       0.33355855       1.23134033      -0.61626326
Pb       5.82034229      13.19103724       5.44354360      -0.16385759       0.11455712       0.31366758      -0.07174447      -0.81036026      -1.25159787
Pb      24.84368395      13.56599120      11.63196769       0.18669938       0.04664692       0.17139574       1.56713943      -0.24175306       0.78389185
Pb      25.02446524      13.58598866       5.31604285       0.00106505       0.00136850      -0.00800044       1.85854912      -1.76632344       0.72483620
N        2.53888906       4.27741369       2.88683796       0.51163517      -1.21097991      -0.34655056      -0.83581657      -0.02311326       0.03454723
N        8.85050526       9.89641763      10.38317424      -1.12749515      -0.39001101       0.09428596       0.74772735      -0.00374591      -0.01228982
N        8.81533955      11.74715307       1.80015622      -0.12842325       1.81199289       1.29411642       0.76878305      -0.36173906      -0.00334175
N        2.45221785      10.94212249       2.49791236       0.06222893      -0.69569074      -0.53610108       0.26708166       0.01004186      -0.31860249
I        5.83730783       7.52051374       8.59670961       0.18420969      -0.01282091       0.02637940       1.33670554      -0.69828426       0.49831875
I        5.35227778       6.49908703       2.13575413      -0.05108943      -0.08982703       0.03719126      -0.01654259       3.33166976       1.21683236
I        5.20511153       3.94074479      11.22074009      -0.08218302      -0.02252682      -0.00892307       1.80060447      -0.41679141       1.97838374
I        6.01097237      10.20491760      25.26480302      -0.09131988       0.08271840       0.04197267      -1.34796548      -1.70133044       1.46106022
I       25.18241008       6.49172135       2.37542395       0.09594224      -0.00918869      -0.27468020       1.29459163       0.33786052      -0.44786040
I       11.87896275       7.42985273       8.72261263      -0.11345082       0.00909026       0.08720912      -1.43691170       1.66900511       0.82676544
I       11.56983972      10.33281944      25.27564243       0.30104855      -0.07723115       0.03367837      -0.45150575      -0.63374292       0.10418932
I       25.38299179       4.09833679      11.55786988       0.00391131      -0.06702043      -0.18349566      -2.43869181       0.71572561       1.82280551
I        8.90176330       6.91900121       4.66094617       0.21710903      -0.01408607       0.13987201      -0.09410528      -0.10108965      -1.01254757
I        2.52757548      12.74922044      25.08717434      -0.22525458       0.02776716       0.03810022      -0.64792930      -1.36442145       0.62852809
I        2.54840384       7.58170736      11.36239666      -0.06880721      -0.01138038       0.05620507      -2.06974289       1.03648832      -0.87117980
I        8.98975096       6.81959553      24.74093199      -0.01714188      -0.14723063       0.01609031      -1.09117446      -0.79780950       0.52648801
H        3.46360649       9.29452469       8.04553841      -0.24265144       0.36416517       0.02054047      -0.07150594       0.07421608      -0.07470705
H        7.90129270       9.95798227       8.52356700       0.36516150       0.27980231      -0.03507266      -0.13789349      -0.08878463       0.06841480
H        8.92794023       4.13395443       9.92705551      -0.11513388      -0.23147552       0.11380364      -0.03621947       0.09933238       0.10089082
H        2.12896054       8.77740724       2.60719464      -0.22974164       0.83611544      -0.53377705      -0.05297231      -0.12986256       0.11042826
H        1.42608204       3.00919122       1.60038029      -0.34198034      -0.10533808      -0.15709035      -0.13988190       0.16093149      -0.17455472
H        8.66544447      11.56506858       9.05598357      -0.12533230      -0.51902818       0.05466642       0.11208410      -0.02233589      -0.18237440
H        9.69119382       9.85134641       2.01998043      -0.30049623       0.21006851      -0.04115146      -0.11970649      -0.39428161       0.03815136
H        1.54752731       9.65987536       1.07376265      -0.37327009      -0.03236277      -0.27467501      -0.03726320      -0.07407778       0.13940165
H        1.97141833      10.27234597       7.20087940      -0.02157883      -0.59480603       0.34485894      -0.10541489       0.10062799      -0.13078665
H        9.73193863      10.20865315       8.51976006      -0.23252080      -0.00900397      -0.17340046      -0.09630134      -0.16820296       0.06593536
H        9.14526845       3.19354061       8.22357855       0.67523908      -0.22018890      -0.06251385      -0.32331184      -0.01921883       0.14589810
H        3.36273899       9.35099808       1.38046802      -0.35218845       0.15346337      -0.06020005      -0.03747532       0.02364416       0.04667803
H        1.43072214      11.09769238       9.47615825       0.38495504       0.07208201      -0.59153275       0.17296504       0.06162208       0.06314092
H        9.69478686       2.86406737       3.37114594       0.32426663      -0.01112162       0.31413112       0.07046706       0.17681217       0.06523903
H        8.06456521       6.05935490       8.62111445      -0.49986933       0.47758417       0.61112603       0.01785357       0.19977863      -0.04746922
H        2.29470867       5.39260405       8.02716664      -0.12486268       0.12895085       0.42954087       0.10649012       0.04758089      -0.16529155
H        3.11844305      11.29021935       9.37293697       0.62068974       0.75987858      -0.47643305      -0.03162253      -0.01259587      -0.28719116
H        8.02247256       2.99935952       3.53144866       0.12079333       0.20092455      -0.12577421      -0.17794120      -0.12306613      -0.05738786
H        8.57159434       5.46298191       7.18586444       0.24368157      -0.56903388       1.48624440      -0.06869304       0.07499983      -0.10755143
H        2.93304122       5.09563357       9.69362026      -0.13828453      -0.26831488      -0.57214164       0.25203440       0.09706705      -0.24296870
H        2.50655358      10.04332119      10.21985797      -0.01562199      -0.12417879      -0.18286009       0.04859409      -0.02430368       0.17345148
H        9.72423305      10.05811218      10.89755907       0.53351607       0.78766138       0.43563931       0.15794673       0.19379225       0.10160489
H        9.73761512       5.74650251       8.43095862       0.41701526       0.22502309       0.42163302      -0.00232362      -0.13170830      -0.06531198
H        1.29787504       4.80407803       9.35365434       0.00290934       0.20323880      -0.30564384      -0.04796193      -0.07947588      -0.08622281
C        2.36708672       3.56128271       1.54712343       0.03270554       0.78458130       0.84806160       0.75359548       0.22212673       0.55499549
C        8.77818527      10.45060595       9.01851097       0.35153737       0.07397119      -0.61787916       0.54344007      -0.17613778       0.32230727
C        8.78076103      10.38229210       2.36333752       1.14971449      -1.00228352      -0.54093408      -0.62300169       0.39478075      -0.02331936
C        2.33891013       9.59421084       1.82911064       0.91990671      -0.91344122       1.08315473      -0.21492463       0.58149457       0.75770352
Pb       5.65110926      13.57659923      11.94669416      -0.21447309      -0.07988039      -0.41533085      -1.02414878      -0.20628647      -0.28019998
Pb       5.77319804       7.05770712      11.99189601      -0.12207902      -0.03106360      -0.20010997       0.95207574       0.29932518       0.89316834
Pb      24.92457657       7.15613723       5.30950320       0.15516814      -0.07239716       0.07876118       2.21127711      -0.50209442       1.33392982
Pb      25.05223987       7.24469018      11.83023240       0.01256766      -0.03105399       0.04065796       2.32907653      -0.70254258      -0.72803386
N        2.36265526      10.61018074       9.33079619      -0.61251210      -1.12293105       1.07471605      -0.45012461       0.55738658       0.03650176
N        8.89849491       3.49588148       3.22542805      -0.36133571       1.28496616      -0.83562740       0.41555805      -0.03534147      -0.16000753
N        8.76708041       5.36788647       8.27497101      -0.56721820      -0.11840112      -2.67126625       0.47211963       0.00896412       0.06490824
N        2.25128615       4.75112704       8.89260370       0.46288672       0.49699957       0.48921511      -0.62279044      -0.22132112       0.01227190
I        6.09468687       1.16525504      15.18181353       0.01519434       0.02079111      -0.33587587      -0.98188267       0.01852492      -0.45346598
I        5.38959832      12.80454862      21.46462031      -0.07930192      -0.04032507       0.37047593       1.37068844      -1.65106829      -2.72663379
I        5.11839707      10.13721134      17.54748451       0.12770735      -0.04927439       0.01813974       2.21386208      -0.78320683      -1.56639012
I        6.16380243       3.72275714      18.62292093      -0.00966319       0.09693468      -0.02568710       1.28012687       0.33957626       1.06061563
I       25.39773902      12.96425167      21.46310033      -0.10647162      -0.02690421      -0.07710666       1.02111280       0.82453705      -0.39662471
I       11.90913060       1.22964106      15.04929216      -0.16400652      -0.07812285       0.07076568       1.55128085       1.00419493       2.17963498
I       11.66637274       3.72765815      18.82477203       0.10939350       0.07252332       0.03073103      -0.08948909       0.91150338      -0.87140002
I       25.13707092      10.18067841      17.55502155       0.19302694       0.17356681      -0.07807056      -0.85390449       2.54203992      -1.41143308
I        8.80404434      13.20265818      24.27177370       0.25551789       0.25977871       0.00900629       1.24419524       0.48904417      -1.40955984
I        2.67639870       6.44991259      18.66209672      -0.36991833       0.00777039      -0.09154686      -1.35930784       0.98279736       1.45363166
I        2.75249009       1.04631687      17.89667470      -0.36124896       0.06281744      -0.13610726       1.31426739      -0.23913730       0.73615281
I        9.01082907      13.06179297      18.17569279       0.16880317      -0.07712732       0.07073385      -0.02062441       1.13945347      -0.97914159
H        3.22803255       2.80826716      14.26601731       0.53342455      -0.28180126      -0.15262668       0.04864209       0.02786239      -0.09180734
H        7.93245508       4.24574335      14.25282734      -0.61436395       0.05432292       0.25242690       0.18680637      -0.07813260       0.25684426
H        7.96386095       9.80086700      14.77877310      -0.60808891      -0.27513171      -0.05885194       0.00646325      -0.05969643      -0.04377657
H        1.86359841       3.13575039      20.39182849      -0.28683647      -0.56078373      -0.29483597       0.03238677      -0.06372520       0.09732926
H        1.73975423       8.65108285      21.25074905      -0.86030566      -0.39651601      -0.32139418       0.08903116       0.07906351       0.07175473
H        9.68211946       4.68736907      14.47474956       0.02101103      -0.43732527       0.07853392      -0.03911730      -0.08551230       0.08370348
H        7.42413342       3.61334536      21.61177609       0.33695044       0.71660143       0.20186462       0.08107954       0.22406858       0.06338688
H        3.66666725       3.12459906      20.88260143       0.01342732      -0.11909304       0.10220336      -0.02366626       0.00167324      -0.01992881
H        2.38849646       4.26410393      13.60044987       0.00135752      -0.15653322      -0.06107126       0.07792674      -0.10547689      -0.03860369
H        9.21006452       2.88667565      14.04766951      -0.01803657       0.15112997      -0.56196877       0.04666856      -0.02747801       0.02565872
H        8.84005276      10.23045408      16.30101768      -0.26059365       0.77938767       0.18609878      -0.08399943      -0.08282428      -0.14499250
H        2.37643478       2.60659994      22.23038979       0.02702462       0.83340913      -1.63025850       0.09481230       0.15369839       0.02025520
H        2.49846701       3.53256687      16.50532850       0.10548765      -0.03083366      -0.04143649      -0.06532856       0.28098162      -0.07402702
H        8.78805434       8.78827431      23.30004220      -0.09379995      -0.20935532      -0.45893909      -0.23590359      -0.12308070      -0.09442884
H        9.67810008      12.26589431      14.97274623      -0.55897573      -0.63205485      -0.27733844       0.20202115       0.04696427      -0.14383111
H        1.67716899      11.07745223      15.93715229      -0.45128276       0.07254174       0.00621689      -0.19305763       0.01779194       0.10304190
H        1.85102647       4.91435214      15.82541176      -1.09081652       0.69314653       0.17335273      -0.03470470      -0.06802564       0.02471168
H        8.06146414      10.19125286      23.75963668       0.25981534      -0.00051924       0.32405183       0.14743489      -0.12233395       0.13449183
H        7.99562360      12.27525835      14.88128746       0.60007344      -0.62185081      -0.03600041      -0.02526206      -0.01060923      -0.10219598
H        2.60269494      11.58261452      14.55090996      -0.07928048       0.39415057       0.30086359      -0.12535479      -0.13741946       0.12610869
H        3.48119848       4.70894169      15.80520821       0.32535792       0.13131094      -0.15647895      -0.08829453      -0.10198549      -0.01488426
H        9.04086418       4.34295674      16.60047237       0.01975017      -0.47973447       0.41910226       0.11481100       0.05315506      -0.15483413
H        8.87428451      11.71781135      13.60244343       0.17468366      -0.26095021      -0.35957848      -0.00477667       0.00340391      -0.06364554
H        3.31875781      10.86373042      15.95442017       0.32157762       0.21298039       0.10878344       0.06718859       0.05218085      -0.16832831
C        2.40560350       9.58664435      20.97434892       0.99245607       1.13169431       0.02640029      -0.38096491       0.20135951      -0.70321469
C        8.92590222       3.84989349      14.58813086       0.55919339      -0.69317280       0.49996153       0.08303434       0.60633309       0.11181834
C        8.56945669       3.93125794      21.67733493      -0.42057360      -0.27610878      -0.16894399      -0.24995648      -0.92595274       0.65570870
C        2.58684670       3.25467323      21.23878266       0.12371854      -0.79181761       1.90000643       0.75586874      -0.28150665      -0.42602165
Pb       5.82515188       6.86950043      18.15761633      -0.12777775       0.00115849       0.20864854       0.33355855       1.23134033      -0.61626326
Pb       5.85640884      13.12606418      18.27662379      -0.16385759       0.11455712       0.31366758      -0.07174447      -0.81036026      -1.25159787
Pb      24.87975050      13.50101814      24.46504788       0.18669938       0.04664692       0.17139574       1.56713943      -0.24175306       0.78389185
Pb      25.06053179      13.52101560      18.14912304       0.00106505       0.00136850      -0.00800044       1.85854912      -1.76632344       0.72483620
N        2.57495561       4.21244063      15.71991815       0.51163517      -1.21097991      -0.34655056      -0.83581657      -0.02311326       0.03454723
N        8.88657181       9.83144457      23.21625443      -1.12749515      -0.39001101       0.09428596       0.74772735      -0.00374591      -0.01228982
N        8.85140610      11.68218001      14.63323641      -0.12842325       1.81199289       1.29411642       0.76878305      -0.36173906      -0.00334175
N        2.48828440      10.87714943      15.33099255       0.06222893      -0.69569074      -0.53610108       0.26708166       0.01004186      -0.31860249
I        5.87337438       7.45554068      21.42978980       0.18420969      -0.01282091       0.02637940       1.33670554      -0.69828426       0.49831875
I        5.38834433       6.43411397      14.96883432      -0.05108943      -0.08982703       0.03719126      -0.01654259       3.33166976       1.21683236
I        5.24117808       3.87577173      24.05382028      -0.08218302      -0.02252682      -0.00892307       1.80060447      -0.41679141       1.97838374
I        5.97490582      10.26989067      12.43172282      -0.09131988       0.08271840       0.04197267      -1.34796548      -1.70133044       1.46106022
I       25.21847663       6.42674829      15.20850414       0.09594224      -0.00918869      -0.27468020       1.29459163       0.33786052      -0.44786040
I       11.91502930       7.36487967      21.55569282      -0.11345082       0.00909026       0.08720912      -1.43691170       1.66900511       0.82676544
I       11.53377317      10.39779251      12.44256223       0.30104855      -0.07723115       0.03367837      -0.45150575      -0.63374292       0.10418932
I       25.41905834       4.03336373      24.39095007       0.00391131      -0.06702043      -0.18349566      -2.43869181       0.71572561       1.82280551
I        8.93782985       6.85402815      17.49402636       0.21710903      -0.01408607       0.13987201      -0.09410528      -0.10108965      -1.01254757
I        2.49150893      12.81419351      12.25409414      -0.22525458       0.02776716       0.03810022      -0.64792930      -1.36442145       0.62852809
I        2.58447039       7.51673430      24.19547685      -0.06880721      -0.01138038       0.05620507      -2.06974289       1.03648832      -0.87117980
I        8.95368441       6.88456860      11.90785179      -0.01714188      -0.14723063       0.01609031      -1.09117446      -0.79780950       0.52648801
H        3.49967304       9.22955163      20.87861860      -0.24265144       0.36416517       0.02054047      -0.07150594       0.07421608      -0.07470705
H        7.93735925       9.89300921      21.35664719       0.36516150       0.27980231      -0.03507266      -0.13789349      -0.08878463       0.06841480
H        8.96400678       4.06898137      22.76013570      -0.11513388      -0.23147552       0.11380364      -0.03621947       0.09933238       0.10089082
H        2.16502709       8.71243418      15.44027483      -0.22974164       0.83611544      -0.53377705      -0.05297231      -0.12986256       0.11042826
H        1.46214859       2.94421816      14.43346048      -0.34198034      -0.10533808      -0.15709035      -0.13988190       0.16093149      -0.17455472
H        8.70151102      11.50009552      21.88906376      -0.12533230      -0.51902818       0.05466642       0.11208410      -0.02233589      -0.18237440
H        9.72726037       9.78637335      14.85306062      -0.30049623       0.21006851      -0.04115146      -0.11970649      -0.39428161       0.03815136
H        1.58359386       9.59490230      13.90684284      -0.37327009      -0.03236277      -0.27467501      -0.03726320      -0.07407778       0.13940165
H        2.00748488      10.20737291      20.03395959      -0.02157883      -0.59480603       0.34485894      -0.10541489       0.10062799      -0.13078665
H        9.76800518      10.14368009      21.35284025      -0.23252080      -0.00900397      -0.17340046      -0.09630134      -0.16820296       0.06593536
H        9.18133500       3.12856755      21.05665874       0.67523908      -0.22018890      -0.06251385      -0.32331184      -0.01921883       0.14589810
H        3.39880554       9.28602502      14.21354821      -0.35218845       0.15346337      -0.06020005      -0.03747532       0.02364416       0.04667803
H        1.46678869      11.03271932      22.30923844       0.38495504       0.07208201      -0.59153275       0.17296504       0.06162208       0.06314092
H        9.73085341       2.79909431      16.20422613       0.32426663      -0.01112162       0.31413112       0.07046706       0.17681217       0.06523903
H        8.10063176       5.99438184      21.45419464      -0.49986933       0.47758417       0.61112603       0.01785357       0.19977863      -0.04746922
H        2.33077522       5.32763099      20.86024683      -0.12486268       0.12895085       0.42954087       0.10649012       0.04758089      -0.16529155
H        3.15450960      11.22524629      22.20601716       0.62068974       0.75987858      -0.47643305      -0.03162253      -0.01259587      -0.28719116
H        8.05853911       2.93438646      16.36452885       0.12079333       0.20092455      -0.12577421      -0.17794120      -0.12306613      -0.05738786
H        8.60766089       5.39800885      20.01894463       0.24368157      -0.56903388       1.48624440      -0.06869304       0.07499983      -0.10755143
H        2.96910777       5.03066051      22.52670045      -0.13828453      -0.26831488      -0.57214164       0.25203440       0.09706705      -0.24296870
H        2.54262013       9.97834813      23.05293816      -0.01562199      -0.12417879      -0.18286009       0.04859409      -0.02430368       0.17345148
H        9.76029960       9.99313912      23.73063926       0.53351607       0.78766138       0.43563931       0.15794673       0.19379225       0.10160489
H        9.77368167       5.68152945      21.26403881       0.41701526       0.22502309       0.42163302      -0.00232362      -0.13170830      -0.06531198
H        1.33394159       4.73910497      22.18673453       0.00290934       0.20323880      -0.30564384      -0.04796193      -0.07947588      -0.08622281
C        2.40315327       3.49630965      14.38020362       0.03270554       0.78458130       0.84806160       0.75359548       0.22212673       0.55499549
C        8.81425182      10.38563289      21.85159116       0.35153737       0.07397119      -0.61787916       0.54344007      -0.17613778       0.32230727
C        8.81682758      10.31731904      15.19641771       1.14971449      -1.00228352      -0.54093408      -0.62300169       0.39478075      -0.02331936
C        2.37497668       9.52923778      14.66219083       0.91990671      -0.91344122       1.08315473      -0.21492463       0.58149457       0.75770352
Pb       5.68717581      13.51162617      24.77977435      -0.21447309      -0.07988039      -0.41533085      -1.02414878      -0.20628647      -0.28019998
Pb       5.80926459       6.99273406      24.82497620      -0.12207902      -0.03106360      -0.20010997       0.95207574       0.29932518       0.89316834
Pb      24.96064312       7.09116417      18.14258339       0.15516814      -0.07239716       0.07876118       2.21127711      -0.50209442       1.33392982
Pb      25.08830642       7.17971712      24.66331259       0.01256766      -0.03105399       0.04065796       2.32907653      -0.70254258      -0.72803386
N        2.39872181      10.54520768      22.16387638      -0.61251210      -1.12293105       1.07471605      -0.45012461       0.55738658       0.03650176
N        8.93456146       3.43090842      16.05850824      -0.36133571       1.28496616      -0.83562740       0.41555805      -0.03534147      -0.16000753