768
Lattice="38.16606883306081 0.7708101007676014 0.3666927628512125 -0.3296249581406084 22.360322942442707 0.08526197331993467 -0.1800967783537251 -0.06462717078727989 19.468533293292147" Properties=species:S:1:pos:R:3:forces:R:3:momenta:R:3 energy=-3338.5948221372064 stress="0.0 0.0 0.0 0.0 0.0 0.0 0.0 0.0 0.0" pbc="T T T"
I       17.19403059       6.66555671       4.26083604       0.11878845      -0.14244007       0.10948039      -0.28963240       0.34025408       1.66561862
I       18.09809732      10.22436892       1.83090694      -0.15959014       0.21291169       0.17544190       0.73819721      -3.08226200      -0.19457455
I        7.95873481      12.37944495       4.45626520       0.07424039      -0.25886382      -0.13863041      -1.50651548      -0.54326650      -1.94378410
I        7.65635376       4.71376296       1.87966747       0.02798792       0.04996552      -0.13561265      -2.87555858       0.50696432      -0.42042436
I       15.85499375       3.12151210       1.76396800      -0.17909347      -0.18096422       0.08479297      -0.44894314       0.15661828      -0.72789192
I        0.22761637      13.86445476       4.37713242       0.24238321      -0.17371131      -0.04553433       0.57983733       0.40519244      -1.07294781
I        9.84963526       8.56370341       2.29063910       0.06942814      -0.07440527      -0.24315120       1.70389379      -0.83217972       0.60489847
I        6.16904643       8.45252759       4.30391892      -0.48889805      -0.09046752       0.10967947       0.87250632       0.20707818       1.13467106
I        2.32689893       6.37269998       1.86683851      -0.22746743       0.00557315      -0.09293829       0.32535319       0.10391946       1.15347546
I       14.20975252      10.66202195       4.35421473      -0.25349955      -0.19209540      -0.09001942      -0.54305333       0.28482607      -0.25320657
I        4.46729727      12.13221460       1.45742836      -0.06018357      -0.05666381       0.17337598      -0.02165889       0.93153018      -1.77441374
I       11.35849275       4.83615841       4.42790888      -0.00850294       0.09715323       0.06541766       0.82017331       0.76816563      -0.91534103
H        5.35211498       5.10714800       3.59491647      -0.17287359       0.08530806      -0.51590957       0.02273059      -0.00695870       0.11491013
H       11.68175961      12.25924476       2.89613364      -0.32561936      -0.39037999       0.35319118       0.02169018       0.08802188      -0.07384265
H        3.19924587       9.90355727       3.63116061      -0.29477497      -0.36909887       0.06091913      -0.13662559       0.16966210      -0.25999972
H       13.93500717       6.62415192       2.94950805      -0.17010593       0.01144226      -0.41610923       0.02728535      -0.00825822      -0.00858042
H        3.69066107       4.34897846       4.22080048       0.13518925       0.38493569      -0.37603721      -0.09520742       0.10427263      -0.00024699
H       11.13540382      12.09250444       1.08026360       0.11339435       0.24513505       0.44088336       0.07548735      -0.05827623      -0.04077394
H        1.46562855      10.58556625       3.14402646       0.24583353      -0.13653486       0.38299724       0.06178473      -0.18184204      -0.11090442
H       13.15230927       7.42070812       1.26936534      -0.51318990      -0.16379546      -0.00066971       0.01029750       0.09992947      -0.13054248
H        4.98183900       4.95242950       5.36574431       0.09140553      -0.29782070      -0.28340177      -0.03841310      -0.01655704       0.02016474
H       12.50281906      13.29842959       1.61049574      -0.07645405      -0.33208374      -0.22024285       0.02384640      -0.05948663       0.01514595
H        2.07172843      10.58732607       4.93406252      -0.00630982       0.17484610       0.23784660      -0.19700874      -0.08861991      -0.00257488
H       14.73188604       6.17341402       1.13862092      -0.12580199       0.10477758       0.17483907       0.01902021       0.07127266      -0.12884684
H        4.95379618       2.34694674       5.13214109       0.13447595      -0.07004723       0.62190606       0.09562479      -0.04508240      -0.22100953
H       10.43267026      14.44797461       1.13742901      -0.22260756      -0.02073874       0.18932693      -0.05415924       0.03970791       0.23829996
H        1.58859907       8.25425601       5.15261266      -0.07714784       0.01676928      -0.40163106       0.17003949       0.20939208       0.03960139
H       14.82964882       8.81795349       2.64181199      -0.19237084       0.16826555       0.42813658      -0.10067271      -0.05467809      -0.16655585
H        6.46858007       3.07439755       4.55164518      -0.37840395      -0.49740817       0.21930521      -0.16335826       0.03832941      -0.06798477
H       10.80478200      14.55636297       2.80642145       0.38211596       0.19603610       0.20907247       0.03415133      -0.02985309       0.03962132
H        1.41332142       8.06051276       3.45507469       0.44089249      -0.33429961      -0.18124013      -0.20272212       0.07313821      -0.04072297
H       15.02088345       8.71810185       0.99898590       0.06976577       0.07528643       0.07074145      -0.04303549      -0.07142026      -0.05447960
H        5.18391329       2.58184729       3.51088467       0.14669183      -0.46065562      -0.40964993       0.12925120       0.09504680      -0.02249246
H        9.54933365      13.54108898       2.40295671      -0.87982635      -0.22860670      -0.43114947      -0.04035017       0.10533379       0.08308310
H        0.30675614       8.95025311       4.25832286       0.11531342      -0.04391365       0.30381998      -0.05848522      -0.05314482      -0.04919198
H       16.05915331       7.88867146       2.02215705       0.49639869      -0.20118508       0.12528006      -0.17612327      -0.11090503      -0.06972483
C        4.80720722       4.47832916       4.36842408      -0.16797267      -0.83805988       1.41656777      -0.17311379       0.28863298      -0.70375459
C       11.50714215      12.78900727       1.89022661       0.78802383       0.24540082      -0.43454003      -0.38575355      -0.90593216      -0.19153754
C        2.08444766      10.02064586       3.98307495      -0.12582728       0.59058029      -0.79637266       0.05118347      -0.67625092      -0.03902768
C       14.14939288       6.99707687       1.79512671       0.45195530      -0.30886001       0.53046099       0.15492368      -0.05223953       0.01430276
Pb      37.72538018       5.50207404       2.33578176       0.25195816       0.00164720      -0.33184425      -0.11678219       1.67475518      -1.77874728
Pb      16.83253483      12.21436593       4.33898430       0.02428576      -0.05556113       0.18178227       1.48198046      -2.65989578      -1.22189666
Pb       6.99202307      10.25091152       1.84190852       0.12708614       0.36933603      -0.02557800      -0.80455295       0.84032801      -2.25980374
Pb       8.62886730       6.51816665       4.50154700       0.30599171      -0.10290544      -0.11478172      -1.50010591      -1.52902256      -0.93483582
N        5.40404538       3.02910562       4.42780845       0.13584856       1.61599074      -0.89662643      -0.51009490       0.30389040       0.21965620
N       10.50600355      13.88082235       2.05090200       0.14798547       0.14119816      -0.19009018       0.65946275       0.06598547       0.04304562
N        1.32299700       8.74183560       4.24090146      -0.35189891       0.07855681       0.32003878       0.33762923      -0.12840493      -0.21060765
N       15.07603958       8.14861229       1.88796070      -0.08357075       0.40076346      -0.76449111      -0.99374138       0.59997380      -0.26484753
I       17.23828617       6.38685893       9.25274604      -0.12062769       0.06278039      -0.23677189      -1.91405426       2.81898056       0.16884430
I       17.73697083      10.28878220       6.86155360      -0.09180668       0.11988479       0.17224478      -1.03710996      -1.55276429       1.03897796
I        8.14392904      12.03067492       9.35259523      -0.04527534      -0.03346459      -0.00709587       0.21994841      -2.04739450       0.79129164
I        7.56398337       4.74440765       7.07683542       0.03531537      -0.14034705       0.02699148       0.12068993      -0.96572767      -0.50572769
I       15.53895975       3.13990052       6.51015719       0.18735919      -0.16287954       0.07379336       0.47536648      -0.05706616       0.62044323
I        0.27216230      13.89885465       9.36294608       0.08101492       0.05217770      -0.15623479       0.64590307       1.38173639       0.48316251
I        9.68287466       8.66534785       6.76213085       0.10233260      -0.19538777       0.16548173       0.09217086      -0.15180739       1.90306037
I        5.93993667       8.25376894       9.27236983      -0.10040698      -0.18702947      -0.14747019       0.03587647       0.42324281      -0.57870854
I        2.09586239       6.33767140       6.67695644      -0.00221188       0.05957924       0.13985914       1.81654354      -3.32774019       0.32271246
I       13.67850481      10.58568864       9.18190087      -0.00461942      -0.12539205       0.16336172      -1.34820752      -3.05048318       1.40215174
I        4.04110267      11.89151478       6.82865633       0.27370402      -0.10125074      -0.09211190       1.10469664      -1.01547579      -1.83352179
I       11.66942893       5.00934310       9.45412004      -0.19872113      -0.15600010      -0.13356716       0.88971391       0.32196023      -1.41864864
H        3.09854143       3.67857470       9.41737521      -0.53925659      -0.24767325      -0.28736646      -0.02367983       0.02967776      -0.13801464
H       10.63069623      11.86705155       7.38430221       0.20905649      -0.48782586       0.00332365       0.09443278      -0.10091581      -0.06496450
H        1.27847226      10.56371330       8.86927729      -0.53850553       0.62169283      -1.16328314      -0.17248396       0.07731675       0.06799366
H       14.33059852       6.35505016       5.75654007       0.22722735      -0.11366924      -0.61192962       0.07417040       0.05991162       0.03988768
H        4.39206928       4.56909177      10.27830322      -0.09572481      -0.95258594      -1.16232451       0.09552888       0.04194845       0.00885774
H       11.12894634      12.33115114       5.57131959      -0.27372383      -0.20726899       0.06867825      -0.09407950      -0.09623973       0.04346856
H        1.45679463      10.18430435      10.60378048      -0.02266027       0.46719238       0.45839192      -0.07273448       0.03673773      -0.14887528
H       13.54236982       6.43352040       7.51041645      -0.03717242      -0.19894291       0.23259355       0.08381271       0.03580940      -0.07202549
H        4.30177025       4.66923382       8.48563568      -0.26837036       0.28393724      -0.37147152       0.03312819       0.06978897       0.06664560
H       12.10515748      12.96574494       7.01564430       0.83013480       0.28917279       0.18029060      -0.07951131      -0.00963405      -0.13676702
H        2.88026793       9.88295480       9.37254994      -0.32043982      -0.68780370       0.14945677       0.11395923      -0.03669701       0.07755320
H       12.77890839       7.44803116       6.04672000      -0.21930289      -0.17876286       0.00285707      -0.05508741      -0.05709872      -0.03455524
H        6.01618677       3.16449418       9.24178929       0.35431832      -0.10105180      -0.09930759      -0.05413618      -0.03710641       0.04589489
H       10.24560032      14.24578561       7.77906932       0.23053460       0.41270200       0.91689239       0.05082991      -0.08457355      -0.16909489
H        1.40193787       7.70491380      10.19477750       0.09093239       0.54543493      -0.59305962       0.00845626      -0.15132001       0.10747195
H       14.39714868       8.73794947       7.68225398      -0.47042498       0.34640627       0.41496050       0.00354562      -0.01340901      -0.15612670
H        4.93862652       2.30793813       8.22684745      -0.03425097       0.25259765       0.05605654       0.05994074       0.15172644       0.20725995
H        9.20953732      13.58522461       6.57148611       0.71990480       0.18017155      -0.08887132       0.01674338      -0.11672639      -0.15231541
H        1.32825378       8.03628388       8.50312685      -0.38949476      -0.06308102       0.20740653      -0.12897024      -0.20355689      -0.06659255
H       14.89450916       8.80972283       6.02025406      -0.11301064       0.29093640      -0.05904744       0.04423431      -0.16380779       0.19017067
H        4.86657308       2.10528928       9.87247383       0.02397466      -0.22777579       0.35749532       0.03916780       0.10633272      -0.03310710
H       10.54784746      14.66521511       6.18961436      -0.02936912      -0.19621065      -0.31777935       0.00082703       0.01058440      -0.01148865
H        0.03001128       8.56674004       9.61013013       0.71359618      -0.43764637      -0.15434190       0.02228016       0.06818374      -0.07498912
H       15.73971335       7.84761535       7.19991624      -0.45473706       0.01593944      -0.02284020       0.07401284       0.11068338      -0.07883463
C        4.12368503       4.00115567       9.32164116       1.02330681       0.96319994       1.35493850       0.22329625       0.38241111       0.71540891
C       11.08069986      12.66427210       6.69056983       0.16785912      -0.72179141       0.04408690      -0.51534890      -0.14132809       0.33919861
C        1.72147658       9.84655620       9.57681799       0.36062965      -0.71200750       0.97357568       0.55940013       0.05929467      -0.21467409
C       13.77802186       7.00019649       6.50567472       0.25907036       1.17996896       0.83646060      -0.20927003       0.44238786       0.16342389
Pb      37.74658207       5.25407343       6.96244381      -0.11597113       0.19910809       0.04137655       0.96618246      -1.25220599       1.28112984
Pb      16.33236646      12.25489396       9.25495841       0.07625708       0.06006605       0.00384753       1.22806538      -1.05664697       0.66359212
Pb       6.99205696      10.30629896       6.98518552      -0.26863600       0.27834537      -0.15630472       1.36939244       0.50721919       0.60410328
Pb       8.91351450       6.53174036       9.38467085       0.08283024       0.10428836      -0.06527364       1.52159718       1.82498223      -0.08644837
N        5.04650554       2.83360068       9.14254311      -0.22936190       0.00161975       0.20580745       0.25639739       0.43496693      -0.24544357
N       10.23210594      13.82476349       6.82595821      -1.62205201       0.65277171      -0.82046275      -0.29410742      -0.39763529       0.20009906
N        1.08483651       8.45199175       9.46462555       0.26335149       0.06731449       0.03136963      -0.24606058      -0.21824821      -0.12721302
N       14.74515141       8.16830547       6.88430194       0.93578192      -1.31701474      -0.78042525       0.37836333      -0.20220015       0.35807642
I       17.01296534       6.39933314      14.17561941       0.08051349      -0.01574043      -0.02155956       1.01565875      -0.99644214      -0.76854763
I       17.77604441      10.45673123      11.54467413      -0.13789226      -0.07942430       0.16592583      -1.49249209      -0.38509269       1.59129212
I        8.16225135      11.94659372      13.97400707      -0.05872530      -0.11984902       0.28377573       0.35586275       1.05887094      -1.30089449
I        7.43704093       4.58586890      11.58062300       0.13369116       0.12140343      -0.01006232      -0.63474196      -0.45579778      -1.54264922
I       15.58300009       3.06453570      11.39892408      -0.15302890      -0.13523022       0.30936200       2.80507304      -1.50710594      -1.01433058
I        0.11356923      13.79365332      14.01200296      -0.17194250      -0.08658640      -0.08965206      -0.64889200       2.47136859      -0.74484142
I        9.92543745       8.42533832      11.92512633      -0.09438904      -0.06453274      -0.12603418       1.98159749      -0.53420012       1.75470839
I        5.71416644       7.95671671      14.10061488       0.15907695       0.13353243       0.00618862       2.59847648      -0.49003255      -0.83686840
I        2.12752191       5.82663044      11.81989887       0.00627122       0.60307881      -0.03908802      -0.24565075       2.05088430      -0.71468081
I       13.64157513      10.47809468      14.13064105       0.17188767       0.14504991       0.04275629       0.15813667       0.27492589       0.59665193
I        4.41267060      11.82070408      11.59925018      -0.16126059       0.03549389      -0.00744102      -0.05805996       1.04949494       2.08598266
I       11.67326307       4.87224738      14.24358270      -0.49476468       0.18287064      -0.27170483       1.14749006       1.05869173       0.90338061
H        4.45124341       4.85670709      13.31935540      -0.00435578      -0.08000955      -0.64917424       0.23364291      -0.08521535      -0.07843598
H       10.68866465      11.68859299      12.64019129       0.31615407       0.39066499      -0.11069028      -0.14000757      -0.01360890       0.06046823
H        2.84376446       9.03395273      14.38881317      -0.00605715       0.04660686      -0.01124629       0.09598004       0.06435426      -0.23177402
H       14.20550399       6.38248288      12.44919628      -0.00979948       0.00664498      -0.21880045      -0.14851265      -0.13126065       0.01309064
H        3.38086143       3.98872389      14.52509084       0.23586437      -0.43088534      -0.32456883       0.11863345      -0.01440346       0.14518053
H       10.38982219      11.63219447      10.86311304      -0.00701474      -0.22946766      -0.18015629       0.18503695      -0.09276724       0.23770859
H        2.03594379      10.42386904      13.39286660      -0.14425636       0.23952366      -0.19270097      -0.01954137      -0.08924015       0.04625507
H       12.96053643       7.23452889      11.52377043       0.09521673       0.24734857      -0.20836271       0.00204531      -0.00018373       0.01518311
H        4.94125076       4.77454262      15.02803323       0.37172838      -0.48950278       0.06333655       0.08350578       0.04073036      -0.10032913
H       12.18165634      12.19618174      11.41395468      -1.30529799      -0.69806107       0.39819529      -0.05212419      -0.08762561      -0.11098995
H        1.70856417      10.15894439      15.16667508      -0.46286713       0.33424871       0.63739318      -0.06805123      -0.14195211       0.08861056
H       14.40442773       6.49348988      10.64637539      -0.14569504       0.48910568       0.55657208      -0.04826717      -0.02447396       0.11654821
H        5.34086392       2.37746590      14.73085507       0.17695732      -0.42817879       0.42244871      -0.08379190       0.20433572      -0.05772503
H       10.76114534      14.22060922      10.89603548      -0.10482190       0.24257567      -0.47750360       0.05390175       0.04270664       0.12927714
H        0.52018497       7.85817656      14.57850518       0.23314311      -0.13828015       0.84278693       0.12581424      -0.10243054      -0.11461854
H       14.50164635       8.88917162      12.60585200      -0.19909433      -0.43045065      -0.20464843      -0.08247580      -0.00430368      -0.10591873
H        6.29695678       3.13673149      13.44185106       0.19657690      -0.01145557       0.11571513      -0.08857346      -0.06056061      -0.03872073
H       11.15105475      14.29715327      12.56246601      -0.37275928      -0.11021447      -0.59260241      -0.17881308      -0.09445026      -0.13550960
H        0.98576476       8.18803228      12.97986958       0.02474099      -0.59857866      -0.41397326      -0.08933337       0.01806560      -0.05926316
H       14.81410096       8.95813933      10.94753383      -0.11643652      -0.68337892       0.53793360      -0.02570740      -0.02996189      -0.05754264
H        4.74870170       2.33284611      13.07542278       0.17703805       0.20764278       0.35851025      -0.13375776      -0.01364820      -0.08387920
H        9.40715685      13.85861036      12.07070672       0.68553076       0.13311417      -0.20232154       0.09400920       0.05064026      -0.12639202
H       -0.20004456       9.21497454      13.56300437      -0.73888108      -0.12295763       0.22569592       0.06871994      -0.06179855      -0.10545872
H       15.82680090       8.12276792      11.98703732       1.30748096      -0.54733859      -0.04290328       0.13099978      -0.00348507       0.17770129
C        4.48115596       4.16589003      14.18585761      -0.85332859       1.67944760       0.72281978      -0.33644550       0.01732948      -0.05656643
C       10.98019022      12.19023564      11.69264800       1.28376755       0.36716958      -0.57593839      -0.27844702       0.00970131       0.22621985
C        1.88458460       9.65090351      14.23995035       0.87269663      -0.71887944      -0.38420837      -0.06591965      -0.10793756       0.05222004
C       14.04024831       7.02667964      11.56815278       0.30164794      -0.56922005       0.10168368      -0.59541782      -0.08322429       0.04422286
Pb      37.68621641       5.10257585      11.91097716      -0.30897975       0.05922197       0.08646893       1.31726619      -0.37821196      -1.51157402
Pb      16.43938992      12.07170477      14.18126664      -0.14078879       0.11757538       0.20292240      -1.73382194       1.07596330       2.19072656
Pb       6.86878006       9.99608598      11.74338034       0.27907807       0.14935366       0.03297916      -0.79816862      -1.04246239      -0.49992711
Pb       8.69824220       6.37625344      14.11969088       0.44585843      -0.08791063       0.09437235      -1.01699908      -0.89798039       1.36755415
N        5.27967087       2.95682479      13.85163602      -0.33984138      -0.80854073      -0.70171614      -0.16469625       0.16348346      -0.30167172
N       10.53438343      13.71430449      11.76350879      -0.28487207      -0.08711896       1.72122643      -0.29318808       0.68352283      -0.35034612
N        0.70873869       8.66581160      13.84765511       0.32691084       0.71653014      -0.77671029      -0.24951111       0.55752863      -0.56289600
N       14.84338143       8.27926979      11.78929291      -1.26393999       1.50598098      -0.72899978      -0.06111350       0.30380049      -0.32582214
I       17.39444028       6.79375235      18.81513453      -0.21209921      -0.16206637       0.02065565      -0.89800488      -1.23124405       0.56548077
I       17.73695657      10.42469352      16.67224431      -0.02784481      -0.02935869      -0.11285119       0.45398303      -1.34322900      -0.62065063
I        8.16340455      12.06208647      18.91227061      -0.10625774      -0.32720463      -0.21480078       1.09088426       1.11793659      -1.01252825
I        7.53724428       4.66496055      16.58014627       0.06134225       0.00723387       0.23369855       0.10458575       0.47808871       0.68092591
I       15.57259572       3.07393088      16.52605155      -0.07619321      -0.04377577       0.06902166       1.36781397      -0.88804419       1.76840037
I        0.21543711      13.73185048      18.81984411       0.13931843      -0.11850656       0.05950908      -0.67908515      -2.03232806      -1.53750788
I        9.73579570       8.50128948      16.43571421      -0.02319462      -0.12341342      -0.00259396      -1.09310142      -0.06476870      -1.72174662
I        5.82174952       8.14014755      18.92005396      -0.06724016       0.16224896       0.06669282      -1.70493318      -1.25226604       2.62404067
I        1.99060611       6.35468267      16.27782643      -0.05471222       0.03185547      -0.14240683      -0.84513165       0.18193153      -2.19424518
I       14.02968514      10.45112373      18.97252104      -0.61168716       0.08775999       0.25181306       1.65886147      -1.25450351       0.31892294
I        4.16633844      11.67572335      16.36592797      -0.08380609      -0.02297411      -0.15852119       1.11603935      -0.27457763       0.47813359
I       11.46291532       5.17201816      18.99237322       0.27713652      -0.08237768       0.07171258      -0.09771039      -0.63318170      -0.23796256
H        3.15931478       3.27022705      18.52649086      -0.36971332       0.12164550      -0.18172418       0.03867891       0.14139546      -0.08505748
H       11.18609531      12.13711165      17.64153159      -0.12460520       0.13061376      -0.43845084      -0.05519593       0.00395047       0.05979756
H        1.29663769      10.46551755      17.94821141       0.10321333      -0.06294913       0.10058791      -0.08978112       0.03255614       0.00695933
H       14.12415171       6.70057812      15.17973382      -0.41039743      -0.22728467       0.19524622       0.00018357       0.35543822      -0.00271472
H        4.00720428       4.47496738      19.68895284      -0.16307142      -0.47137847      -0.71662716       0.03505520       0.00362920      -0.04774203
H       11.15442682      12.20859125      15.79314051      -0.02877157      -0.38174043       0.13339478      -0.05914835      -0.15083888       0.07023343
H        1.25649072      10.35932011      19.73916484      -0.29170652       0.42063631       0.45584653       0.03936217       0.14726686       0.13230015
H       13.84491025       6.19935297      16.96909580      -0.28596305       0.44527964      -0.25274379      -0.05131713      -0.07850764      -0.07238097
H        4.41802135       4.51674335      17.88135882      -0.33209381      -0.32687682       0.33856532      -0.01583764       0.02673603       0.02173847
H       12.25293698      13.27221800      16.72040117       0.42942157       0.01615371      -0.03742404       0.15100163      -0.23371765      -0.00313924
H        2.63475715       9.67581823      18.89418649       0.60949877      -0.00873124      -0.22471590      -0.16666962      -0.10368467       0.27140398
H       12.73834435       7.46431595      16.10091503      -0.23091968      -0.31616406       0.06740830       0.02684773       0.02073976      -0.06024740
H        6.22224247       3.24633086      19.01659169      -1.20750981       0.13747327       0.03451570       0.13394791      -0.08387292      -0.09311190
H       10.46127704      14.49268822      17.52290327       0.41288966       0.85146737       0.16810679       0.04664543      -0.03352915      -0.04612431
H        1.07987915       7.93672644      19.57578219      -0.15701820      -0.24625809       0.09394817       0.02641714       0.07997381      -0.09871377
H       14.13451249       8.75685752      17.39526874       0.52449891       0.37642955      -0.57488611       0.07603860      -0.14117297      -0.22043394
H        5.34601220       2.07376950      18.11462075      -0.44233979       0.67900956      -0.07325178      -0.04098535      -0.01520682       0.08329119
H        9.22479789      13.53682212      17.02139753       1.03121507      -0.11646953      -0.27378082      -0.02077351       0.00093846      -0.00709662
H        1.18134153       7.97832900      17.86109956       0.04762865       0.17382403       0.75242782      -0.05179060       0.02068784       0.15396419
H       14.83468617       8.84339481      15.65307204      -0.05724589      -0.12575137       0.85043816       0.06394968       0.05110285       0.17741078
H        5.10962377       2.22569436      19.70479320      -0.43521289      -0.28553999       0.99937884       0.21593912      -0.19316589       0.07243790
H       10.16737485      14.43467791      15.78616118       0.22463537      -0.48486243       1.07684829       0.02252976      -0.10204724       0.08067827
H       -0.13510841       8.68338901      18.59993075      -0.46863648      -0.28006909       0.33001486       0.19286382       0.11152535      -0.21297890
H       15.70823350       7.95438987      16.99993045      -1.56386826       0.32736534      -0.00344076       0.04366306      -0.15644694       0.05066702
C        4.10994407       3.84358382      18.71814071       0.85198922       0.74774367       0.44462313      -1.04404610       0.72715963      -0.46517363
C       11.28021457      12.76046078      16.72773344      -0.70000651       0.81770513      -0.14394223       0.74463029      -0.29134235      -0.13616742
C        1.56824537       9.86689577      18.82771681      -0.15902351      -0.71765360      -0.24970699       0.39496329      -0.10262873       0.42274712
C       13.74895699       7.04779589      16.20048364       1.21460739       0.01595133      -0.50864485       0.31647207      -0.42634326       0.53410807
Pb      37.52638522       5.43045943      16.71562169      -0.06709022      -0.13165783       0.30239508      -1.09604341      -0.93112557       1.81857492
Pb      16.51277477      12.20810112      19.25196953       0.29088005      -0.00661758      -0.47034346      -0.73263175       0.22601366       0.04749685
Pb       6.79614126      10.00228222      16.42932983       0.23281388       0.24906034       0.13073983      -0.71435729       0.33508007       2.55674230
Pb       8.79360434       6.63283801      19.06393814      -0.21719449       0.00654769      -0.06131008       1.82011911      -0.83441379       0.02853206
N        5.23071751       2.84361214      18.90040125       2.26990744      -0.50408973      -0.88078353       0.38179934      -0.38542960       0.30417438
N       10.23276532      13.87466607      16.74052193      -1.03308179      -1.00183697      -0.56643749      -0.40431052       0.14626531      -0.42447924