768
Lattice="31.69945668710882 -0.05318654843770361 -0.36351599514761185 0.040002385871756 30.414649832433703 0.5117498230958147 0.4104475048070117 -0.22194636651643873 17.44856456336718" Properties=species:S:1:pos:R:3:forces:R:3:momenta:R:3 energy=-3350.802725415204 stress="0.0024023861124686853 -2.2969389418938464e-05 0.00031300960865048456 -2.2969389418938464e-05 0.003937284305842747 4.123178037405309e-05 0.00031300960865048456 4.123178037405309e-05 0.0034602329643682013" free_energy=-3350.802725415204 pbc="T T T"
I        6.65107432       2.81163525       2.78502457      -0.00001121      -0.00000928      -0.00003224       0.65755992       1.32702390      -0.44945106
I        1.04081677       7.80590242       1.86554980      -0.00004558       0.00000916      -0.00000134       0.27366587       1.17392958      -2.06097086
I        6.77760763       2.92205413       7.14205074       0.00000014      -0.00000295      -0.00003522      -0.74420257       0.18299277       1.85533976
I        1.11926000       7.58457506       6.23284795      -0.00000274      -0.00000065      -0.00003580      -1.11722625       1.72224541       0.94150822
I        5.00946602       6.51270611       3.98650149       0.00002885      -0.00002633      -0.00001907       0.06850126       0.82328099       1.55223349
I        2.88741913       3.99384419       9.38840611      -0.00001543       0.00002597      -0.00001568       1.44341885      -0.59236341       0.27413307
H        3.33309616       4.15953722       5.28585518      -0.00002090      -0.00003022       0.00000258      -0.07958071      -0.11283486      -0.06227225
H        5.61165918       7.64815657      17.53840474       0.00002058       0.00001563      -0.00001760       0.12676460       0.12692435      -0.00804583
H        1.78068812       3.58279743       5.98343449       0.00003153       0.00000990       0.00001377      -0.16131681      -0.02608537       0.12676906
H        6.32115238       6.81285402      16.11566894       0.00004401       0.00000628      -0.00000085       0.16436447      -0.00877526      -0.05650949
H        2.49044619       2.74759033       4.56078698       0.00000964      -0.00002421      -0.00006925      -0.05438460      -0.04646315       0.08029720
H        4.76880307       6.23626319      16.81348427       0.00002479      -0.00001464       0.00001775      -0.16217021      -0.01224815      -0.20033374
H        2.11920973       4.78373235       3.26361374       0.00001169      -0.00005309       0.00001011      -0.10317850       0.05930328       0.05119478
H        7.41420530       6.17283287      18.20508350      -0.00000801       0.00001296      -0.00001516       0.17498612       0.02331920       0.07736128
H        1.44516334       5.55530087       4.60729994       0.00000952      -0.00000537      -0.00000311      -0.03048495       0.16767584      -0.00555153
H        6.65674091       4.84036876      17.49184612      -0.00001159       0.00000252      -0.00000708      -0.13639768      -0.16429649       0.00626948
H        0.68787254       4.22280107       3.89392166      -0.00002482       0.00003463      -0.00000508       0.04458198      -0.29793944      -0.05110185
H        5.98290434       5.61204766      18.83558388      -0.00005892      -0.00001325       0.00002260       0.09541735      -0.09762131       0.08480123
C        2.35946766       3.71172617       5.06374159       0.00001460       0.00002745       0.00004721      -0.09557078       0.06443943       0.20588926
C        5.74249945       6.68400039      17.03545028      -0.00004681      -0.00003343       0.00003864       0.09038945      -0.89056101       0.03290585
Pb       4.80288629      16.59748237       9.52899513      -0.00000074      -0.00003365      -0.00000328      -1.27761567      -0.40157337      -0.78688678
Pb       0.84045586      16.66828776       9.57578879       0.00002396       0.00001047       0.00002839      -0.14178898       0.95616321      -1.66788447
N        1.60983616       4.62990146       4.15480474       0.00000602       0.00000499       0.00000579       0.32871783      -0.49670925      -0.41788553
N        6.49217976       5.76579656      17.94432169       0.00003897       0.00002471      -0.00002164       0.34573017       0.67269667       0.64170383
I        5.08693666      10.51595804       6.23496955       0.00003363       0.00001745       0.00003581       0.03152771      -1.07945693      -1.06130797
I        2.83006723      15.19788674       7.39581324      -0.00001085      -0.00000259      -0.00000422       1.26064401       0.43359131      -0.86880021
I        5.00735594      10.43689122       1.86394161      -0.00003610       0.00002466       0.00000576      -1.66345381      -1.15141605      -1.95960626
I        2.70437566      15.38795444       3.04254559      -0.00000789       0.00001925       0.00001800       0.73815366      -0.51536992      -0.65652480
I        6.65606920      14.16581859       0.78720197       0.00001773       0.00001372      -0.00002763      -0.60943886       0.91411921      -0.16937350
I        1.05557905      11.65901577       4.11932737       0.00000639       0.00002668       0.00001031       0.39966557      -0.56226200      -0.20937118
H        1.44992729      10.31110948       8.89383887       0.00002891      -0.00001501      -0.00002612      -0.12965480      -0.05736215      -0.00306141
H        5.75690546      14.51373718       6.12638342      -0.00001025       0.00002487       0.00000872      -0.20166078       0.01850769      -0.05419810
H        0.60827954      11.75047210       8.22370680      -0.00004046       0.00001530       0.00005355      -0.09305759      -0.00840222      -0.14955962
H        7.30882334      13.96326724       5.40689962       0.00004314       0.00001851      -0.00001241      -0.00629248       0.04086908       0.04395891
H        2.16034447      11.20013981       7.50444107       0.00000189      -0.00000805       0.00008447       0.17094714      -0.17906877       0.01385977
H        6.46719454      15.40269414       4.73687682      -0.00002107      -0.00000276      -0.00000556      -0.26803160      -0.00998434       0.17968850
H        3.25268783      11.75833811       9.61887587      -0.00002124      -0.00001497      -0.00002629      -0.02026712      -0.02451235       0.03839093
H        6.09543840      13.41748689       3.36203029      -0.00003159      -0.00002009       0.00000792      -0.04027814      -0.14370276       0.09879831
H        1.82136150      12.29626853      10.26880079       0.00005096       0.00002495      -0.00004950       0.17570145      -0.01687447       0.00051219
H        4.66423861      13.95560765       4.01207069      -0.00001865       0.00000771       0.00000733       0.01054750      -0.09309771      -0.05441084
H        2.49730426      13.11760704       8.95577185      -0.00001099       0.00003013      -0.00004603      -0.10414876      -0.11660863       0.02580186
H        5.41954945      12.59628990       4.67517642       0.00001601      -0.00002564      -0.00002500       0.05067902       0.10278324       0.13279610
C        1.58165059      11.29389592       8.42850103      -0.00002137       0.00004527      -0.00003263      -0.65644121       0.02849955      -0.22747181
C        6.33546045      14.41992354       5.20224515      -0.00001163      -0.00001027       0.00001845       0.17762629      -0.44825534       0.22014567
Pb       3.11406482       9.11643030       4.10180564      -0.00001692      -0.00000493       0.00000979       0.50235362      -2.98310831      -0.25325666
Pb       7.07649052       9.04555438       4.05491954       0.00001394      -0.00002363       0.00002653       0.27041463      -1.33016492      -2.20202378
N        2.33129128      12.17588257       9.37259406      -0.00000992      -0.00004143       0.00003181      -0.17945902       0.50403019       0.35502517
N        5.58561372      13.53797640       4.25828021       0.00006184       0.00002507      -0.00002169       0.26114256       0.07042405      -0.73901384
I       14.57580534       2.79837710       2.69400772      -0.00001037      -0.00003582      -0.00001190      -0.62464760      -1.75141364      -0.05302997
I        8.96559385       7.79256218       1.77474185       0.00002620       0.00002296      -0.00000347       0.99521380       0.79737032       0.13002143
I       14.70247141       2.90861259       7.05100955       0.00003171       0.00003969       0.00001759       0.13458505      -0.77086857       2.29328824
I        9.04419158       7.57122826       6.14202789      -0.00002266      -0.00000855      -0.00001009       0.06525057      -0.05922565      -0.01658986
I       12.93437899       6.49938129       3.89555472       0.00000915      -0.00003719      -0.00001144      -1.76351445       1.53770725       0.73425947
I       10.81230807       3.98050845       9.29740536       0.00001701      -0.00000370       0.00001143       2.41127902      -0.42878318      -1.37568132
H       11.25811828       4.14593262       5.19485498      -0.00001097       0.00005891       0.00000106      -0.16032820       0.15511033      -0.07036670
H       14.24621381       6.79954027      16.02482134      -0.00000040       0.00000987       0.00000133      -0.17666107       0.21679354       0.16327208
H        9.70567794       3.56907297       5.89225967      -0.00001712       0.00001498       0.00003194      -0.26803917      -0.17098801       0.04081622
H       12.69386284       6.22279477      16.72251459       0.00000871      -0.00001732       0.00001576      -0.01999754      -0.18019943       0.00079705
H       10.41544093       2.73420770       4.46940680      -0.00003201       0.00000886       0.00004027      -0.06546016      -0.16237187       0.13820689
H       13.53659925       7.63468257      17.44758827       0.00002103      -0.00000551      -0.00000309       0.05070858      -0.13689595       0.01710480
H        8.61289188       4.20965379       3.80294032       0.00000439      -0.00002611      -0.00000122      -0.08939532       0.04871738       0.02874679
H       14.58182030       4.82694503      17.40086038      -0.00004135       0.00002336      -0.00001682       0.13174108       0.00003170      -0.00737673
H       10.04426385       4.77059346       3.17271073      -0.00003414      -0.00003743       0.00001698       0.14591105      -0.09160783       0.01357111
H       13.90792297       5.59850912      18.74462520      -0.00001211       0.00000218      -0.00000187      -0.01942801       0.12565835       0.09180042
H        9.37029413       5.54196559       4.51654499      -0.00001563       0.00001678       0.00000025      -0.06131668       0.11990317      -0.11257720
H       15.33921985       6.15939962      18.11419510      -0.00000260       0.00001295       0.00000348      -0.13453343       0.07999303      -0.02977448
C       10.28447650       3.69821856       4.97261066       0.00000960      -0.00006579      -0.00006789      -0.09418418      -0.02829707      -0.44612019
C       13.66752031       6.67057399      16.94456260       0.00001176      -0.00000822      -0.00002741       0.18878551       0.19895339       0.21942157
Pb      12.72771624      16.58410987       9.43795614      -0.00002538      -0.00000249      -0.00000296       0.33681619      -3.22888773      -1.75216316
Pb       8.76531130      16.65498358       9.48492585       0.00002417       0.00003791       0.00003053       1.40119130       0.96405707      -1.29059961
N        9.53489196       4.61663659       4.06387808       0.00005626       0.00001133       0.00000171       0.47450905       0.23160846      -0.22638684
N       14.41721766       5.75234000      17.85338890      -0.00001105       0.00000613       0.00003279      -0.31087026      -0.84600133       0.39672540
I       13.01188310      10.50266530       6.14404823      -0.00002577       0.00000150      -0.00001860      -0.44710162      -0.24541944      -0.18201259
I       10.75483318      15.18456875       7.30481483      -0.00001508       0.00001176       0.00004165      -2.35814469       0.11114628      -0.56551655
I       12.93209872      10.42353497       1.77297512       0.00004878       0.00003761       0.00001731       1.84588457      -0.37953994      -1.00546281
I       10.62928896      15.37457606       2.95158325       0.00000059      -0.00000788      -0.00001917      -0.19820065      -0.58573124       1.29323360
I       14.58099863      14.15250394       0.69620756       0.00000713      -0.00004955      -0.00002845       2.87779508       0.27301577      -1.10656505
I        8.98050480      11.64569106       4.02853423      -0.00003124       0.00000881      -0.00001419      -1.16514714      -0.96171176      -1.37464514
H        9.37497265      10.29782218       8.80299499       0.00001328      -0.00001206      -0.00001319      -0.07427967       0.14521537      -0.15305854
H       13.68181732      14.50033363       6.03540495      -0.00007244      -0.00001651      -0.00001056      -0.10851449      -0.01125780       0.04032564
H        8.53289821      11.73714388       8.13331726      -0.00000622      -0.00001522      -0.00003523       0.02850189      -0.07120548       0.19102740
H       15.23378175      13.95029482       5.31570313       0.00002431      -0.00003457      -0.00003955      -0.02541625      -0.17716335      -0.02555572
H       10.08484569      11.18716233       7.41351628       0.00000327      -0.00002643       0.00001857       0.17335978      -0.06764839      -0.07506760
H       14.39172268      15.38955868       4.64587980      -0.00000832      -0.00003552      -0.00001103       0.06243302      -0.03106450       0.06408229
H       11.17761208      11.74514610       9.52788247      -0.00003894       0.00001426      -0.00001773       0.18917338      -0.02849596       0.08411098
H       14.02031838      13.40429615       3.27094848       0.00005949      -0.00002324       0.00004486      -0.08758521      -0.21527813       0.04690874
H        9.74637578      12.28303376      10.17803604       0.00000514      -0.00000688      -0.00001364       0.09643301       0.03487002       0.24791713
H       12.58908316      13.94215977       3.92110211      -0.00004224       0.00001802       0.00001152       0.21796963      -0.18372159       0.04626171
H       10.42208802      13.10441045       8.86491261       0.00004052       0.00002231      -0.00001293       0.24312402      -0.05681810       0.14027796
H       13.34464076      12.58294195       4.58411607       0.00001599       0.00000386      -0.00000983      -0.09033434       0.25867300      -0.17084006
C        9.50640470      11.28069401       8.33775529      -0.00007048      -0.00002784       0.00000616       0.64831606       0.09741770      -0.06224821
C       14.26028066      14.40672025       5.11118951       0.00008089       0.00005128       0.00000368       0.07090866       0.03539378       0.20375635
Pb      11.03894337       9.10309640       4.01095133      -0.00001508       0.00000935       0.00002345      -1.40956038       1.65703450      -0.03445801
Pb      15.00132411       9.03228618       3.96394004       0.00004636      -0.00004621       0.00001226       0.27791499      -2.06548475      -2.19305383
N       10.25616883      12.16267519       9.28174902       0.00001120       0.00002289       0.00003222       0.70690049      -0.56962757       0.54990815
N       13.51053807      13.52466626       4.16724265      -0.00003839       0.00002063       0.00003963      -0.93357152      -0.19803241      -0.13105483
I        6.85629807       2.70066207      11.50930685      -0.00001120      -0.00000929      -0.00003224       0.65755992       1.32702390      -0.44945106
I        1.24604052       7.69492924      10.58983208      -0.00004557       0.00000916      -0.00000134       0.27366587       1.17392958      -2.06097086
I        6.98283138       2.81108095      15.86633302       0.00000014      -0.00000295      -0.00003522      -0.74420257       0.18299277       1.85533976
I        1.32448375       7.47360188      14.95713023      -0.00000273      -0.00000066      -0.00003578      -1.11722625       1.72224541       0.94150822
I        5.21468977       6.40173293      12.71078377       0.00002885      -0.00002633      -0.00001907       0.06850126       0.82328099       1.55223349
I        2.68219538       4.10481737       0.66412383      -0.00001545       0.00002599      -0.00001568       1.44341885      -0.59236341       0.27413307
H        3.53831991       4.04856404      14.01013746      -0.00002090      -0.00003022       0.00000258      -0.07958071      -0.11283486      -0.06227225
H        5.40643543       7.75912976       8.81412246       0.00002060       0.00001574      -0.00001752       0.12676460       0.12692435      -0.00804583
H        1.98591187       3.47182425      14.70771677       0.00003153       0.00000990       0.00001377      -0.16131681      -0.02608537       0.12676906
H        6.11592863       6.92382721       7.39138666       0.00004401       0.00000628      -0.00000085       0.16436447      -0.00877526      -0.05650949
H        2.69566994       2.63661715      13.28506926       0.00000964      -0.00002421      -0.00006925      -0.05438460      -0.04646315       0.08029720
H        4.56357932       6.34723638       8.08920199       0.00002478      -0.00001463       0.00001773      -0.16217021      -0.01224815      -0.20033374
H        2.32443348       4.67275917      11.98789602       0.00001169      -0.00005309       0.00001011      -0.10317850       0.05930328       0.05119478
H        7.20898155       6.28380606       9.48080122      -0.00000800       0.00001294      -0.00001514       0.17498612       0.02331920       0.07736128
H        1.65038709       5.44432769      13.33158222       0.00000952      -0.00000537      -0.00000311      -0.03048495       0.16767584      -0.00555153
H        6.45151716       4.95134195       8.76756384      -0.00001160       0.00000253      -0.00000709      -0.13639768      -0.16429649       0.00626948
H        0.89309629       4.11182789      12.61820394      -0.00002482       0.00003462      -0.00000508       0.04458198      -0.29793944      -0.05110185
H        5.77768059       5.72302085      10.11130160      -0.00005892      -0.00001326       0.00002260       0.09541735      -0.09762131       0.08480123
C        2.56469141       3.60075299      13.78802387       0.00001460       0.00002746       0.00004720      -0.09557078       0.06443943       0.20588926
C        5.53727570       6.79497358       8.31116800      -0.00004687      -0.00003355       0.00003853       0.09038945      -0.89056101       0.03290585
Pb       4.59766254      16.70845555       0.80471285      -0.00000074      -0.00003364      -0.00000329      -1.27761567      -0.40157337      -0.78688678
Pb       0.63523211      16.77926094       0.85150651       0.00002396       0.00001048       0.00002838      -0.14178898       0.95616321      -1.66788447
N        1.81505991       4.51892828      12.87908702       0.00000602       0.00000499       0.00000579       0.32871783      -0.49670925      -0.41788553
N        6.28695601       5.87676975       9.22003941       0.00003902       0.00002472      -0.00002159       0.34573017       0.67269667       0.64170383
I        5.29216041      10.40498486      14.95925183       0.00003363       0.00001745       0.00003582       0.03152771      -1.07945693      -1.06130797
I        3.03529098      15.08691356      16.12009552      -0.00001085      -0.00000260      -0.00000422       1.26064401       0.43359131      -0.86880021
I        5.21257969      10.32591804      10.58822389      -0.00003610       0.00002466       0.00000576      -1.66345381      -1.15141605      -1.95960626
I        2.90959941      15.27698126      11.76682787      -0.00000789       0.00001925       0.00001801       0.73815366      -0.51536992      -0.65652480
I        6.86129295      14.05484541       9.51148425       0.00001773       0.00001372      -0.00002764      -0.60943886       0.91411921      -0.16937350
I        1.26080280      11.54804259      12.84360965       0.00000639       0.00002667       0.00001031       0.39966557      -0.56226200      -0.20937118
H        1.65515104      10.20013629      17.61812115       0.00002889      -0.00001482      -0.00002623      -0.12965480      -0.05736215      -0.00306141
H        5.96212921      14.40276400      14.85066570      -0.00001025       0.00002487       0.00000872      -0.20166078       0.01850769      -0.05419810
H        0.81350329      11.63949892      16.94798908      -0.00004046       0.00001530       0.00005358      -0.09305759      -0.00840222      -0.14955962
H        7.51404709      13.85229406      14.13118190       0.00004314       0.00001851      -0.00001241      -0.00629248       0.04086908       0.04395891
H        2.36556822      11.08916663      16.22872335       0.00000189      -0.00000804       0.00008447       0.17094714      -0.17906877       0.01385977
H        6.67241829      15.29172096      13.46115910      -0.00002107      -0.00000276      -0.00000556      -0.26803160      -0.00998434       0.17968850
H        3.45791158      11.64736492      18.34315815      -0.00002124      -0.00001499      -0.00002631      -0.02026712      -0.02451235       0.03839093
H        6.30066215      13.30651371      12.08631257      -0.00003159      -0.00002009       0.00000792      -0.04027814      -0.14370276       0.09879831
H        2.02658525      12.18529534      18.99308307       0.00005096       0.00002495      -0.00004950       0.17570145      -0.01687447       0.00051219
H        4.86946236      13.84463447      12.73635297      -0.00001865       0.00000771       0.00000733       0.01054750      -0.09309771      -0.05441084
H        2.70252801      13.00663385      17.68005413      -0.00001098       0.00003014      -0.00004602      -0.10414876      -0.11660863       0.02580186
H        5.62477320      12.48531672      13.39945870       0.00001601      -0.00002564      -0.00002500       0.05067902       0.10278324       0.13279610
C        1.78687434      11.18292274      17.15278331      -0.00002133       0.00004504      -0.00003251      -0.65644121       0.02849955      -0.22747181
C        6.54068420      14.30895036      13.92652743      -0.00001164      -0.00001027       0.00001845       0.17762629      -0.44825534       0.22014567
Pb       3.31928857       9.00545712      12.82608792      -0.00001691      -0.00000492       0.00000979       0.50235362      -2.98310831      -0.25325666
Pb       7.28171427       8.93458120      12.77920182       0.00001394      -0.00002363       0.00002653       0.27041463      -1.33016492      -2.20202378
N        2.53651503      12.06490938      18.09687634      -0.00000996      -0.00004137       0.00003177      -0.17945902       0.50403019       0.35502517
N        5.79083747      13.42700322      12.98256249       0.00006184       0.00002507      -0.00002169       0.26114256       0.07042405      -0.73901384
I       14.78102909       2.68740392      11.41829000      -0.00001036      -0.00003583      -0.00001191      -0.62464760      -1.75141364      -0.05302997
I        9.17081760       7.68158900      10.49902413       0.00002620       0.00002296      -0.00000347       0.99521380       0.79737032       0.13002143
I       14.90769516       2.79763941      15.77529183       0.00003172       0.00003968       0.00001760       0.13458505      -0.77086857       2.29328824
I        9.24941533       7.46025508      14.86631017      -0.00002266      -0.00000855      -0.00001009       0.06525057      -0.05922565      -0.01658986
I       13.13960274       6.38840811      12.61983700       0.00000915      -0.00003719      -0.00001144      -1.76351445       1.53770725       0.73425947
I       10.60708432       4.09148163       0.57312308       0.00001700      -0.00000367       0.00001143       2.41127902      -0.42878318      -1.37568132
H       11.46334203       4.03495944      13.91913726      -0.00001097       0.00005891       0.00000106      -0.16032820       0.15511033      -0.07036670
H       14.04099006       6.91051346       7.30053906      -0.00000040       0.00000988       0.00000133      -0.17666107       0.21679354       0.16327208
H        9.91090169       3.45809979      14.61654195      -0.00001712       0.00001498       0.00003194      -0.26803917      -0.17098801       0.04081622
H       12.48863909       6.33376796       7.99823231       0.00000871      -0.00001732       0.00001573      -0.01999754      -0.18019943       0.00079705
H       10.62066468       2.62323452      13.19368908      -0.00003201       0.00000886       0.00004027      -0.06546016      -0.16237187       0.13820689
H       13.33137550       7.74565576       8.72330599       0.00002105      -0.00000540      -0.00000301       0.05070858      -0.13689595       0.01710480
H        8.81811563       4.09868061      12.52722260       0.00000439      -0.00002611      -0.00000122      -0.08939532       0.04871738       0.02874679
H       14.37659655       4.93791822       8.67657810      -0.00004136       0.00002337      -0.00001682       0.13174108       0.00003170      -0.00737673
H       10.24948760       4.65962028      11.89699301      -0.00003414      -0.00003743       0.00001698       0.14591105      -0.09160783       0.01357111
H       13.70269922       5.70948231      10.02034292      -0.00001211       0.00000218      -0.00000187      -0.01942801       0.12565835       0.09180042
H        9.57551788       5.43099241      13.24082727      -0.00001563       0.00001678       0.00000025      -0.06131668       0.11990317      -0.11257720
H       15.13399610       6.27037281       9.38991282      -0.00000259       0.00001294       0.00000349      -0.13453343       0.07999303      -0.02977448
C       10.48970025       3.58724538      13.69689294       0.00000960      -0.00006579      -0.00006789      -0.09418418      -0.02829707      -0.44612019
C       13.46229656       6.78154718       8.22028032       0.00001169      -0.00000834      -0.00002752       0.18878551       0.19895339       0.21942157
Pb      12.52249249      16.69508305       0.71367386      -0.00002537      -0.00000248      -0.00000297       0.33681619      -3.22888773      -1.75216316
Pb       8.56008755      16.76595676       0.76064357       0.00002416       0.00003792       0.00003054       1.40119130       0.96405707      -1.29059961
N        9.74011571       4.50566341      12.78816036       0.00005626       0.00001133       0.00000171       0.47450905       0.23160846      -0.22638684
N       14.21199391       5.86331319       9.12910662      -0.00001099       0.00000614       0.00003284      -0.31087026      -0.84600133       0.39672540
I       13.21710685      10.39169212      14.86833051      -0.00002576       0.00000150      -0.00001861      -0.44710162      -0.24541944      -0.18201259
I       10.96005693      15.07359557      16.02909711      -0.00001509       0.00001175       0.00004165      -2.35814469       0.11114628      -0.56551655
I       13.13732247      10.31256179      10.49725740       0.00004878       0.00003761       0.00001731       1.84588457      -0.37953994      -1.00546281
I       10.83451271      15.26360288      11.67586553       0.00000058      -0.00000788      -0.00001917      -0.19820065      -0.58573124       1.29323360
I       14.78622238      14.04153076       9.42048984       0.00000713      -0.00004955      -0.00002845       2.87779508       0.27301577      -1.10656505
I        9.18572855      11.53471788      12.75281651      -0.00003124       0.00000881      -0.00001419      -1.16514714      -0.96171176      -1.37464514
H        9.58019640      10.18684899      17.52727727       0.00001326      -0.00001187      -0.00001331      -0.07427967       0.14521537      -0.15305854
H       13.88704107      14.38936045      14.75968723      -0.00007244      -0.00001651      -0.00001056      -0.10851449      -0.01125780       0.04032564
H        8.73812196      11.62617070      16.85759954      -0.00000621      -0.00001522      -0.00003520       0.02850189      -0.07120548       0.19102740
H       15.43900550      13.83932164      14.03998541       0.00002431      -0.00003457      -0.00003955      -0.02541625      -0.17716335      -0.02555572
H       10.29006944      11.07618915      16.13779856       0.00000327      -0.00002643       0.00001857       0.17335978      -0.06764839      -0.07506760
H       14.59694643      15.27858550      13.37016208      -0.00000832      -0.00003552      -0.00001103       0.06243302      -0.03106450       0.06408229
H       11.38283583      11.63417291      18.25216475      -0.00003895       0.00001424      -0.00001774       0.18917338      -0.02849596       0.08411098
H       14.22554213      13.29332297      11.99523076       0.00005949      -0.00002324       0.00004486      -0.08758521      -0.21527813       0.04690874
H        9.95159953      12.17206057      18.90231832       0.00000514      -0.00000688      -0.00001364       0.09643301       0.03487002       0.24791713
H       12.79430691      13.83118659      12.64538439      -0.00004224       0.00001802       0.00001152       0.21796963      -0.18372159       0.04626171
H       10.62731177      12.99343726      17.58919489       0.00004053       0.00002231      -0.00001291       0.24312402      -0.05681810       0.14027796
H       13.54986451      12.47196877      13.30839835       0.00001599       0.00000386      -0.00000983      -0.09033434       0.25867300      -0.17084006
C        9.71162845      11.16972083      17.06203757      -0.00007043      -0.00002807       0.00000628       0.64831606       0.09741770      -0.06224821
C       14.46550441      14.29574707      13.83547179       0.00008089       0.00005128       0.00000368       0.07090866       0.03539378       0.20375635