768
Lattice="38.16606883306081 0.7708101007676014 0.3666927628512125 -0.3296249581406084 22.360322942442707 0.08526197331993467 -0.1800967783537251 -0.06462717078727989 19.468533293292147" Properties=species:S:1:pos:R:3:forces:R:3:momenta:R:3 pbc="T T T"
I       17.79499710       6.70380838       3.99097056       0.06632755       0.13665225      -0.01154277       0.53935907       0.14365891       0.53952181
I       18.34173306      10.81251506       1.73916458       0.28277163      -0.18855004      -0.07120538       0.15509178       4.14064377      -0.58300449
I        8.77147246      12.27986546       3.75442847       0.13985198       0.09883599       0.03002778      -0.45485128      -0.74067198       0.08408770
I        8.57299533       4.84408237       1.42334937      -0.29920048       0.01698074      -0.10827370       0.50021651       0.51875832      -0.95898619
I       16.32696582       3.17693120       1.45788469      -0.03619942       0.15987158       0.05691577      -0.46125235       1.34447697      -0.12561115
I        1.21309387      14.02341320       3.91271744      -0.19143459      -0.09000438       0.11947800       2.07479807      -0.00228563       0.90342465
I       10.66748297       8.88440799       1.41800221      -0.23633124      -0.20443153       0.03172263       2.38437152       0.37005777      -1.45828143
I        6.50732311       8.56727116       3.61269490       0.04484250      -0.22709346       0.08683138       0.44610144       0.64341153       1.14475649
I        2.72500540       6.30458937       1.16466724       0.08891661       0.04254358       0.13847450       1.93804222      -0.84463750       1.47503961
I       14.62395850      10.84515787       4.03486958       0.12847811       0.13789177       0.05672669       0.02786626      -1.51745928      -1.77807083
I        4.87443484      12.19046535       1.34829298       0.35975352      -0.05661685      -0.03488436      -0.30593979      -1.26520458      -1.40829071
I       12.24472387       5.30953840       4.08651380      -0.24012628      -0.05616358      -0.08040253      -0.11209104       3.01629948       1.49812771
H        5.60735373       5.04192621       2.66213081       0.21696359       0.36752235      -0.45082521      -0.05741700      -0.15154976      -0.07882320
H       11.62694566      12.39701121       2.83897529       0.07794158      -0.49616352       0.02385949       0.22850078      -0.12197662      -0.06492516
H        3.81481592       9.05952336       3.52256652       0.44714297      -0.02415741       0.16018766       0.06038716       0.15007345       0.04230560
H       14.79194686       6.47393181       2.18842697      -0.86301307       0.67175345      -1.39525270      -0.02277747      -0.02800300      -0.12816626
H        4.19547588       4.61135607       3.78477547      -0.46652131      -0.58719711      -0.30119912      -0.01217445      -0.01889288       0.11977021
H       11.95523417      12.18465437       1.02807104      -0.07889639      -0.13784757       0.23029973      -0.14815460      -0.02666751       0.00011800
H        2.84217708      10.23615156       2.61409126      -0.39109180       0.43093816      -0.54733180       0.04347097       0.08002922      -0.15592296
H       13.55409395       7.49238240       1.15099408       0.95335960      -0.31705608       0.19363143       0.04455855      -0.04550074       0.06176024
H        5.59821333       5.41332116       4.45859245       0.40631757      -0.43185785      -0.49588114      -0.03084417       0.18512781       0.09965812
H       13.11673599      13.03304811       2.04547551       0.26336529       0.73537312      -0.00256559      -0.18639538      -0.22274971       0.03398155
H        2.80715845      10.31407635       4.40994192       0.11608772       0.26435683      -0.14948897       0.11333923       0.02660055       0.06180199
H       15.07172625       6.75846624       0.39971107       0.09105489      -0.44911606      -0.85911308      -0.14182856      -0.10157738      -0.02401797
H        5.58545971       2.71565367       4.69174558      -0.08565771       0.02008182      -0.32725333      -0.20633571       0.06321436       0.11416644
H       11.37118843      14.54389125       0.73208304      -0.21982936      -0.29848583       0.20807791      -0.12872267       0.04250066       0.16028049
H        1.59476301       8.16982508       4.63961598       0.25452727       0.59205862      -0.92812186      -0.03592408      -0.04492771       0.08409531
H       15.33129995       8.80731256       2.67831937      -0.26497057       0.10058377      -0.17992369      -0.06492603       0.04778549      -0.07513010
H        6.99419137       3.30566679       3.94933266       0.32980257       0.21613976       0.06176464       0.19949073      -0.02906704      -0.14637748
H       11.39251592      14.82954419       2.38901971      -0.41267319      -0.41311166      -0.27362901       0.05801573       0.13028892      -0.02171424
H        1.90102605       7.87528398       2.96399808       0.03976502      -0.45951558      -0.70728046      -0.03289418      -0.18583541      -0.06909888
H       15.32228413       9.18393842       1.03149793      -0.16621603       1.14673002      -1.15318219       0.00242408      -0.10186273       0.08328535
H        5.75774857       2.70978252       2.98084315      -0.10366579      -0.41664007       0.14585866      -0.04285915      -0.04503326      -0.07510654
H       10.17757294      13.76852314       1.71880748       0.29785804       0.32754175       0.08298014      -0.13866708       0.03074604       0.01033043
H        0.73588212       9.15812497       3.43183334       1.66535461      -0.32970556      -0.22747992       0.07091583       0.10499530       0.08338190
H       16.46182219       8.21051875       1.61588886       1.69426329      -0.65168098       0.03627669       0.10797481       0.00779292       0.04064935
C        5.31291739       4.66557493       3.65888368       0.13431171       0.23617247       1.28608688       0.24886457      -0.50472309       0.01063005
C       12.04131727      12.85085976       1.90641365      -0.49929391      -0.58686732      -0.23368707       0.20869232      -1.10679763      -0.17138711
C        2.85915264       9.64388013       3.52491711       0.40857141       0.25161805       0.93968453      -0.25682934      -0.08775304       0.29289597
C       14.63627378       7.19718147       1.30293608       0.10957701      -0.18891602       2.62071564      -0.17494156       0.78204146      -0.37971585
Pb       0.12819248       4.57262441       1.41308454       0.05263917       0.00429908      -0.12386967       0.94360325       1.59861984      -0.68899195
Pb      17.29490066      12.64115782       4.07727186      -0.22857559       0.13718000       0.26204066      -1.39168579      -2.38904582       2.17652834
Pb       7.60965383      10.39577680       1.32562397      -0.21157429       0.26458983      -0.17014581      -1.66015388       0.42336156       1.12002990
Pb       9.41837614       6.76607781       3.80433005       0.24513732      -0.05601923       0.23828328      -2.62072605      -1.11335184       0.74221170
N        5.94800731       3.26660329       3.84302702      -0.48844172       0.62483855       0.06639142       0.52522189       0.46303446      -0.21317021
N       11.17623596      14.05116183       1.66440803       0.68113857       0.76002094      -0.01284659       0.01684952       0.65488578      -0.11683062
N        1.72718418       8.67734595       3.62359761      -2.76805812      -0.58915980       1.37110614      -0.09230518      -0.50835276       0.34812291
N       15.49732885       8.41606891       1.68645802      -1.46534006      -0.29331712       0.63042770      -0.13691983       0.20385308      -0.33340589
I       17.99302560       6.97064220       9.00062406      -0.10438938      -0.05220538      -0.11894402       0.21326524       0.22279029       1.19536222
I       18.48477762      10.67952512       6.38580465       0.14918048       0.08307794      -0.05814110       0.14095787      -0.12469657      -0.38507031
I        8.95181089      12.08533343       8.58970483       0.03882756       0.10376984       0.05408599       2.54640304       0.27020797       0.07526716
I        8.13865935       4.83786421       6.23461879       0.39545774       0.36499955       0.05779092       0.48901592       0.60383926      -1.09577103
I       16.18058302       3.50471182       6.51072161       0.41454461      -0.29441890       0.02932026       1.40700364      -0.23630375       0.13394818
I        1.19556093      13.93091314       8.71803382      -0.20695351       0.07299463      -0.01496525       0.03162932       0.34358400      -0.89917848
I       10.42818552       8.70662274       6.26574030       0.12243739      -0.04173378       0.01120935       0.26013152      -0.29333277      -0.25380314
I        6.44259394       8.49454868       8.55413538       0.17205406      -0.07703182       0.09247080       1.71355241      -0.52305669      -3.34258808
I        2.65468873       6.73884573       6.20641164       0.13231758      -0.27631533       0.07861457      -0.75571501       2.08142550      -1.84521249
I       14.72557341      10.91131360       8.97743744      -0.28943317      -0.04955726       0.04797332      -0.03365402      -2.94992981       1.03090198
I        5.03399914      12.08407552       6.30923958      -0.20158050       0.04114841       0.04161895       0.16402604       1.36812560       2.41102615
I       12.10505267       5.06171424       8.89465447      -0.05104629       0.39573708      -0.03527870      -0.10424711      -0.25273065      -2.13286433
H        4.17634030       3.76569240       8.30493422       0.50196003      -0.53605368       0.26919503       0.00582903      -0.05930536       0.08524313
H       12.02090627      12.19631550       7.37175440       0.09527961       0.64565121      -1.37559773      -0.01015314       0.02319029       0.18856921
H        2.31468713      11.02034333       8.19566826      -0.35049263      -0.72234468       0.87052038       0.07812811       0.07733865      -0.06450833
H       14.88924882       6.97444158       5.32748859       0.05838086       0.34370171       0.04289519       0.07411650      -0.05155812      -0.14356832
H        5.10748321       4.68450705       9.61305498      -0.15509486       0.85090640       0.32768655       0.07930265      -0.08970404      -0.01540907
H       12.16616639      12.32511400       5.48929033      -0.16782482       0.25361279       0.66473964       0.00080421      -0.18344364      -0.08601344
H        2.87228727      10.29946018      10.07286384      -0.02126299       0.29792856      -0.37093785       0.04105675      -0.09461452       0.22836985
H       14.48650054       6.77274977       7.09857660       0.19880186       0.70409200      -0.35791850      -0.13568496       0.22395029       0.11379785
H        5.41339383       4.97322226       7.82767374       0.45854383       0.61479751      -0.57975477       0.02435716       0.13156742      -0.08571812
H       13.22749654      13.32821401       6.59442890      -0.84119517      -0.32622644      -0.14372934       0.10897185      -0.11253137       0.04891166
H        3.65569519       9.54157968       8.38081845       0.80520771       0.20329825       0.12020131       0.07999636       0.21970765       0.11407919
H       13.60101368       8.06489219       6.03782029       0.76634826      -0.26357146      -0.01385934       0.24976621       0.15083953      -0.12101747
H        7.28145838       3.66322535       8.74076485       0.48192220       0.30464031       0.24828700       0.04248381      -0.20629418       0.07571846
H       11.54471865      14.67953356       7.28350766      -0.19439864       0.10026947       0.08389172       0.14840260       0.07335152       0.01203222
H        1.96161662       8.07332519       9.43141036       0.15251258       0.52993269       0.03800103      -0.13752799       0.06029220      -0.09578335
H       15.51270163       9.09799390       7.37945120      -0.17785278       0.90787941       1.37756465      -0.10762426       0.08393914      -0.10389923
H        6.32469790       2.58056688       7.85794916       0.01794986      -0.11710666       0.06036578      -0.06324663      -0.00626138       0.07892862
H       10.25373171      13.56428136       6.85252346      -0.01035328       0.34621255       0.10354270       0.07231882      -0.09660942       0.09929064
H        1.80966500       8.43461682       7.84070098      -0.09946393      -0.62576569      -1.15672248      -0.04327083       0.17899054       0.04130762
H       15.58810614       9.41341742       5.77948550      -0.25970906       0.08354056      -0.40478298       0.00715925       0.14394778       0.13033090
H        6.07319084       2.70240183       9.53396974       0.67051733      -0.44046557      -0.26902501       0.08936985       0.04514762      -0.00213798
H       11.05694182      14.54352099       5.61840100       0.42816469       0.04215756      -0.18349956       0.09028520       0.08600045       0.11671955
H        0.72807102       9.14753979       8.92792677      -0.39094203       0.17234113      -0.12428159       0.00484415      -0.00430909      -0.02271529
H       16.63124204       8.30633246       6.45592160       0.52095806      -0.32756195       0.25721159       0.19317352      -0.33898523      -0.04043430
C        5.18222982       4.23600552       8.58730199      -0.01939809      -0.18434688       0.05241616      -0.57357509       0.31576080       0.02276077
C       12.19077208      12.87960380       6.47162805       1.56102057      -0.72499657       0.70544402       0.13160122       0.68897837      -0.12354784
C        2.68415141      10.05929684       8.84339709      -0.57685587      -0.58103549       0.05840196       0.51245281      -0.20575771      -0.16330711
C       14.61627384       7.55162911       6.22421789      -0.86789973      -0.31570947       0.27022933       0.61016587      -0.52336559      -0.68099536
Pb       0.15568033       4.79938361       6.31958845      -0.10920506      -0.19784808       0.06328784      -0.76836374      -0.70717690       1.09773024
Pb      17.28930376      12.53104958       8.90182757       0.01118299       0.29565876      -0.29413351      -0.05550236       0.52862375      -1.08283887
Pb       7.67016786      10.45149038       6.06474421      -0.07346625      -0.02705303       0.24058667      -0.49531015       0.34383492       0.84210674
Pb       9.38011086       6.91931795       8.83735585       0.16460233      -0.28892868      -0.33757470       3.66546217       0.46950810       1.60262895
N        6.34471628       3.24820787       8.67435776      -2.07427019      -0.59149717      -0.11610834       0.45662836       0.17891072      -0.40911948
N       11.21607453      13.98082425       6.53763227      -1.02692547      -0.37032480      -0.03771020      -0.51050266      -0.45614167      -0.76051491
N        1.71422190       8.89066311       8.75112692       0.29311354       0.78955824       0.62500836       0.37737398       0.28308662      -0.88120526
N       15.66559336       8.63753022       6.50186809      -0.22028216      -1.31070769      -1.13205944       0.51033442      -0.47038658      -0.29608345
I       17.70494871       6.67149479      13.72523721       0.06632755       0.13665225      -0.01154277       0.53935907       0.14365891       0.53952181
I       18.25168467      10.78020147      11.47343123       0.28277163      -0.18855004      -0.07120538       0.15509178       4.14064377      -0.58300449
I        8.68142407      12.24755187      13.48869512       0.13985198       0.09883599       0.03002778      -0.45485128      -0.74067198       0.08408770
I        8.48294694       4.81176878      11.15761602      -0.29920048       0.01698074      -0.10827370       0.50021651       0.51875832      -0.95898619
I       16.23691743       3.14461761      11.19215134      -0.03619942       0.15987158       0.05691577      -0.46125235       1.34447697      -0.12561115
I        1.12304548      13.99109961      13.64698409      -0.19143459      -0.09000438       0.11947800       2.07479807      -0.00228563       0.90342465
I       10.57743458       8.85209440      11.15226886      -0.23633124      -0.20443153       0.03172263       2.38437152       0.37005777      -1.45828143
I        6.41727472       8.53495757      13.34696155       0.04484250      -0.22709346       0.08683138       0.44610144       0.64341153       1.14475649
I        2.63495701       6.27227578      10.89893389       0.08891661       0.04254358       0.13847450       1.93804222      -0.84463750       1.47503961
I       14.53391011      10.81284428      13.76913623       0.12847811       0.13789177       0.05672669       0.02786626      -1.51745928      -1.77807083
I        4.78438645      12.15815176      11.08255963       0.35975352      -0.05661685      -0.03488436      -0.30593979      -1.26520458      -1.40829071
I       12.15467548       5.27722481      13.82078045      -0.24012628      -0.05616358      -0.08040253      -0.11209104       3.01629948       1.49812771
H        5.51730534       5.00961262      12.39639746       0.21696359       0.36752235      -0.45082521      -0.05741700      -0.15154976      -0.07882320
H       11.53689727      12.36469762      12.57324194       0.07794158      -0.49616352       0.02385949       0.22850078      -0.12197662      -0.06492516
H        3.72476753       9.02720977      13.25683317       0.44714297      -0.02415741       0.16018766       0.06038716       0.15007345       0.04230560
H       14.70189847       6.44161822      11.92269362      -0.86301307       0.67175345      -1.39525270      -0.02277747      -0.02800300      -0.12816626
H        4.10542749       4.57904248      13.51904212      -0.46652131      -0.58719711      -0.30119912      -0.01217445      -0.01889288       0.11977021
H       11.86518578      12.15234078      10.76233769      -0.07889639      -0.13784757       0.23029973      -0.14815460      -0.02666751       0.00011800
H        2.75212869      10.20383797      12.34835791      -0.39109180       0.43093816      -0.54733180       0.04347097       0.08002922      -0.15592296
H       13.46404556       7.46006881      10.88526073       0.95335960      -0.31705608       0.19363143       0.04455855      -0.04550074       0.06176024
H        5.50816494       5.38100757      14.19285910       0.40631757      -0.43185785      -0.49588114      -0.03084417       0.18512781       0.09965812
H       13.02668760      13.00073452      11.77974216       0.26336529       0.73537312      -0.00256559      -0.18639538      -0.22274971       0.03398155
H        2.71711006      10.28176276      14.14420857       0.11608772       0.26435683      -0.14948897       0.11333923       0.02660055       0.06180199
H       14.98167786       6.72615265      10.13397772       0.09105489      -0.44911606      -0.85911308      -0.14182856      -0.10157738      -0.02401797
H        5.49541132       2.68334008      14.42601223      -0.08565771       0.02008182      -0.32725333      -0.20633571       0.06321436       0.11416644
H       11.28114004      14.51157766      10.46634969      -0.21982936      -0.29848583       0.20807791      -0.12872267       0.04250066       0.16028049
H        1.50471462       8.13751149      14.37388263       0.25452727       0.59205862      -0.92812186      -0.03592408      -0.04492771       0.08409531
H       15.24125156       8.77499897      12.41258602      -0.26497057       0.10058377      -0.17992369      -0.06492603       0.04778549      -0.07513010
H        6.90414298       3.27335320      13.68359931       0.32980257       0.21613976       0.06176464       0.19949073      -0.02906704      -0.14637748
H       11.30246753      14.79723060      12.12328636      -0.41267319      -0.41311166      -0.27362901       0.05801573       0.13028892      -0.02171424
H        1.81097766       7.84297039      12.69826473       0.03976502      -0.45951558      -0.70728046      -0.03289418      -0.18583541      -0.06909888
H       15.23223574       9.15162483      10.76576458      -0.16621603       1.14673002      -1.15318219       0.00242408      -0.10186273       0.08328535
H        5.66770018       2.67746893      12.71510980      -0.10366579      -0.41664007       0.14585866      -0.04285915      -0.04503326      -0.07510654
H       10.08752455      13.73620955      11.45307413       0.29785804       0.32754175       0.08298014      -0.13866708       0.03074604       0.01033043
H        0.64583373       9.12581138      13.16609999       1.66535461      -0.32970556      -0.22747992       0.07091583       0.10499530       0.08338190
H       16.37177380       8.17820516      11.35015551       1.69426329      -0.65168098       0.03627669       0.10797481       0.00779292       0.04064935
C        5.22286900       4.63326134      13.39315033       0.13431171       0.23617247       1.28608688       0.24886457      -0.50472309       0.01063005
C       11.95126888      12.81854617      11.64068030      -0.49929391      -0.58686732      -0.23368707       0.20869232      -1.10679763      -0.17138711
C        2.76910425       9.61156654      13.25918376       0.40857141       0.25161805       0.93968453      -0.25682934      -0.08775304       0.29289597
C       14.54622539       7.16486788      11.03720273       0.10957701      -0.18891602       2.62071564      -0.17494156       0.78204146      -0.37971585
Pb       0.03814409       4.54031082      11.14735119       0.05263917       0.00429908      -0.12386967       0.94360325       1.59861984      -0.68899195
Pb      17.20485227      12.60884423      13.81153851      -0.22857559       0.13718000       0.26204066      -1.39168579      -2.38904582       2.17652834
Pb       7.51960544      10.36346321      11.05989062      -0.21157429       0.26458983      -0.17014581      -1.66015388       0.42336156       1.12002990
Pb       9.32832775       6.73376422      13.53859670       0.24513732      -0.05601923       0.23828328      -2.62072605      -1.11335184       0.74221170
N        5.85795892       3.23428970      13.57729367      -0.48844172       0.62483855       0.06639142       0.52522189       0.46303446      -0.21317021
N       11.08618757      14.01884824      11.39867468       0.68113857       0.76002094      -0.01284659       0.01684952       0.65488578      -0.11683062
N        1.63713579       8.64503236      13.35786426      -2.76805812      -0.58915980       1.37110614      -0.09230518      -0.50835276       0.34812291
N       15.40728046       8.38375532      11.42072467      -1.46534006      -0.29331712       0.63042770      -0.13691983       0.20385308      -0.33340589
I       17.90297721       6.93832861      18.73489071      -0.10438938      -0.05220538      -0.11894402       0.21326524       0.22279029       1.19536222
I       18.39472923      10.64721153      16.12007130       0.14918048       0.08307794      -0.05814110       0.14095787      -0.12469657      -0.38507031
I        8.86176250      12.05301984      18.32397148       0.03882756       0.10376984       0.05408599       2.54640304       0.27020797       0.07526716
I        8.04861096       4.80555062      15.96888544       0.39545774       0.36499955       0.05779092       0.48901592       0.60383926      -1.09577103
I       16.09053463       3.47239823      16.24498826       0.41454461      -0.29441890       0.02932026       1.40700364      -0.23630375       0.13394818
I        1.10551254      13.89859955      18.45230047      -0.20695351       0.07299463      -0.01496525       0.03162932       0.34358400      -0.89917848
I       10.33813713       8.67430915      16.00000695       0.12243739      -0.04173378       0.01120935       0.26013152      -0.29333277      -0.25380314
I        6.35254555       8.46223509      18.28840203       0.17205406      -0.07703182       0.09247080       1.71355241      -0.52305669      -3.34258808
I        2.56464034       6.70653214      15.94067829       0.13231758      -0.27631533       0.07861457      -0.75571501       2.08142550      -1.84521249
I       14.63552502      10.87900001      18.71170409      -0.28943317      -0.04955726       0.04797332      -0.03365402      -2.94992981       1.03090198
I        4.94395075      12.05176193      16.04350623      -0.20158050       0.04114841       0.04161895       0.16402604       1.36812560       2.41102615
I       12.01500428       5.02940065      18.62892112      -0.05104629       0.39573708      -0.03527870      -0.10424711      -0.25273065      -2.13286433
H        4.08629191       3.73337881      18.03920087       0.50196003      -0.53605368       0.26919503       0.00582903      -0.05930536       0.08524313
H       11.93085788      12.16400191      17.10602105       0.09527961       0.64565121      -1.37559773      -0.01015314       0.02319029       0.18856921
H        2.22463874      10.98802974      17.92993491      -0.35049263      -0.72234468       0.87052038       0.07812811       0.07733865      -0.06450833
H       14.79920043       6.94212799      15.06175524       0.05838086       0.34370171       0.04289519       0.07411650      -0.05155812      -0.14356832
H        5.01743482       4.65219346      19.34732163      -0.15509486       0.85090640       0.32768655       0.07930265      -0.08970404      -0.01540907
H       12.07611800      12.29280041      15.22355698      -0.16782482       0.25361279       0.66473964       0.00080421      -0.18344364      -0.08601344
H        2.96233566      10.33177377       0.33859719      -0.02126299       0.29792856      -0.37093785       0.04105675      -0.09461452       0.22836985
H       14.39645215       6.74043618      16.83284325       0.19880186       0.70409200      -0.35791850      -0.13568496       0.22395029       0.11379785
H        5.32334544       4.94090867      17.56194039       0.45854383       0.61479751      -0.57975477       0.02435716       0.13156742      -0.08571812
H       13.13744815      13.29590042      16.32869555      -0.84119517      -0.32622644      -0.14372934       0.10897185      -0.11253137       0.04891166
H        3.56564680       9.50926609      18.11508510       0.80520771       0.20329825       0.12020131       0.07999636       0.21970765       0.11407919
H       13.51096529       8.03257860      15.77208694       0.76634826      -0.26357146      -0.01385934       0.24976621       0.15083953      -0.12101747
H        7.19140999       3.63091176      18.47503150       0.48192220       0.30464031       0.24828700       0.04248381      -0.20629418       0.07571846
H       11.45467026      14.64721997      17.01777431      -0.19439864       0.10026947       0.08389172       0.14840260       0.07335152       0.01203222
H        1.87156823       8.04101160      19.16567701       0.15251258       0.52993269       0.03800103      -0.13752799       0.06029220      -0.09578335
H       15.42265324       9.06568031      17.11371785      -0.17785278       0.90787941       1.37756465      -0.10762426       0.08393914      -0.10389923
H        6.23464951       2.54825329      17.59221581       0.01794986      -0.11710666       0.06036578      -0.06324663      -0.00626138       0.07892862
H       10.16368332      13.53196777      16.58679011      -0.01035328       0.34621255       0.10354270       0.07231882      -0.09660942       0.09929064
H        1.71961661       8.40230323      17.57496763      -0.09946393      -0.62576569      -1.15672248      -0.04327083       0.17899054       0.04130762
H       15.49805775       9.38110383      15.51375215      -0.25970906       0.08354056      -0.40478298       0.00715925       0.14394778       0.13033090
H        5.98314245       2.67008824      19.26823639       0.67051733      -0.44046557      -0.26902501       0.08936985       0.04514762      -0.00213798
H       10.96689343      14.51120740      15.35266765       0.42816469       0.04215756      -0.18349956       0.09028520       0.08600045       0.11671955
H        0.63802263       9.11522620      18.66219342      -0.39094203       0.17234113      -0.12428159       0.00484415      -0.00430909      -0.02271529
H       16.54119365       8.27401887      16.19018825       0.52095806      -0.32756195       0.25721159       0.19317352      -0.33898523      -0.04043430
C        5.09218143       4.20369193      18.32156864      -0.01939809      -0.18434688       0.05241616      -0.57357509       0.31576080       0.02276077
C       12.10072369      12.84729021      16.20589470       1.56102057      -0.72499657       0.70544402       0.13160122       0.68897837      -0.12354784
C        2.59410302      10.02698325      18.57766374      -0.57685587      -0.58103549       0.05840196       0.51245281      -0.20575771      -0.16330711
C       14.52622545       7.51931552      15.95848454      -0.86789973      -0.31570947       0.27022933       0.61016587      -0.52336559      -0.68099536
Pb       0.06563194       4.76707002      16.05385510      -0.10920506      -0.19784808       0.06328784      -0.76836374      -0.70717690       1.09773024
Pb      17.19925537      12.49873599      18.63609422       0.01118299       0.29565876      -0.29413351      -0.05550236       0.52862375      -1.08283887
Pb       7.58011947      10.41917679      15.79901086      -0.07346625      -0.02705303       0.24058667      -0.49531015       0.34383492       0.84210674
Pb       9.29006247       6.88700436      18.57162250       0.16460233      -0.28892868      -0.33757470       3.66546217       0.46950810       1.60262895
N        6.25466789       3.21589428      18.40862441      -2.07427019      -0.59149717      -0.11610834       0.45662836       0.17891072      -0.40911948
N       11.12602614      13.94851066      16.27189892      -1.02692547      -0.37032480      -0.03771020      -0.51050266      -0.45614167      -0.76051491