768
Lattice="38.16606883306081 0.7708101007676014 0.3666927628512125 -0.3296249581406084 22.360322942442707 0.08526197331993467 -0.1800967783537251 -0.06462717078727989 19.468533293292147" Properties=species:S:1:pos:R:3:forces:R:3:momenta:R:3 energy=-3338.8447577982856 stress="0.0 0.0 0.0 0.0 0.0 0.0 0.0 0.0 0.0" pbc="T T T"
I       17.32078449       6.69352236       4.22238531      -0.05375307      -0.01975203       0.10307275      -0.45495489       0.60672288      -0.06263176
I       17.91239850      10.47414198       1.89699006       0.10886307       0.02167591       0.09328117       1.63798636       0.81502345       0.18321236
I        8.42526828      12.00756503       4.28303996      -0.16930500       0.04104755      -0.10275284       0.52456731       0.21588045      -0.77122956
I        7.81893665       4.66595512       1.61201736       0.23322296       0.09922662       0.07079849      -1.25961973       3.15406092      -2.22924071
I       15.82385877       3.03442947       1.65614076      -0.01979838       0.15373963       0.11388081       0.06995578      -0.41389244      -1.44358136
I        0.42017739      13.83765501       4.15475624      -0.06234588      -0.02031510       0.17423990      -1.37217372      -0.27063018      -0.43892430
I        9.88351530       8.52331929       1.95797948       0.20160817       0.10066862      -0.19718420       0.70475240       0.15831999       1.93610888
I        5.92971607       8.21700050       4.22656513       0.20217197       0.15281787      -0.00003357       1.40777584      -1.12187636       0.95197839
I        2.26629490       6.17561460       1.65152073      -0.10029716       0.09380699       0.09715275      -0.40206682      -1.17071597      -3.67894409
I       14.10609286      10.51411692       4.25790656       0.26306596       0.18372331       0.12807322      -2.24238394       0.39078687       1.26991350
I        4.31369220      11.84168284       2.02246259       0.15380316       0.27373265       0.04962449      -1.56085818       0.66754269       1.85446120
I       11.65833848       5.03041148       4.34375964       0.19078554      -0.25968531      -0.13075121       2.30429882      -1.21655726      -0.99677064
H        5.09347997       5.00985563       3.21944680      -0.08493961      -0.79087906       0.00322158      -0.00245194       0.06108579       0.01219034
H       10.91721885      11.84649903       2.43723602      -0.02620899      -0.31852529       0.29996094       0.06740109       0.10437145      -0.17876010
H        2.78633298       9.18408576       4.10720191      -0.06549131       0.60210883      -0.20649533      -0.09551141      -0.31193173       0.07568550
H       14.35550233       6.61619112       2.92020054       0.05488842       0.05377843      -0.69889633      -0.00652847      -0.04934688      -0.19241086
H        3.73933680       3.96409550       3.96378510      -0.28740065       0.34762444      -0.06824210      -0.10276967      -0.00203438       0.10096171
H       11.53986924      12.26656748       0.64807348       0.18005557       0.03981923       0.28212494       0.05617635       0.01486431      -0.06222583
H        1.48402882      10.05423497       3.02749540       0.49659916      -0.50221593       0.10821414       0.09690222       0.10559130       0.26854610
H       13.14849423       7.33778571       1.77971310       0.10932516      -0.22812800      -0.13397488       0.06930504      -0.18253117      -0.00814024
H        5.07051921       4.76853454       4.96881208      -0.59862520      -0.26074346      -0.31980455      -0.20970964       0.01656156       0.15240219
H       12.46900954      12.97399342       2.21507373       0.25704093       0.45179207      -0.07086265       0.10710226       0.01330443      -0.03291972
H        1.51330572      10.39295573       4.77878343       0.33184545      -0.41064971      -0.08010360      -0.06765770      -0.06995643       0.05531583
H       14.48331636       6.33886288       1.07771800       0.18461541      -0.48949195      -0.35960592      -0.02729303       0.19882366      -0.29087866
H        5.20120685       2.37555270       4.80369670       0.41149609      -0.14133137       0.28817887      -0.22660129       0.07212894      -0.12207744
H       10.90835479      14.54474533       1.01148472      -0.25988803       0.14813715      -0.02668709      -0.01692933      -0.07406184      -0.04266816
H        1.06743480       7.89456301       5.15278352       0.45358515      -0.51397027      -0.13200629       0.09288019       0.19359406      -0.02121526
H       14.75009831       8.91268764       2.63294194       0.17992371      -0.32259667      -0.98916380      -0.01259426      -0.09456556      -0.03263486
H        6.61777929       3.11815645       4.07808854      -0.53060768      -0.18719341       0.18791085      -0.06452663       0.07766643      -0.03533150
H       10.27186612      14.30763535       2.62590403       0.47202397       0.68294891       1.20325493      -0.06580272       0.06341311      -0.11808426
H        1.00490473       7.76352945       3.40008405      -0.33772048      -0.24178205       0.76577893       0.03292987      -0.25093208      -0.03183226
H       14.75002629       8.88150366       0.93699343       0.19218306       0.05343086      -0.06552900       0.13560126       0.18967632       0.10046343
H        5.36352212       2.43963013       3.15740187       0.20315815      -0.19152750      -0.11567995       0.07212327       0.10404506       0.00549564
H        9.47548170      13.49107166       1.27191231      -0.08309130      -0.10360472      -0.06491619       0.22038551      -0.17452951      -0.02479104
H       -0.08081070       8.67989726       4.32871605      -1.76296551       0.18683226      -0.39265594      -0.11844875      -0.06186072      -0.07982659
H       15.99230405       8.14960483       1.84619778       1.09754914      -0.24356061      -0.32873691       0.05319897      -0.04850414      -0.11710643
C        4.78355575       4.26787924       4.00565629       0.97625991       0.60783555       0.96819854      -0.22705982       0.46173236       0.09791582
C       11.44690166      12.63632625       1.76479495      -1.59807140       0.79350530      -0.19123601      -0.39508402      -0.59020944      -0.52161183
C        1.76363315       9.59677215       4.01215661      -0.60189430      -0.09358645       0.51978029       0.62150114      -0.05516995      -0.13547536
C       14.20471226       7.02540576       1.86786197      -0.36544326       0.89929648       1.05093527       1.26542938       0.39055163       0.56291507
Pb      37.88317688       5.22043438       1.80735772      -0.25036251      -0.06688446       0.19576313      -0.89279092      -0.94773541       1.39588922
Pb      16.78670741      12.37031555       4.31388014      -0.32730713      -0.11454848      -0.04290833      -1.73258271       2.63932763       0.43199179
Pb       6.92245068      10.13349806       1.84289141      -0.02581134       0.02327695       0.07676518       1.38519094       3.61855994      -0.81868022
Pb       9.03764244       6.56254810       4.19803719      -0.41110219      -0.06582178       0.05627816      -0.24945808       0.18393571      -1.95068940
N        5.57478347       2.98420786       4.02102758      -0.14936176       0.63244947      -0.76910286       0.48470324      -0.27299280       0.12622610
N       10.44546129      13.82137766       1.70479798       1.04707188      -1.85831776      -1.38906779      -0.21223211      -0.06386984      -0.08418558
N        0.85969677       8.37604319       4.24645738       1.67996843       0.80920156      -0.61411822      -0.26861185      -0.13089227      -0.20026484
N       15.00188205       8.30514414       1.76882712      -1.52313536       0.29095732       1.49336649       0.17848677      -0.21361299       0.36732996
I       17.33985667       6.50816896       9.22196078      -0.11322707       0.08521183      -0.00121147      -1.12439326       1.65297118      -3.10810576
I       17.86861878      10.42478100       6.72208623      -0.02779853       0.18543558       0.06387213      -0.20846577       1.79029455      -1.26997313
I        8.54333025      12.19996941       8.84501680      -0.21767014      -0.10472146       0.21374072       0.99929645      -3.68361000       0.78261088
I        7.71488641       4.75497777       6.71555265       0.10748330       0.05301162       0.00838995      -1.25176207      -0.09947794       0.40496241
I       15.76423590       3.13614722       6.65169221      -0.14471296       0.07022249       0.15406893      -0.89282737      -0.02282462       0.49378329
I        0.50199306      13.78005542       9.08643747      -0.11069177       0.10699852       0.01986212       1.35512402      -0.75418357       0.70320182
I       10.04800992       8.61925064       6.53409284      -0.04218435      -0.09123621       0.02286232       1.32936547      -2.68069064       0.34805361
I        6.29649172       8.18784777       9.17205795       0.13634572       0.13379221      -0.01689791       0.32344027       0.86216177       0.36220997
I        2.14915042       6.12625504       6.64527107      -0.29148840      -0.07583605      -0.09587701       0.10758812      -0.81542421      -1.15443131
I       13.99572585      10.38794494       9.11926460      -0.21303781       0.23415595      -0.04897351      -1.45576707      -2.24220568      -1.46421196
I        4.24329119      11.75765296       6.58507742       0.28082621       0.13392502      -0.01692124      -0.60381926      -1.15470177       0.68218840
I       12.01083003       4.80474949       9.07198012      -0.16017518       0.15333862      -0.01111969      -0.02660624      -0.19088159       0.18306232
H        3.51225591       4.08125416       9.00745653      -0.04940892      -0.04843318       0.24300009       0.16545656      -0.01872396      -0.07819348
H       11.25046560      12.37523972       7.79238944      -0.06091558      -0.16725388       0.52764053       0.01119193       0.09958119       0.09103859
H        2.19549822      10.07830884       7.92653966       0.17894936      -0.42330646       0.71470135       0.03753696      -0.30341789       0.03168900
H       14.33387973       6.31440834       6.17316105      -0.02696069       0.49858175      -0.01821216       0.14718006      -0.16064051      -0.10441459
H        4.86518655       5.01224894       9.78354750      -0.09864526       0.57431197       0.40497742      -0.04664814       0.07541825       0.02043124
H       11.40098315      11.93564636       6.01839499       0.21678888       0.79951956       0.96363492       0.13809155      -0.14562763       0.00267026
H        2.02862116      10.34076528       9.72168526      -0.30704456       0.35685829       0.55573534      -0.09092545      -0.27594854       0.00021590
H       13.89832558       6.66629424       7.87284569       0.46058622      -0.05115772       1.16193096       0.17015231      -0.10588349       0.12150981
H        4.70977283       4.88148100       7.97341481       0.10707805       0.21034817       0.15955681      -0.04297389      -0.20355882      -0.01921834
H       12.73846819      12.91257859       6.79322651      -0.45997878      -0.13046191       0.10626393      -0.09736413      -0.04376337       0.09884118
H        3.24929185       9.11526469       9.13800580      -0.92221011       0.25243285      -0.19319532       0.07515862      -0.14121759       0.08364622
H       13.11077407       7.76678393       6.58651794       0.14162254      -0.04566442      -0.04003892       0.03953945      -0.08628829      -0.00468188
H        6.41154959       3.51017011       8.88709449       0.44350986      -0.41126042      -0.07041903       0.27572322      -0.09944572       0.01703015
H       10.98145288      14.91619862       7.13729224      -0.01793996      -0.97288872      -0.19135204      -0.14922980       0.13811559       0.04500584
H        1.28237013       7.90941745       9.88545212       0.02761661      -0.10812348       0.16112018       0.10769505       0.16508908       0.22526001
H       14.98818494       9.13726388       7.43980681       0.33925240      -1.25733832      -0.71816150      -0.15402688      -0.07019194       0.06876450
H        5.17669737       2.46712357       8.23375250       0.33853868       0.39133959       0.11506508      -0.03955335      -0.18932666       0.21537150
H        9.90342295      13.87924217       6.24788105       0.05278766       0.41124987       0.13211916      -0.09308503       0.01007061       0.09125367
H        1.24488238       7.88187185       8.24699934       0.19807589      -0.76886089      -0.94589361       0.22724487      -0.03548123      -0.13293525
H       15.34156959       8.63171943       5.78918512      -0.42276328       0.08774182      -0.04724463      -0.18529229       0.21744597      -0.03727016
H        5.28750692       2.66916813       9.86521414       0.17552238      -0.46026303       0.69777077       0.11609411       0.20565560       0.08604043
H       11.35036964      14.47947355       5.48623089      -0.43649434      -0.29292337       0.38954090      -0.17135295      -0.02520701       0.03787963
H        0.23207436       8.99366029       9.05955374       0.25221984      -0.48026090      -0.04989214      -0.06564494       0.09124786       0.02307238
H       16.17649847       7.79063756       6.96317798       0.32003837      -0.30952231       0.60124583       0.14217409      -0.10172498       0.16735330
C        4.56096396       4.39215383       8.95171389       0.00851176      -0.72895909      -0.77882514      -0.24742466      -0.39908676       0.18727042
C       11.62140634      12.75611357       6.81188454       0.95853547      -0.89793696      -1.32470495       0.01704700      -0.34310373       0.16245994
C        2.21356194       9.57723758       8.95846817       1.74570489       0.37528260      -1.01232902       0.15771784       0.03552463      -0.02224340
C       14.08449079       7.19326009       6.88288356      -0.48860410      -0.02118320      -1.10153927      -0.17875982       0.21816787      -0.05059814
Pb      37.57254894       5.10046416       6.84362813       0.28371185      -0.04593217      -0.04123547      -2.28637932      -1.42146198      -0.45095097
Pb      16.48895405      12.29240617       9.29529578       0.02433354      -0.02654270      -0.05987785      -3.23181489      -0.05345854       0.59661041
Pb       7.12676408      10.35490439       6.61142571      -0.17762221      -0.26641357      -0.05254575       1.03482767       1.98391224       3.15132535
Pb       9.27201772       6.53400198       9.05929835      -0.10696486      -0.06382696      -0.18141803       2.27141910      -1.31000603      -2.54285725
N        5.44260479       3.18013783       8.98854715      -0.82210552       0.55465981      -0.83195150      -0.45964199      -0.58419897       0.03897173
N       10.92669673      14.05444383       6.43184729      -0.36891051       1.03301584      -0.56010178       0.87732462       0.29504653       0.12478909
N        1.18968282       8.51723644       9.04103583      -1.25477165       0.72615927       0.81805522       0.08368888       0.35786432       0.31330259
N       15.22721004       8.19771132       6.80043498      -0.42520793       1.09825153       0.00266859       0.40137484       0.16022275      -0.33354841
I       17.01214762       6.46190993      14.17225462       0.23803041      -0.06650878      -0.00433856       3.13776933      -2.07187902       0.60305778
I       17.72171343      10.36924020      11.81581706       0.03383711       0.03897176      -0.34054703      -2.13375827       0.96252951       0.39805572
I        8.28735947      12.03647703      14.14191439       0.08688968       0.06191510      -0.07221033      -0.14091497       0.86896694       2.21913623
I        8.06944478       4.66349946      11.40661771      -0.05704773       0.10068566       0.00178301      -1.22880250       0.53652304       0.62873413
I       15.48898816       2.90745698      11.61793409       0.03552744       0.15956616      -0.04742356      -0.03108890      -3.17071358      -1.17388190
I        0.47185456      13.72718281      13.95160079       0.01407963      -0.18687755       0.00752452       1.35509147      -1.11602061       0.50569598
I       10.11105617       8.46972002      11.56237604       0.19904820       0.14515551      -0.04761442       1.06768815       1.51313296       1.52737329
I        6.25629586       8.22567375      13.74692533       0.04737224       0.13592906       0.02785909      -0.03549006       2.70828871      -0.65823922
I        1.93134690       6.11744610      11.53091634       0.04535897       0.19233865      -0.02692890      -0.26037103      -0.52809515      -0.50536335
I       13.90448730      10.44804914      14.03463565      -0.12551263      -0.02891212       0.16671175       1.75701675       2.51356509      -1.43590601
I        4.54524350      11.87690782      11.50192484      -0.09184346      -0.11929719      -0.01578709      -1.06401039       0.49025832       1.07898264
I       11.91696409       4.98874996      14.12595082      -0.04763757       0.02144316      -0.16158206      -1.26283312      -0.45579944      -1.63488646
H        5.31594877       5.02566545      12.65409860      -0.04885937       0.18682250       0.36110594      -0.06458388       0.11728918       0.22352258
H       10.40319593      11.86745907      12.41506391       0.55679092       0.04164910      -0.50739411       0.13564640      -0.05651447      -0.39709955
H        2.99522268       8.78476324      13.28772219      -0.64432755       0.16948403      -0.02869851       0.07760025       0.09264968      -0.06390633
H       14.56800890       6.10479270      12.30227155       0.23443112      -0.10256941       0.11001587      -0.01977478       0.19345205       0.05671614
H        3.78998400       4.03532292      13.07056475      -0.18769570      -0.10416824      -0.10426881       0.04690314      -0.04924666       0.04617776
H       11.38586055      11.87326475      10.57926585       0.03761075      -0.10280144       0.25517689       0.10382997       0.01575858      -0.24667073
H        1.62751868      10.46755751      13.26034273       0.04492556       0.18225988      -0.46885116       0.04508064      -0.09817278      -0.21279103
H       13.07682900       6.88718430      11.71786363      -0.88877371       0.35639414      -0.19302345      -0.00774371       0.06448464      -0.07077616
H        4.56952284       4.96122913      14.46544470       0.51145729       0.65059985       0.66664263      -0.00616253       0.19655989      -0.18049908
H       12.36733401      12.57790203      12.08470882      -0.12717439      -0.59534346       0.31489986      -0.16518791      -0.04982593      -0.19472831
H        2.38482250       9.80298433      15.02146285       0.03879018       0.43956427       0.50785348       0.05513974      -0.10606669      -0.16664503
H       14.38992721       6.38311768      10.48813375      -0.13104171       0.50407973       0.81841344       0.01955790      -0.04866970      -0.05485237
H        5.39377762       2.63569702      14.49620826      -0.17554458      -0.14519849       0.25212742      -0.07699157      -0.01178394       0.00726317
H       11.24748079      14.40598729      10.43618346       0.48398513       0.23926116      -0.20716984       0.10744121       0.01267954      -0.06875272
H        1.01222358       7.74873912      14.41596449      -0.39960669      -0.31975226       0.89433335      -0.01530148       0.18557409      -0.21229243
H       14.39558461       8.65206658      12.52269267       0.34692124       0.35231645       0.01741860       0.13174265      -0.01565599      -0.24087896
H        6.72499022       3.63314591      14.03407092      -0.49171418      -0.23449949       0.15141801      -0.03043700       0.09828132      -0.10506847
H       10.46224768      14.31572718      12.09582030       0.20166048       0.61375997       0.64318759       0.07063378       0.27047524       0.02004463
H        0.45929655       8.00972327      12.81662388       0.10803795       0.66737910       0.26908474       0.04849216      -0.03400242       0.08434006
H       14.43813663       8.80785191      10.84901641       0.54717512       0.12158200      -0.04753753      -0.00269519      -0.13980468      -0.11983597
H        5.88539870       2.69726137      12.84349134      -0.39981403      -0.12473036      -0.03310094      -0.21271308      -0.11086918      -0.03473899
H        9.55588349      13.70091794      10.58451739       1.44457993       0.50478965       0.26546058       0.03338015       0.05954966      -0.17923630
H       -0.21024540       9.18705348      14.12837089       0.33255747      -0.22551945       0.32306068      -0.01029583       0.04059020      -0.14336298
H       15.81691588       8.12969776      11.70196243       0.21383994       0.29363751      -0.25428706      -0.04031445      -0.05377875      -0.18406249
C        4.80834223       4.42043726      13.47884238      -0.87217762      -0.45785508      -1.04376862      -0.06925075      -0.84907947       0.70222761
C       11.27396899      12.38285667      11.60304820      -0.26376005       1.21750466      -0.06937312       0.88318972      -0.14762247       0.08988598
C        2.03510329       9.48142226      13.82986147       0.17817539      -0.98534754      -0.16345308       0.25573907      -0.93765771      -0.49545448
C       14.16620801       6.80380193      11.52873907       0.62125743      -0.96463219      -0.80950094      -0.22473826       0.05038375       0.11657592
Pb      37.56291225       5.14310803      11.60367681      -0.03257481      -0.15771464      -0.02078149       0.88324709       0.34643508       2.92828185
Pb      16.50191425      12.13385273      14.15645027       0.08219674       0.17946912       0.01942048      -1.08992864       0.46967259       2.12615840
Pb       7.25771598      10.29815004      11.43733831      -0.04381023      -0.00078250       0.07175076       2.55137159       3.20448382       0.83505874
Pb       9.17710760       6.61708560      13.93925130      -0.11075379      -0.20010711       0.12644867       3.06106491      -0.63084397       2.33910427
N        5.73630125       3.28595004      13.74226008       1.52816379       0.15574715      -0.14208934      -0.69365502      -0.05233801       0.37661996
N       10.63417041      13.80131540      11.16924545      -2.29721853      -1.92691642      -0.54682026      -0.17788806       0.05289918      -0.17132587
N        0.71264243       8.57464110      13.79713772       0.40844158       0.05825463      -1.36419938      -0.02866074      -0.06526569      -0.53117950
N       14.77882851       8.18767630      11.63743149      -0.76461128      -0.75277669       0.35932447       0.05061242      -0.07040621       0.35133637
I       17.28370178       6.72773523      18.97727675      -0.00062609       0.01053521      -0.17906737       2.28854958       0.75949297      -0.28884893
I       17.89286579      10.43344914      16.63525984       0.02105791      -0.03356259      -0.19928232      -2.44176988      -1.82411572      -1.37650143
I        8.31164970      11.95769411      18.83021771      -0.10440646      -0.08274854       0.01034322      -0.37798735      -0.93211473      -0.55430870
I        7.79059001       4.64568290      16.37680996       0.02924444       0.22495107      -0.04549248       2.47181296      -1.22772864      -0.86038041
I       15.63645996       2.92456566      16.60837622      -0.10841970       0.19048250       0.05978136      -1.41811674      -0.74340154       0.06700642
I        0.31662729      13.79928647      18.88790168       0.01186328      -0.05349437       0.03448208      -0.23807979       1.50913667       1.31829159
I       10.05092457       8.63179040      16.34624914      -0.05674316      -0.11295114       0.07574887       1.49755138      -0.72837295      -2.31178118
I        5.66785264       8.15845763      18.80141415       0.32757779       0.10168727       0.07559189      -0.28996027       0.57499727      -0.93015346
I        1.88314451       6.10319608      15.95795054       0.41942037       0.00844487       0.06619850       0.02909153      -0.03308154      -0.41579290
I       13.78362983      10.74464710      18.93053238       0.16722396       0.08241086       0.13399940       0.58959164      -0.95933696      -1.63995030
I        4.42462965      11.87579394      16.20313626      -0.12576129       0.02425911       0.12133383      -1.27953130       1.49351094      -0.81307380
I       11.47061547       4.80720890      18.90730829       0.00739390       0.22753149       0.03312537       0.09582564       2.94400799       1.05394204
H        3.54262824       4.12629818      19.10191654      -0.02601424      -0.05422178      -0.16830604      -0.10783303      -0.03264642      -0.06544162
H       11.93779686      12.00956736      17.07446028      -0.03061318       0.58658527      -0.05844993      -0.07281646      -0.13190434       0.04348555
H        1.60212702      10.66852550      18.24175670      -0.12248300       0.04767605       0.12148633       0.10905566       0.14281371      -0.01241151
H       14.78979036       6.39443377      16.01746085      -0.66546499      -0.33463470       0.36316436      -0.02619190      -0.10672438       0.17195754
H        5.22173225       4.81418940      19.61500249       0.12250422       0.41909977       0.19745729       0.23134938      -0.05796667      -0.00673163
H       12.00093053      12.23976357      15.30079841      -0.09459257       0.14464088       0.04478374      -0.00359644       0.07329794       0.02922178
H        1.45143045       9.96440911      20.06127839      -0.11410116       0.80469216       0.10499219       0.06804736      -0.08737290       0.01950692
H       13.81554466       6.73870917      17.83160868      -0.35188054       0.28996251      -0.50882456      -0.09889251      -0.05153193      -0.00981664
H        4.74584816       4.75899804      17.79759364      -0.20251771       0.24757737       0.19671249      -0.08585286       0.03466823      -0.01013773
H       12.81637713      13.61705489      16.29625191      -0.06583030      -0.54115054       0.20157434       0.03676039      -0.03346259      -0.09081886
H        3.00184592       9.80677577      18.95706704       0.54611121      -0.49971018      -0.15780300      -0.04360005       0.09434419      -0.11988592
H       12.96504481       7.46462439      16.04290918       0.16993026      -0.32538500       0.15369649      -0.01798040       0.18357983      -0.03404626
H        6.35567605       3.02530038      18.43865359       0.31314105      -0.00117337      -0.14234962      -0.29121382      -0.12028160       0.07116603
H       10.81474677      14.35113845      17.12166384      -0.70298868       0.39870904       0.41359975      -0.06099451      -0.13939934      -0.01542144
H        1.46166006       7.79092326      19.34823872      -0.25285002      -0.30127131       0.13554001       0.00631186       0.16299069       0.16141487
H       14.51586877       9.01702148      17.52519166      -0.19626922       0.08622667      -0.28246804       0.02759494       0.00744582       0.17226503
H        4.93843094       2.37182070      17.76153947      -0.13685333      -0.68420015      -0.65199032       0.02245810       0.17493878      -0.20869589
H        9.68396467      13.11588267      16.42531666       1.56062014       0.83518014       0.09196916      -0.03041911      -0.02697840       0.16666954
H        1.71501395       7.89785717      17.70333736      -0.20082076       0.23095855      -0.30156157       0.01205467       0.13906097      -0.02829496
H       14.90494626       8.86268094      15.82685378       0.45705171      -0.58769038       0.77337887      -0.02836552      -0.12270517       0.02834356
H        5.19242982       2.35521982      19.46440136       0.09444154      -0.15500307      -0.54661770       0.23430782       0.10178633      -0.15318406
H       10.59520284      14.36829020      15.48763564      -0.15609320       0.27037371      -0.53613815       0.05123621       0.13128989       0.04416423
H        0.25129145       8.53546447      18.43159563       0.16562104      -0.52747013      -0.20021223      -0.02477630      -0.36611978       0.11063915
H       15.88898867       8.02693149      17.16556807      -0.76765682       0.39880758      -0.43659028       0.12376932      -0.22312330      -0.07942834
C        4.65286366       4.26144963      18.78583986      -0.14203153      -0.23744964      -0.54712558       0.66592216       0.03959909      -0.55845346
C       11.91601523      12.82721217      16.26714305       0.33385745      -0.05062199      -0.61979069       0.42093027      -0.06890649       0.34170999
C        1.88267019       9.81627762      18.94701247      -0.12007586      -0.03004089      -0.13269421      -0.00675786      -0.06744555      -0.35012508
C       14.00726965       7.12981808      16.68744684       0.62467445      -0.20777924      -0.49054766       0.03716290      -0.07817361      -0.22642906
Pb      37.49781616       5.18151322      16.50644994      -0.23195428      -0.14839795      -0.16852237      -0.46666298      -0.25643504       0.15358723
Pb      16.63378399      12.28967281      18.95663753      -0.12698140      -0.05616874      -0.15702197      -0.76597857       0.24398114      -0.45511771
Pb       7.03747231      10.19816638      16.48823249      -0.01291199      -0.11898259      -0.25830592       2.97573097       0.58190934       1.69944405
Pb       8.87642180       6.62875785      18.77826547      -0.10264665      -0.22523143       0.04682584       1.92303970      -2.36413502       0.24616660
N        5.32440969       2.90983345      18.57035636       0.11815193       0.62898727       1.62359447      -0.34627287      -0.41806750       0.50539805
N       10.63250786      13.72831293      16.32197354      -1.09896054      -1.54139486       0.60341097      -0.35102408       0.03484402      -0.21202502