768
Lattice="38.16606883306081 0.7708101007676014 0.3666927628512125 -0.3296249581406084 22.360322942442707 0.08526197331993467 -0.1800967783537251 -0.06462717078727989 19.468533293292147" Properties=species:S:1:pos:R:3:forces:R:3:momenta:R:3 pbc="T T T"
I       17.52672074       6.27287133       4.98724665       0.08053344       0.02259712      -0.14050139      -1.01119323       2.08997821      -0.39288393
I       18.23459016      10.27130296       2.81344578       0.03695434      -0.15988100      -0.18978228      -0.36334090       0.33024614      -1.26965194
I        8.74039939      12.23307611       5.08751875      -0.03458094      -0.10024226      -0.01265712      -2.01354232      -1.78547905       0.10827511
I        8.10775802       4.59535880       2.41158309       0.13419381       0.10255412       0.21722987       0.68257129       0.00254879       1.28442051
I       16.07187253       2.74107925       2.66705312      -0.05139081       0.23738779      -0.17495290       1.09751319       2.26524818      -0.06229987
I        1.00272789      13.62906470       4.74494610      -0.08695163      -0.05214036       0.04670738       0.69608626      -0.88097144       0.35579629
I       10.22584538       8.41504794       2.78900704       0.15357272       0.03980028       0.13103429       0.80560945       1.30062148      -0.98233922
I        6.30845118       8.15737903       5.11820412       0.15291071       0.18042227      -0.17912773       1.83901916      -0.06220457       0.66338299
I        2.44307880       5.94853343       2.27265796      -0.14453496       0.00618884      -0.03521943       0.09183948       2.38571654      -0.10436459
I       14.49076948      10.53933625       5.27318835       0.04703997      -0.07417887      -0.04752669      -0.47557246      -0.31302175       0.68556253
I        4.78493964      11.86831583       2.55926232      -0.18232629      -0.10525026      -0.10030328       1.44472161       3.43112348       0.90943101
I       11.92547730       4.84566103       4.92316374       0.08124454       0.04831274       0.03633640      -1.21775363       0.95596721       0.11733584
H        5.53247090       5.00976256       4.20810298      -0.29487277       0.63030048      -0.05958912       0.13678754       0.02301798      -0.21644892
H       12.05645196      12.00832641       3.41836143       0.31060515       0.64127715      -0.88779840       0.02700008      -0.20539799       0.05056110
H        3.21514001       9.13783411       4.08866779       0.33222526       0.05712658       0.11251230       0.05714567      -0.02381687       0.11641223
H       13.90809560       6.32734555       3.81394974       0.01774799       0.20995530      -0.00233415      -0.06236725       0.08412548       0.14779808
H        3.93065519       3.88655011       4.44476604       0.30382638       0.70172281       0.15822915      -0.12392014       0.08309253       0.09258613
H       11.21096338      11.71140202       1.59346729       0.36114799      -0.50950846      -0.06216216       0.02013154      -0.00400264       0.03343216
H        1.58467966       9.89735933       3.53895484      -0.00921753      -0.54352116       0.81768220       0.00047244      -0.11951103      -0.12701703
H       13.10366497       7.54962503       2.54426105       0.61048490      -0.12817993       0.29277432       0.02531083      -0.16934154       0.07710956
H        4.93184290       4.54833841       6.02787132      -0.04278353       0.36479745       0.12915979       0.09086632      -0.02843065      -0.03431238
H       13.02460987      12.65247542       1.71352846       0.17925026       0.12631242       0.22861815      -0.08785031       0.16342405       0.03028509
H        2.21506753      10.02433840       5.36498877      -0.04286666       0.33690275       0.26975893      -0.08405316       0.07503198      -0.06007235
H       14.34317285       6.28570727       2.02881996       0.08359313       0.05059358       0.20375210      -0.07193765       0.00971344       0.09374898
H        5.59385603       2.29385617       5.52254026      -0.37214980      -0.09285950       0.56486176      -0.00811133       0.00478974      -0.10053243
H       11.17833289      14.25714360       1.47712948      -0.07728850      -0.31902622       0.20315176       0.02279916      -0.02747197       0.33108221
H        1.93709055       7.57100275       5.67746964      -0.05857488      -0.18942712       0.55425293       0.06091580      -0.11530211       0.00023616
H       15.16413609       8.59820011       3.75011006      -0.32006935       0.91146232       0.56062500       0.07305659       0.12741542       0.19368041
H        6.77575592       3.22718082       4.90094659       0.56892887       0.09261655      -0.11915856       0.13593925      -0.04655889       0.14730914
H       11.46738237      14.36031093       3.15545965      -0.21259186      -0.32554493      -0.34778875      -0.05439341       0.07780794      -0.00275965
H        1.43998138       7.43499462       4.04870120      -0.02935498      -0.26886715      -0.45615031       0.18827603      -0.03324007       0.01198126
H       15.40411698       8.45979137       2.03540595      -0.23267879       0.80611103       0.08180201       0.01140202      -0.07781702       0.22495945
H        5.66439504       2.47451975       3.91643799      -0.17389823       0.13180346      -0.37272597      -0.03094758       0.26452861       0.15808486
H       10.11998321      13.45157441       2.58055213      -0.13312310       0.14769086      -0.02061765      -0.04590040      -0.11927162      -0.05525172
H        0.33698247       8.16372381       5.13155248       1.02089186      -0.05761296       0.09495605      -0.14704532      -0.19091261       0.02169647
H       16.16760496       7.31754401       3.12367742       0.37433624       0.35300817       0.24059979      -0.11404110       0.04287617      -0.14156203
C        4.97507486       4.25205046       4.89867773      -0.77058019      -1.19298029      -0.58747041      -0.10376989       0.41342692       0.36122630
C       11.95336830      12.42197228       2.28897836      -1.29166610      -0.03970508       0.30829077      -0.01581754      -0.09288149      -0.07820553
C        2.15438424       9.39309753       4.44448194      -0.32161736      -0.06779939      -0.85636946       0.37407292       0.10826524       0.26178568
C       14.09167078       6.97282379       2.86234733      -1.19150485      -0.51916404      -0.53610075       0.59724867       0.07468241       0.35906622
Pb      38.07748758       4.85214027       2.49795591       0.14590467       0.03358993       0.05178736      -1.16018275      -1.44340968       0.04866851
Pb      17.15253542      12.21534009       5.08505206      -0.03644540      -0.19620390       0.04032194       3.09449283      -2.31288285       0.22277311
Pb       7.47716878      10.34946269       2.70443837       0.03468808      -0.17795873      -0.27837308       1.68792267       0.21972607      -1.56206236
Pb       9.21210065       6.51763299       5.19673657      -0.14243699      -0.27331770      -0.27591202       1.11209957      -2.13637026      -2.07123873
N        5.77920250       3.02195376       4.80018841       0.91730080      -0.57396700       0.52304750      -0.05080279      -0.46577703       0.43844624
N       11.12136706      13.69072835       2.37850229       0.73397120       0.17819926       0.80186287      -0.22169375       0.38190077       0.45475205
N        1.40579198       8.08055675       4.86763188      -0.79469405       0.90154628      -0.54065342       0.59917229       0.89036605       0.08727025
N       15.26327572       7.93921507       2.98069280       0.87580732      -1.65923624      -0.95566775       0.07663307      -0.86477347      -0.17616890
I       17.51199566       6.28633103       9.81184865       0.04520468       0.15106772       0.00641094      -1.19715229       1.76078161      -0.34568118
I       18.44101403      10.48760567       7.51092780      -0.01801196      -0.28882750       0.06568328       1.62506350      -0.79029223      -0.18928757
I        8.67202472      12.07808112       9.89462272      -0.16735538      -0.18767180       0.03598278      -0.42208042       1.20975006      -0.03515076
I        7.99220826       4.66543737       7.81466529       0.06253005      -0.09235375      -0.44108428       0.99621860       0.28545096       0.97469402
I       16.23708124       2.72656220       7.63300453      -0.15265792       0.29855567      -0.09779567      -3.03464565       1.39715512      -0.44867519
I        0.92628371      13.35677357       9.57321260      -0.30425175       0.22085864       0.13546799      -1.16125422      -0.90616381      -1.38048939
I       10.34458845       8.38325602       7.42343859       0.12765904       0.08650269      -0.04813497       4.17242242      -1.18240778       1.12798007
I        6.41328050       8.37288947       9.96418428       0.26086800      -0.08051941      -0.02380181       0.47045590       1.17609340      -0.75413537
I        2.62989790       5.92794955       7.31177530      -0.03089981       0.02247973      -0.07385731       0.44398664      -0.87577017      -0.12368053
I       14.44371482      10.08664949      10.18178628      -0.01405281       0.26998480      -0.13478816       1.38207836       1.93933424      -0.90108298
I        4.71637224      11.65187786       7.24939989      -0.01012883       0.04450926      -0.10716171       2.12122219       0.09682701       2.44904372
I       12.06443192       4.66528600       9.59674879       0.04381953       0.20683515       0.08918484       0.56372371      -2.62392173       1.25355170
H        3.67094963       3.87644836      10.10554780      -0.36468374      -0.16761037      -0.21157643       0.15681124      -0.12422552       0.04137049
H       12.02838354      11.95071441       8.42682343      -0.36061671      -0.31400023       0.31006692      -0.07086117       0.11707141       0.16073644
H        2.57499110      10.24131290       9.16917444       0.11741586      -0.33145484       0.22293145       0.08339723       0.05488002      -0.14310131
H       14.64848537       6.29844073       6.42245614      -0.05217344       0.70086385       1.09166441       0.12447852      -0.03812614       0.06936773
H        5.07159869       4.66672294      10.86862237       0.17671865      -0.19619572      -0.18200508      -0.15576222      -0.11038477       0.08779750
H       11.76290716      11.58587850       6.63416087       0.23704056       0.07949423       0.10276975      -0.08113385      -0.08599548       0.18952483
H        1.67989003      10.01645165      10.90971442      -0.26112361       0.02304153       0.40637776      -0.12432974       0.01492926       0.03210197
H       14.62013669       6.12580104       8.27844883      -0.30913752       0.12278871      -0.60103055       0.08560284      -0.17350058       0.11987812
H        4.77498765       4.91376974       9.05662716      -0.19315727      -0.85311011       0.98039659      -0.14447733       0.01611187      -0.02714779
H       13.04156761      12.78401766       7.23862824       0.78133097       0.30536852      -0.22640226      -0.05355700      -0.10522295       0.16234364
H        3.39383641       9.26195693      10.61235006       0.16607393      -0.41275340      -0.24926939       0.08840799       0.03755824       0.03515202
H       13.42057873       7.23361063       7.41010154       0.31054606      -0.44232307       0.07182935       0.08372101       0.03717788       0.05456360
H        6.59686761       3.16201510       9.51362679      -0.74583267      -0.07559254      -0.01649829       0.04355803      -0.11432493      -0.05916497
H       10.97420104      14.04253825       8.18442384      -0.19205636       0.16797838      -0.27396292      -0.07867465      -0.01430462      -0.09859263
H        1.40197349       7.48596514      10.17963344       0.40198920      -0.29447169       0.86641137       0.02873459      -0.15902386       0.19589571
H       15.05870249       8.61005762       8.43181170       0.13992444      -0.21067484      -0.09112985       0.02934871       0.09590143      -0.14748292
H        5.26660315       2.44447968       8.71417681       0.09599177       0.30849099       0.85019047       0.03351690       0.32143196       0.09729681
H       10.12213886      13.12623616       6.90211343      -1.30983625      -0.05112149       0.16744763      -0.12137483      -0.02101833       0.00611528
H        1.89075754       7.91264694       8.55353825      -0.05957373       0.27697356       0.41445257       0.06318493       0.09849926      -0.16367871
H       15.32573496       8.56105556       6.75850191       0.13539259       0.66753685      -0.30628509       0.04285944      -0.19007459       0.01036978
H        5.51224840       2.23298609      10.42297028      -0.10905751       0.02718683      -0.10574811      -0.07973278       0.03354175      -0.08692780
H       11.43440324      14.18549064       6.48134911      -0.34103250      -0.10248573       0.50106038       0.23556866      -0.03266283       0.15165279
H        0.49390678       8.56232956       9.28169376      -0.16287644       0.16696140      -0.20849134       0.15757256      -0.04164715       0.29731765
H       16.37339407       7.61685071       7.77833142      -1.66710159       0.89762431       0.08084741       0.12583944       0.15096597       0.07228563
C        4.71463428       4.17057470       9.93200999       0.62604033       0.85046832      -0.51088888      -0.28927595      -0.40162756       0.12845130
C       12.05203063      12.37044138       7.38924394      -1.08976416       0.40550056      -0.20131092      -0.23278722      -0.17487113      -0.24117736
C        2.33759362       9.50415919      10.08641403       0.21640829       1.23275844      -0.44707084       0.11386008      -0.25336602      -0.17134238
C       14.45391635       6.81751554       7.41710043      -0.57316794      -0.50143851      -0.02485456      -0.23483093      -0.31938472      -0.08664321
Pb      -0.09128178       4.33850664       7.03411901       0.06657538      -0.35507336       0.32905159      -1.28645982      -0.13069542      -0.22057983
Pb      17.01540146      12.04595995      10.02932879       0.07049171      -0.17709679       0.02195695      -0.53122826       0.07541279       1.14224579
Pb       7.47147436      10.15421600       7.39316540      -0.13444281       0.09140274       0.29777197       0.02521664      -0.74705916       0.22868430
Pb       9.42195578       6.36353475       9.93102912      -0.34860393       0.12331954       0.15719025       2.96271713      -0.55442971      -2.34444884
N        5.56461470       2.94122939       9.63778278       0.70023955      -0.01341155      -0.71308736      -0.57969948      -0.16508191       0.07113341
N       11.04474269      13.51639906       7.24782086       2.08061568      -0.49178472      -0.29800890       0.00373464      -0.05821533       0.25908880
N        1.49140995       8.32733133       9.49617686      -0.49098542      -0.66033008      -0.71992436      -0.10586050       0.79192102      -0.51828713
N       15.35560778       7.99076798       7.61991209       2.09074573      -1.13395791      -0.32138946      -0.14127478      -0.08452796      -0.36594223
I       17.43667235       6.24055774      14.72151330       0.08053344       0.02259712      -0.14050139      -1.01119323       2.08997821      -0.39288393
I       18.14454177      10.23898937      12.54771243       0.03695434      -0.15988100      -0.18978228      -0.36334090       0.33024614      -1.26965194
I        8.65035100      12.20076252      14.82178540      -0.03458094      -0.10024226      -0.01265712      -2.01354232      -1.78547905       0.10827511
I        8.01770963       4.56304521      12.14584974       0.13419381       0.10255412       0.21722987       0.68257129       0.00254879       1.28442051
I       15.98182414       2.70876566      12.40131977      -0.05139081       0.23738779      -0.17495290       1.09751319       2.26524818      -0.06229987
I        0.91267950      13.59675111      14.47921275      -0.08695163      -0.05214036       0.04670738       0.69608626      -0.88097144       0.35579629
I       10.13579699       8.38273435      12.52327369       0.15357272       0.03980028       0.13103429       0.80560945       1.30062148      -0.98233922
I        6.21840279       8.12506544      14.85247077       0.15291071       0.18042227      -0.17912773       1.83901916      -0.06220457       0.66338299
I        2.35303041       5.91621984      12.00692461      -0.14453496       0.00618884      -0.03521943       0.09183948       2.38571654      -0.10436459
I       14.40072109      10.50702266      15.00745500       0.04703997      -0.07417887      -0.04752669      -0.47557246      -0.31302175       0.68556253
I        4.69489125      11.83600224      12.29352897      -0.18232629      -0.10525026      -0.10030328       1.44472161       3.43112348       0.90943101
I       11.83542891       4.81334744      14.65743039       0.08124454       0.04831274       0.03633640      -1.21775363       0.95596721       0.11733584
H        5.44242251       4.97744897      13.94236963      -0.29487277       0.63030048      -0.05958912       0.13678754       0.02301798      -0.21644892
H       11.96640357      11.97601282      13.15262808       0.31060515       0.64127715      -0.88779840       0.02700008      -0.20539799       0.05056110
H        3.12509162       9.10552052      13.82293444       0.33222526       0.05712658       0.11251230       0.05714567      -0.02381687       0.11641223
H       13.81804721       6.29503196      13.54821639       0.01774799       0.20995530      -0.00233415      -0.06236725       0.08412548       0.14779808
H        3.84060680       3.85423652      14.17903269       0.30382638       0.70172281       0.15822915      -0.12392014       0.08309253       0.09258613
H       11.12091499      11.67908843      11.32773394       0.36114799      -0.50950846      -0.06216216       0.02013154      -0.00400264       0.03343216
H        1.49463127       9.86504574      13.27322149      -0.00921753      -0.54352116       0.81768220       0.00047244      -0.11951103      -0.12701703
H       13.01361658       7.51731144      12.27852770       0.61048490      -0.12817993       0.29277432       0.02531083      -0.16934154       0.07710956
H        4.84179451       4.51602482      15.76213797      -0.04278353       0.36479745       0.12915979       0.09086632      -0.02843065      -0.03431238
H       12.93456148      12.62016183      11.44779511       0.17925026       0.12631242       0.22861815      -0.08785031       0.16342405       0.03028509
H        2.12501914       9.99202481      15.09925542      -0.04286666       0.33690275       0.26975893      -0.08405316       0.07503198      -0.06007235
H       14.25312446       6.25339368      11.76308661       0.08359313       0.05059358       0.20375210      -0.07193765       0.00971344       0.09374898
H        5.50380764       2.26154258      15.25680691      -0.37214980      -0.09285950       0.56486176      -0.00811133       0.00478974      -0.10053243
H       11.08828450      14.22483001      11.21139613      -0.07728850      -0.31902622       0.20315176       0.02279916      -0.02747197       0.33108221
H        1.84704216       7.53868916      15.41173629      -0.05857488      -0.18942712       0.55425293       0.06091580      -0.11530211       0.00023616
H       15.07408770       8.56588652      13.48437671      -0.32006935       0.91146232       0.56062500       0.07305659       0.12741542       0.19368041
H        6.68570753       3.19486723      14.63521324       0.56892887       0.09261655      -0.11915856       0.13593925      -0.04655889       0.14730914
H       11.37733398      14.32799734      12.88972630      -0.21259186      -0.32554493      -0.34778875      -0.05439341       0.07780794      -0.00275965
H        1.34993299       7.40268103      13.78296785      -0.02935498      -0.26886715      -0.45615031       0.18827603      -0.03324007       0.01198126
H       15.31406859       8.42747778      11.76967260      -0.23267879       0.80611103       0.08180201       0.01140202      -0.07781702       0.22495945
H        5.57434665       2.44220616      13.65070464      -0.17389823       0.13180346      -0.37272597      -0.03094758       0.26452861       0.15808486
H       10.02993482      13.41926082      12.31481878      -0.13312310       0.14769086      -0.02061765      -0.04590040      -0.11927162      -0.05525172
H        0.24693408       8.13141022      14.86581913       1.02089186      -0.05761296       0.09495605      -0.14704532      -0.19091261       0.02169647
H       16.07755657       7.28523042      12.85794407       0.37433624       0.35300817       0.24059979      -0.11404110       0.04287617      -0.14156203
C        4.88502647       4.21973687      14.63294438      -0.77058019      -1.19298029      -0.58747041      -0.10376989       0.41342692       0.36122630
C       11.86331991      12.38965869      12.02324501      -1.29166610      -0.03970508       0.30829077      -0.01581754      -0.09288149      -0.07820553
C        2.06433585       9.36078394      14.17874859      -0.32161736      -0.06779939      -0.85636946       0.37407292       0.10826524       0.26178568
C       14.00162239       6.94051020      12.59661398      -1.19150485      -0.51916404      -0.53610075       0.59724867       0.07468241       0.35906622
Pb      37.98743919       4.81982669      12.23222256       0.14590467       0.03358993       0.05178736      -1.16018275      -1.44340968       0.04866851
Pb      17.06248703      12.18302650      14.81931871      -0.03644540      -0.19620390       0.04032194       3.09449283      -2.31288285       0.22277311
Pb       7.38712039      10.31714910      12.43870502       0.03468808      -0.17795873      -0.27837308       1.68792267       0.21972607      -1.56206236
Pb       9.12205226       6.48531940      14.93100322      -0.14243699      -0.27331770      -0.27591202       1.11209957      -2.13637026      -2.07123873
N        5.68915411       2.98964017      14.53445506       0.91730080      -0.57396700       0.52304750      -0.05080279      -0.46577703       0.43844624
N       11.03131867      13.65841476      12.11276894       0.73397120       0.17819926       0.80186287      -0.22169375       0.38190077       0.45475205
N        1.31574359       8.04824316      14.60189853      -0.79469405       0.90154628      -0.54065342       0.59917229       0.89036605       0.08727025
N       15.17322733       7.90690148      12.71495945       0.87580732      -1.65923624      -0.95566775       0.07663307      -0.86477347      -0.17616890
I       17.42194727       6.25401744      19.54611530       0.04520468       0.15106772       0.00641094      -1.19715229       1.76078161      -0.34568118
I       18.35096564      10.45529208      17.24519445      -0.01801196      -0.28882750       0.06568328       1.62506350      -0.79029223      -0.18928757
I        8.76207311      12.11039471       0.16035607      -0.16735538      -0.18767180       0.03598278      -0.42208042       1.20975006      -0.03515076
I        7.90215987       4.63312378      17.54893194       0.06253005      -0.09235375      -0.44108428       0.99621860       0.28545096       0.97469402
I       16.14703285       2.69424861      17.36727118      -0.15265792       0.29855567      -0.09779567      -3.03464565       1.39715512      -0.44867519
I        0.83623532      13.32445998      19.30747925      -0.30425175       0.22085864       0.13546799      -1.16125422      -0.90616381      -1.38048939
I       10.25454006       8.35094243      17.15770524       0.12765904       0.08650269      -0.04813497       4.17242242      -1.18240778       1.12798007
I        6.50332889       8.40520306       0.22991763       0.26086800      -0.08051941      -0.02380181       0.47045590       1.17609340      -0.75413537
I        2.53984951       5.89563596      17.04604195      -0.03089981       0.02247973      -0.07385731       0.44398664      -0.87577017      -0.12368053
I       14.53376321      10.11896308       0.44751963      -0.01405281       0.26998480      -0.13478816       1.38207836       1.93933424      -0.90108298
I        4.62632385      11.61956427      16.98366654      -0.01012883       0.04450926      -0.10716171       2.12122219       0.09682701       2.44904372
I       11.97438353       4.63297241      19.33101544       0.04381953       0.20683515       0.08918484       0.56372371      -2.62392173       1.25355170
H        3.76099802       3.90876195       0.37128115      -0.36468374      -0.16761037      -0.21157643       0.15681124      -0.12422552       0.04137049
H       11.93833515      11.91840082      18.16109008      -0.36061671      -0.31400023       0.31006692      -0.07086117       0.11707141       0.16073644
H        2.48494271      10.20899931      18.90344109       0.11741586      -0.33145484       0.22293145       0.08339723       0.05488002      -0.14310131
H       14.55843698       6.26612714      16.15672279      -0.05217344       0.70086385       1.09166441       0.12447852      -0.03812614       0.06936773
H        5.16164708       4.69903653       1.13435572       0.17671865      -0.19619572      -0.18200508      -0.15576222      -0.11038477       0.08779750
H       11.67285877      11.55356491      16.36842752       0.23704056       0.07949423       0.10276975      -0.08113385      -0.08599548       0.18952483
H        1.76993842      10.04876524       1.17544777      -0.26112361       0.02304153       0.40637776      -0.12432974       0.01492926       0.03210197
H       14.53008830       6.09348745      18.01271548      -0.30913752       0.12278871      -0.60103055       0.08560284      -0.17350058       0.11987812
H        4.68493926       4.88145615      18.79089381      -0.19315727      -0.85311011       0.98039659      -0.14447733       0.01611187      -0.02714779
H       12.95151922      12.75170407      16.97289489       0.78133097       0.30536852      -0.22640226      -0.05355700      -0.10522295       0.16234364
H        3.48388480       9.29427052       0.87808341       0.16607393      -0.41275340      -0.24926939       0.08840799       0.03755824       0.03515202
H       13.33053034       7.20129704      17.14436819       0.31054606      -0.44232307       0.07182935       0.08372101       0.03717788       0.05456360
H        6.50681922       3.12970151      19.24789344      -0.74583267      -0.07559254      -0.01649829       0.04355803      -0.11432493      -0.05916497
H       10.88415265      14.01022466      17.91869049      -0.19205636       0.16797838      -0.27396292      -0.07867465      -0.01430462      -0.09859263
H        1.49202188       7.51827873       0.44536679       0.40198920      -0.29447169       0.86641137       0.02873459      -0.15902386       0.19589571
H       14.96865410       8.57774403      18.16607835       0.13992444      -0.21067484      -0.09112985       0.02934871       0.09590143      -0.14748292
H        5.17655476       2.41216609      18.44844346       0.09599177       0.30849099       0.85019047       0.03351690       0.32143196       0.09729681
H       10.03209047      13.09392257      16.63638008      -1.30983625      -0.05112149       0.16744763      -0.12137483      -0.02101833       0.00611528
H        1.80070915       7.88033335      18.28780490      -0.05957373       0.27697356       0.41445257       0.06318493       0.09849926      -0.16367871
H       15.23568657       8.52874197      16.49276856       0.13539259       0.66753685      -0.30628509       0.04285944      -0.19007459       0.01036978
H        5.60229679       2.26529968       0.68870363      -0.10905751       0.02718683      -0.10574811      -0.07973278       0.03354175      -0.08692780
H       11.34435485      14.15317705      16.21561576      -0.34103250      -0.10248573       0.50106038       0.23556866      -0.03266283       0.15165279
H        0.40385839       8.53001597      19.01596041      -0.16287644       0.16696140      -0.20849134       0.15757256      -0.04164715       0.29731765
H       16.28334568       7.58453712      17.51259807      -1.66710159       0.89762431       0.08084741       0.12583944       0.15096597       0.07228563
C        4.80468267       4.20288829       0.19774334       0.62604033       0.85046832      -0.51088888      -0.28927595      -0.40162756       0.12845130
C       11.96198224      12.33812779      17.12351059      -1.08976416       0.40550056      -0.20131092      -0.23278722      -0.17487113      -0.24117736
C        2.42764201       9.53647278       0.35214738       0.21640829       1.23275844      -0.44707084       0.11386008      -0.25336602      -0.17134238
C       14.36386796       6.78520195      17.15136708      -0.57316794      -0.50143851      -0.02485456      -0.23483093      -0.31938472      -0.08664321
Pb      -0.18133017       4.30619305      16.76838566       0.06657538      -0.35507336       0.32905159      -1.28645982      -0.13069542      -0.22057983
Pb      17.10544985      12.07827354       0.29506214       0.07049171      -0.17709679       0.02195695      -0.53122826       0.07541279       1.14224579
Pb       7.38142597      10.12190241      17.12743205      -0.13444281       0.09140274       0.29777197       0.02521664      -0.74705916       0.22868430
Pb       9.51200417       6.39584834       0.19676247      -0.34860393       0.12331954       0.15719025       2.96271713      -0.55442971      -2.34444884
N        5.47456631       2.90891580      19.37204943       0.70023955      -0.01341155      -0.71308736      -0.57969948      -0.16508191       0.07113341
N       10.95469430      13.48408547      16.98208751       2.08061568      -0.49178472      -0.29800890       0.00373464      -0.05821533       0.25908880