768
Lattice="38.16606883306081 0.7708101007676014 0.3666927628512125 -0.3296249581406084 22.360322942442707 0.08526197331993467 -0.1800967783537251 -0.06462717078727989 19.468533293292147" Properties=species:S:1:pos:R:3:forces:R:3:momenta:R:3 energy=-3295.2715378364483 stress="0.0 0.0 0.0 0.0 0.0 0.0 0.0 0.0 0.0" pbc="T T T"
I       17.03878951       6.35197292       4.44487756       0.03914718      -0.04860706       0.09490371       1.29868214       1.72876096      -1.54674294
I       17.92801364      10.29516848       1.81182124      -0.05594248      -0.05576922       0.12688014      -2.07194402      -2.36453793      -1.25979138
I        8.57234526      11.48215838       4.29728035       0.04374143       0.41176821      -0.27860342       0.13221195      -2.30545017       3.33374081
I        7.53169773       4.39849355       1.76363450       0.17081948       0.41734004       0.11925308       2.26007018       0.69840422      -0.49723723
I       16.20013033       3.26833436       1.74206627      -0.65920184      -0.44429012       0.05474512       2.20748501       1.58058097       0.56066816
I        0.26060846      13.54825845       4.39802916       0.70155981       0.05669588       0.20446822      -0.89871374      -0.54726684       1.33766481
I        9.87734704       8.56939563       1.19942504      -0.37217746      -0.10157611       0.37486183       1.22226138      -1.66156904      -0.63191288
I        6.15589293       8.07605019       4.02760252      -0.36397045       0.56888384      -0.02896258       1.36952705       2.73501960      -0.06070362
I        2.31694302       6.55610358       1.66286407      -0.36089697      -0.01900169      -0.11775343       2.29141072      -5.12088903      -0.92854828
I       13.97638704      10.06739433       4.31931725       0.10922459      -0.00998640      -0.04254156      -0.35296521      -0.15138096       0.36625897
I        4.18225293      12.04506173       1.79692809       0.04472031      -0.51227775      -0.43790256      -0.72106896       3.60499951      -1.87302556
I       11.62006234       5.35619405       3.82395166       0.10487116      -0.24631241       0.44416574       5.10167267       1.57638557      -3.93871263
H        5.22952868       4.92370747       3.04008481       0.45376956       0.75213942      -0.69653308      -0.23303760       0.18872715       0.27723646
H       10.89509529      11.93729397       3.30132916       0.66985047       0.42341054      -1.54895444       0.35834874       0.30704203       0.17627710
H        3.15399479       9.39196095       5.32479031      -2.68557557       0.40103708       0.36935268      -0.06008269       0.02084179       0.48674370
H       14.51764806       5.46822309       1.15412009      -0.48184915       0.47430208      -1.12262403      -0.05878737       0.14383002      -0.36634312
H        2.94100702       3.79032258       1.98296062      -0.09818702      -0.32437174       1.00612244       0.18716012      -0.23469299      -0.39126679
H       10.69503446      11.45839697       1.41887538      -0.34997414      -0.82671526       0.02725542      -0.33889926      -0.16939536       0.09088854
H        2.34345882      10.57152907       4.13529018      -0.71671198       0.80969215      -2.37032969      -0.28125733       0.11115721       0.09321381
H       13.16287012       7.23616994       1.24750637       0.77473776       0.35644173      -0.16853652       0.17075911      -0.65413619       0.00837831
H        3.00464407       4.66768795       4.77616293      -0.47548385      -1.20426972      -0.54502441      -0.13710617      -0.02341840      -0.27441020
H       12.56570500      11.86164607       1.77029345       0.29390458       0.72744195       0.68753669      -0.18800877      -0.50304570       0.04601101
H        1.29451650      10.17139282       5.77747072       0.84096937       0.12800980       0.25918059      -0.13208380       0.10136728       0.21923927
H       14.12229888       6.94558216      -0.58749975       0.98670956      -1.04372734      -2.33756532       0.00235249       0.16516972      -0.28787179
H        3.97537344       1.98110213       4.62470572      -0.44962113       0.95115261       0.61266438      -0.16157731       0.22569116       0.04691674
H       11.40584031      14.17591358       1.01932003       0.01040775      -0.05398820      -0.43300800       0.01955883      -0.10179891       0.25524194
H        0.86290991       7.84440904       5.06728921      -0.22659966      -0.28428741       0.58245483       0.10694689       0.08781866      -0.14323654
H       15.17689952       8.17209999       2.74039028      -0.48409578      -1.27349351       1.11771471      -0.06153729       0.05331699      -0.11201436
H        5.96370674       3.53003349       5.82780102      -1.53677494      -0.59840216      -0.37447311      -0.06385487       0.21574698       0.02823353
H       11.39855820      14.44799439       2.61525369      -0.07976422      -0.06692569       0.41234714      -0.46333493      -0.33703212      -0.11291731
H        1.46559366       8.16124972       3.44199054       0.15591228      -0.17612549      -0.11339282       0.01547378      -0.05653166       0.44881293
H       15.25749312       9.19470503       1.23173977       0.85881152      -2.60885724       1.29018870      -0.24268228      -0.21750820      -0.17486614
H        6.05050045       2.65972532       3.11468605      -0.41389627       0.18511804      -1.14568306       0.15538976       0.13725580      -0.31799394
H        9.85618001      13.87749036       1.96149394       1.46733176       0.63587126       0.06440615      -0.13752153       0.22290948      -0.15136521
H        0.09612082       9.01626107       3.86887881      -1.00535638       0.05160113       0.41628098      -0.07799572      -0.19503007       0.06451019
H       16.27673154       7.41814400       1.69123047      -1.21656300       0.40710296      -0.40560791      -0.56203268       0.09229730      -0.15501382
C        3.94749313       4.16175575       3.54133701       0.84281783      -0.58372715      -0.16944074      -0.26189412      -0.65318506       1.32940241
C       11.33092443      12.14981170       2.14452899      -0.26724750      -1.39717735       0.62971105       0.78989624       1.10857506       0.45230476
C        2.03844854       9.75019617       4.90371029       1.95142552      -1.48720293       2.34221224       0.52376797       1.09897652       0.63089687
C       14.21122238       6.83556135       0.74165614      -1.04204748       0.54952596       4.87315697      -0.88867761       0.39001773      -0.05266672
Pb      37.91908340       4.98715108       1.63122894       0.51879602       0.32875561       0.35947275       0.74425871      -0.92043438       0.69085801
Pb      16.56193238      11.77030815       4.23978091      -0.23824412       0.04208080       0.20615274       2.44801857      -6.88975789       3.47328996
Pb       7.01309564      10.33529707       1.37718180      -0.17540517      -0.44140395      -0.00144194       3.67791658       5.05032990       1.17535848
Pb       8.69807151       6.68406002       4.07702136       0.24101006      -0.37821702      -0.67946103       2.21378720       0.91235277      -3.30358394
N        4.99003327       3.04664461       4.28906222       2.07197723       1.05974212       1.62579840      -1.60006937       0.01281776       1.09069014
N       11.00739061      13.72745087       1.91762424      -1.58009377       0.74943231       0.34364986      -0.28767504      -0.47272914       0.24411242
N        1.03036749       8.62806579       4.32201439       1.85433081       0.11895564      -1.59518014       1.43497011      -2.48883183      -0.09123295
N       15.29252265       7.86163327       1.69536877       0.53917079       3.03598440      -3.03544871      -1.54378035       1.44051755       0.46306729
I       17.17362656       5.97735510       9.18293685      -0.04131799       0.13131307       0.20863086       0.12121939      -1.96295464      -4.08996095
I       17.95371250      10.02127966       7.07095721       0.25394959      -0.20073284      -0.64172491       1.30743603      -0.99838352      -1.83769429
I        8.59504690      11.74028017       9.07273637       0.34456084       0.27157615      -0.19814925       5.77713035       3.25017215       3.39738485
I        7.42415760       4.33766089       5.92624538       0.15995671       0.16072000       0.28795448       0.93096851       0.92108224       0.34829260
I       15.74447841       2.73431221       6.89139906       0.10237297      -0.09061226      -0.14248472       4.35763939       0.58135667      -2.91387166
I        0.08099221      13.48822044       8.79423774      -0.07933716       0.23019296       0.14374336       2.10851577      -2.17770150      -1.35061625
I        9.65111203       8.26725364       6.65627212       0.27536982       0.26861801      -0.04377207       3.41638041      -1.89677475       0.61316145
I        5.90854702       8.33379389       9.14190441      -0.08530590      -0.04301201       0.01427074      -2.93060201       0.08984653      -0.40211589
I        1.84089744       5.76058850       6.45973358       0.03216128       0.27130344       0.07286697       5.74840368      -0.01810965       3.36919652
I       13.88109499      10.10878285       9.27955508       0.38861526       0.26898756       0.18374092      -3.11901555       1.82971313       5.19514261
I        4.47013632      12.09022458       6.92825355       0.04334356      -0.39921960      -0.60913339       0.22365826      -0.48619840       1.21739261
I       11.31599998       4.96212163       8.56114268       0.03136522       0.03141301       0.14735760      -0.45238280       0.80178811       2.07121101
H        3.61420178       4.09908945       8.72688389       1.72426147       0.25733506      -0.59296041      -0.03267415      -0.57251762      -0.09471306
H       11.58160794      11.88776767       7.39267967       0.79483670       0.83995038      -0.78930618      -0.49843854       0.05020358      -0.09118471
H        1.85664403       9.75299758       7.77659681      -0.06936129       0.77978967       0.08395731      -0.12937917      -0.17439472      -0.14549230
H       13.58421042       5.87410593       6.71951868       0.57369085       0.35849170      -0.69025599      -0.01573047      -0.27340129       0.14816837
H        5.20091596       4.50284998       9.62595772       0.23451192       0.20540383       0.51116423       0.13678954       0.22743522      -0.24545728
H       11.68461017      11.87619743       5.70424882      -0.40412874       0.23016585      -1.08500095       0.20929947      -0.34267184      -0.39222458
H        1.92761139      10.12340039       9.61289378       1.30410176      -0.53364089      -0.99196698       0.17415309      -0.26637252       0.05842747
H       13.55310365       6.72794869       8.52741931      -0.43288493       0.15376610      -1.13893276       0.12168070       0.04493467      -0.04328511
H        5.40895442       4.59587097       7.93014074      -0.51050042       0.22607581      -0.88012201      -0.15341579       0.17661188      -0.04838754
H       13.21187658      12.52156877       6.50698682      -2.09106973      -0.04341731       0.23530076       0.13042540      -0.19105270      -0.27842905
H        3.18599823       8.97176070       8.54752064       0.10246073       0.28817660       1.04189044       0.12591908       0.14908154       0.07681843
H       12.59535365       7.62483026       7.15380848       0.90551176      -0.19228781       0.00668295       0.16462590       0.34839913       0.11308674
H        6.47411463       2.64635859       8.53238595      -3.68437335      -1.56181269       0.31179671       0.12212543      -0.05207672       0.03317400
H       11.50107558      14.22310017       7.57189393       0.49939441       0.84738372       1.01508091       0.20615344      -0.13722135      -0.12661784
H        1.71048121       7.52091637       9.76337878      -0.87242400       1.01826891      -1.10494898       0.15631202       0.46573679       0.11245027
H       15.01935161       8.51344845       7.95554448       0.05189304       0.04360193       0.62942194       0.10214294       0.03668660      -0.04253844
H        4.95013678       1.80534618       8.12839989      -0.59678590      -0.53407164      -1.37024576      -0.12764737      -0.49697346       0.41710028
H       10.27135107      13.65926355       6.68454257       1.01592377       0.46470968      -0.52144294       0.03954234      -0.11241065       0.15457717
H        1.11743639       7.72184510       8.06140735      -0.30996940      -0.36479154       0.10136548      -0.31854250      -0.06273808      -0.13628753
H       14.55266356       8.71322386       6.42835096      -0.02150315       0.14284755      -2.10112146       0.13604575      -0.10621456      -0.37926258
H        5.08074980       2.29967054       9.75118115       0.27463920      -1.60583270       1.28267163       0.06475548       0.39595515       0.31699767
H       11.50446487      14.66692041       5.97218375       0.13180936      -0.45899004      -0.43113823       0.28040868       0.29372441      -0.04746759
H        0.22229778       8.58339202       9.35663084       0.18231412      -0.44344379       0.34867946       0.01000869       0.27110390       0.16605450
H       15.75154345       7.33106807       6.72963995      -0.12257195       0.30658921      -0.10661938      -0.18456508       0.37632704       0.13770786
C        4.85724013       3.99658659       8.71377781      -2.88094655       1.08449704       0.34538701      -1.31413514       1.04643108      -0.13281307
C       11.99775221      12.51862429       6.51577207       1.84533148      -1.65881581       1.84582023      -0.57948166      -0.18423595       0.41161294
C        2.16571049       9.37207494       8.78345869      -1.17421496       0.68141630      -0.07232299       0.58606340       0.28944277       0.22722870
C       13.57204547       6.97616034       7.30595224      -0.80644043       0.05813775       2.26678848      -0.19899689       0.71134137       1.02064422
Pb      37.62072167       4.48682247       6.79811589       0.02753168       0.69790499      -0.21635042       2.13233134       0.67759098       0.68920186
Pb      16.83067661      11.57445824       8.85672817      -0.34411402       0.56857528       0.66883708       4.35200935       0.35065008       1.28620801
Pb       7.04285335      10.13985422       6.53281923      -0.27059532      -0.19470928       0.04898251       3.05749509      -6.22015155       2.05775130
Pb       8.38874285       6.28600398       8.75005482       0.15454724      -0.05378331       0.23001634      -3.09859206       3.77101144       2.56582171
N        5.31468834       2.57350940       8.75769371       5.29149449       2.00314412       0.57452983       0.04329788      -0.25293670      -1.16736883
N       11.32905306      13.82533847       6.63931376      -2.23469829      -0.29225888      -0.31178418       0.18045336      -0.57917220       0.91040187
N        1.20807211       8.24256499       9.00989419       0.72981718      -1.55496052       0.99911094      -0.38288035       0.63409652       0.39268690
N       14.82612397       7.91915427       7.04123199       0.17733193      -1.09918904       0.59544229      -0.02680965       0.14689414      -1.12437403
I       17.64355854       6.27303021      14.02620489      -0.38409596      -0.33104173      -0.01760283       1.17801784      -2.43525416       0.76194995
I       17.54137747       9.82363638      11.69349009       0.04154088       0.19497569      -0.12839433      -1.18411340      -0.72783841      -2.62423968
I        8.70080257      11.63546673      14.14184720      -0.04855821       0.41348436      -0.14117567      -1.84652428      -2.67993762       1.14867717
I        7.29981301       4.80789077      11.38926112      -0.10936728      -0.32472655      -0.03219035       0.53145733      -0.42662988      -5.16932074
I       15.91062741       2.79570917      11.49314154      -0.14178365      -0.34735250       0.21236827       0.28663033       4.02965065      -5.09997553
I        0.01153001      13.48844539      14.50846715      -0.04251205       0.25902781      -0.45299970       1.48810991       0.78536340       0.88363515
I        9.96588599       7.83801923      11.13024454      -0.33271378       0.40673982       0.05840211       3.82394890      -1.90111362      -0.45752479
I        5.68846323       8.71956526      13.83906038       0.12618683      -0.64549916      -0.05906749       1.22713205       3.72539241      -0.02872935
I        2.19794779       6.29399189      12.08538858      -0.43835525      -0.37938669      -0.75010591       3.92137117      -1.17060612      -0.96746236
I       13.71861778       9.92349895      14.03601603       0.25626250       0.09432146      -0.22495651       2.90417813       2.97073017       0.74627075
I        4.31548276      11.75954456      11.31262130       0.51496311       0.22861908       0.07177658       3.57425221       4.14823806      -2.28417205
I       11.12861232       4.84292720      13.64296089      -0.08658819       0.17297095       0.18780014      -0.82134207       0.20113360       1.50058324
H        4.37929320       4.00410976      12.65329173       0.67129476       0.80879395      -1.05113517       0.20933964       0.17709738       0.05477485
H       11.16240057      11.92970069      12.31315119       0.00890816       0.09629067       0.02749047       0.41092636       0.15640295       0.05302025
H        3.24125685       8.83853455      13.64012719       0.89905768      -0.46443778      -0.51539863       0.08422091       0.09851331      -0.37945669
H       13.85769009       6.28827902      12.66447122       0.05295337      -1.60936530       1.01223665      -0.25182187      -0.13555120      -0.06042459
H        3.30894383       3.05241958      13.65745839       2.61735675       0.45977834       0.71822417      -0.01204884      -0.02443473       0.05019751
H       12.71394797      12.50036341      10.51047847      -0.38659744      -0.19218602       0.13727268       0.38785494       0.13943714       0.02312619
H        1.58517453      10.41932587      13.90352432       0.54858870       1.20685950      -1.72124112       0.26751374       0.01945966       0.04522693
H       13.13525869       6.91587572      10.82717555       0.10879551       0.11967718       0.02658876       0.09502483      -0.22563368      -0.09994174
H        4.64448342       4.31254399      14.44389777      -1.09991188      -0.12068751      -0.84911858      -0.17814725       0.02663537      -0.04130423
H       12.77222034      13.66624739      12.65472268      -1.18658264      -0.35759768       0.41221876       0.08565233       0.26327490       0.24671869
H        2.73761912       9.60611023      15.59712903      -0.17499250       0.16590214       0.39109842       0.20478240      -0.28135978       0.39699163
H       14.75678069       5.58292446      10.83816617      -0.09603889       0.26512937       0.88888390       0.37269812       0.00053479       0.01247849
H        5.35238190       1.98257447      14.78660275       0.14454658       1.36501378      -2.07579672       0.11713725       0.84559708       0.21388506
H       10.96076127      14.55614137      10.65656247      -0.01696844      -0.91718443       1.79060447      -0.30741075      -0.09037659       0.07260994
H        1.48595682       7.53038575      14.78269947      -0.63921793       0.37906396      -0.34049231       0.20751321       0.28515320      -0.23580121
H       14.61550349       8.27796703      12.34083712       0.47315332      -0.64937253      -1.68778383      -0.09463489       0.07200082       0.11907409
H        6.47701940       2.99483831      14.01546052      -0.66477744       0.03864762      -0.50334796      -0.00074281       0.22032529       0.33837974
H        9.70299639      14.18912319      12.39246290       1.05371288       1.01516141       0.59686751      -0.00610510      -0.24501355       0.00586613
H        0.87581449       7.95848488      13.11561458      -0.57086962       1.46309998       1.55473612      -0.01340954       0.36442898       0.37343118
H       15.17901947       8.14298842      10.65111402       0.56950031       0.04278294       0.18254913      -0.14595556      -0.09126027       0.10027066
H        5.44969465       1.86351362      13.07565873       0.47644352      -0.37309562      -0.25663477      -0.22368152       0.07637694       0.02616312
H        9.66645748      12.98404279      10.56356614      -2.04856121      -0.47027259      -0.44939362      -0.23561307       0.16061628       0.16355200
H        0.16145931       8.95627967      14.67319883      -1.11940082       0.13488589       0.06454926       0.23408594       0.03035567      -0.30535876
H       16.10541434       7.42169524      12.06603739       1.73186929      -0.96278245      -0.44944545       0.53540057      -0.13133880      -0.16059460
C        4.38425990       3.54683142      13.63777748      -1.96216489       0.01273064       1.86520949       0.08359765       0.59077795       0.77583169
C       11.84156221      12.88585011      11.77404652       1.81603784       0.68993358      -0.72172054       0.50059048       0.06573370      -0.02760178
C        2.28976384       9.37359650      14.31149704      -1.61443672       0.29356314       1.10038750      -0.65593524      -0.57903982      -0.32941466
C       14.14785469       6.48998992      11.45846222       0.43581917       0.18551295      -1.65597722      -0.75657483      -0.74872736       0.15613924
Pb      37.37535496       5.43112675      11.68191273       0.76624921      -0.11745288       0.10767507       0.61891138      -5.58013628      -7.58203998
Pb      16.41902986      11.93233086      14.01508865      -0.16217446      -0.21916171      -0.10869208       0.93400005       3.62293040      -3.91692849
Pb       7.12756906      10.31867080      11.49485529      -0.17753388      -0.31558290      -0.15342163      -4.11912225      -0.27156074       1.29213031
Pb       8.49738113       6.60894320      13.76384732       0.01884160      -0.32659025       0.29954872       3.04215147      -3.26255099      -2.93809701
N        5.50965489       2.57281109      13.84719123      -0.23421259      -2.00801175       2.26382268      -0.13191836       0.71627091      -0.65908064
N       10.47429280      13.71590558      11.33545027       0.57554692       0.10912908      -1.76160989      -0.49981297       1.00018623       1.19650135
N        1.06872864       8.45151478      14.20603266       2.37758559      -2.81305896      -0.60450036      -0.10870502       2.26709631      -1.30914240
N       15.14552453       7.59249068      11.56512171      -3.53220136       2.82713055       1.99105356       1.44355700      -0.76856972      -1.97362298
I       17.88095102       6.37678060      18.69747260      -0.65089182       0.18147869       0.32616470       2.40043272       1.57882944       0.64731558
I       17.63729479      10.25436664      16.38542514      -0.12448037      -0.05506258       0.38936283       1.77786619       3.28520031      -3.00029940
I        8.01573091      12.20678341      18.65106499       0.19681386      -0.17458282       0.28060065       0.85354878      -2.32056384       0.44103641
I        6.89448648       4.43434385      16.26410103       0.52614506       0.42772076      -0.30175316       4.95884343       0.22108337       1.71475040
I       16.07425366       2.60580023      16.46666025      -0.09319253       0.20620071       0.13996719      -1.65035174      -0.12193905      -1.08693730
I        0.37816841      13.52161869      18.47414094      -0.20061851      -0.00465209       0.24726707      -2.88730402      -3.04831307      -0.92007998
I        9.77502601       8.17913796      16.34014574      -0.23033737       0.01885592       0.10008618      -2.91071575       0.01253255       0.70697761
I        5.19099950       7.94489854      18.70663851       0.53607888       0.83620818       0.06595825      -2.85970668      -1.83958111      -0.60313163
I        2.54897473       6.06984575      16.39660966      -0.24264031       0.09801455       0.07295146       4.73722303      -4.47743180      -0.08883523
I       13.87679413      10.27036918      19.26057742      -0.00046708       0.00901767      -0.30685524      -0.55977346       0.10155839       0.87193221
I        4.22946867      11.86489096      15.90383115       0.39007296      -0.27553362       0.14209038      -1.73170127      -0.01341098       5.66856530
I       10.68244932       4.78980347      18.81505566       0.65600356       0.22126434      -0.27416116       1.34402571      -4.38655258      -0.51892623
H        3.42114838       4.04875829      19.85729141      -1.42284866      -0.43740621       0.73070238       0.34796630       0.04294206       0.10771486
H       11.11246016      11.64679122      17.07562901      -0.56901628      -1.01715872       0.63886909      -0.06317058       0.04727589      -0.19719036
H        1.74639054      10.85646403      18.29746232      -0.07928953       0.86837705      -0.39090626      -0.04797213       0.26850742       0.45618394
H       14.23340471       5.84186725      15.67631146      -0.03089460       0.17477686      -0.15346359       0.09237452       0.34996475       0.34409609
H        5.44083565       5.06346730      19.85738013      -0.54422181      -1.93573142      -0.92203324       0.25474158      -0.02990668       0.03546215
H       11.11630206      11.77967091      15.17743765       0.55795564       1.61900027       2.69858609       0.23344651      -0.07438709       0.17592650
H        2.15817967      10.09708280      20.14615412      -0.15474648       0.50224352       0.09680527       0.25334235      -0.04083770       0.06776297
H       14.75081601       5.52652059      17.45112698       0.22784439       0.87356439      -0.51819252       0.19208862       0.23099248      -0.07005169
H        4.00846464       4.84342014      18.14442648       0.41333737      -0.15803214      -0.69832321       0.18558528       0.18246204      -0.05581751
H       12.67554715      12.16728852      16.38231440       0.72511650      -0.09828306      -0.30797497       0.07906932      -0.30840772       0.00908483
H        3.10157227       9.43975225      18.52239242       0.54552706       0.27171932       0.15502797      -0.58724269      -0.11347281       0.13708758
H       13.00406022       6.28996056      17.09683915      -0.57702869      -0.18895895      -0.16069981      -0.07963711       0.15868963      -0.18748047
H        6.28609348       3.22855296      17.80225888      -0.56218283      -0.44081570       0.22498140       0.09536315       0.07708819       0.16819298
H       11.09119867      14.23485836      17.42239545      -0.01444744      -1.98889227      -1.37280076      -0.03077533       0.03899736       0.36229503
H        1.31697106       7.98466086      19.32614726      -0.41149070       0.18772647      -0.09042044      -0.03828850      -0.13889128      -0.17304022
H       14.47232095       8.13756414      17.64804001       0.47685033      -0.16233062      -1.01199075       0.00891783      -0.20282934       0.14222104
H        4.52401240       2.34769706      17.80928472      -0.09505773       0.73613354       0.50642122       0.25567148       0.28068479       0.31019633
H       10.04140563      13.88418575      15.65377155       0.47917863       0.52991863       0.41041007      -0.14440279      -0.12382860       0.05750705
H        1.49375674       8.21038636      17.70141258      -0.44271838       0.38525003       0.00708209       0.12496274       0.05359081       0.02508640
H       13.98897016       8.50365038      15.87551961      -0.18517175      -1.20884206       1.65143427       0.10364469      -0.13527918      -0.27791948
H        5.57689395       2.44940919      19.43755936       0.00979359      -1.01306745       1.53678917      -0.13232241      -0.05221181       0.05263463
H       11.96730014      14.58226375      15.75305453      -0.57241035      -0.16140142       0.09793752      -0.24068296      -0.42301374       0.24429733
H        0.14447515       8.96921366      18.51391491       0.12386412      -0.00310656      -0.09164539       0.36257240       0.16425719      -0.22155488
H       15.72015842       7.86877712      16.16024812      -1.67705814       0.25905774       0.43543134      -0.28651666      -0.43113881       0.00991987
C        4.45408376       4.27275052      19.19028270       1.58274862       1.61271124       0.32653625      -0.13496410       1.29766252       0.21379462
C       11.52934652      12.20927248      16.25337313      -0.16351288      -0.14743943      -2.03527891      -0.13432921      -0.66243729       0.09263972
C        2.12440968       9.95565377      18.91480961      -1.63470613      -3.06616413      -0.31705072      -0.40103681       0.38401514       0.36734334
C       14.12753826       6.26111673      16.71217671      -0.11997055      -0.67338078       0.27325910       1.18499697      -0.20600560      -0.31546773
Pb      38.06461209       5.23841573      16.60728615      -0.22168515      -0.73343959      -0.17787677      -2.08398191      -2.13196885       0.70063002
Pb      16.47410341      12.22461526      18.85499929      -0.17372423      -0.46139374      -0.13971413      -0.19550899      -0.00369518       2.14518527
Pb       7.06598412      10.05597153      16.28121502      -0.44248965      -0.09414939       0.42246077      -4.40828725      -2.12115863      -2.69502921
Pb       8.10220336       6.35276855      18.93406973      -0.20217058      -0.07324074      -0.20532199       0.96283886       0.88185864      -4.00890857
N        5.25584360       2.98966394      18.54341694       0.44017537       1.14253667      -1.55697103       1.08705280       0.29861883      -1.13416256
N       11.14298128      13.78492378      16.34916787      -0.56949391       1.23251312       0.01064126       0.16587366      -0.84964636      -0.47629663