768
Lattice="25.625769195560288 0.1442251890105203 -0.06288156074118129 -0.08544278206367628 25.555723663810763 -0.05823012908242495 0.07213310111533067 -0.1299461261962401 25.66616038795785" Properties=species:S:1:pos:R:3:forces:R:3:momenta:R:3 pbc="T T T"
I        7.18187935       0.57866728       3.20649049       0.02241317       0.02744689      -0.06407256       0.23347724       1.70294359       0.02101478
I        6.35570998      12.32630002       9.58716380      -0.01772341      -0.07127666      -0.13761529      -0.68175672       1.23711983      -1.33517444
I        6.66103159       9.79844238       5.65991960      -0.11785192      -0.11670946      -0.00222711      -1.82181113      -2.03327958       0.75074066
I        7.16489463       3.38040029       6.39885397      -0.10636860      -0.04828613       0.16908784      -0.98444450       0.43605310       0.27243449
I        0.62854072      11.99517536       9.88644925      -0.01593528       0.16354572      -0.37854277       1.35563599       1.44464373      -1.07175285
I       12.82012648       0.76633440       3.28984357      -0.01219175      -0.15157845       0.22997143       0.51838740      -0.35901924       1.32434469
I       12.70699366       3.23388146       7.11906257       0.10487078      -0.15563369      -0.14497061       1.10680166      -0.00026250      -2.20233279
I        0.72141275       9.47917327       5.89593019      -0.07343055       0.20675782       0.05254380       0.42963210       0.91485125       1.39835069
I        9.94313050      13.05543347      12.31142143       0.07156417      -0.12323775       0.06500825       0.12427247       0.74934761       0.45669431
I        3.77368534       6.07093944       7.00900723      -0.13328491      -0.02303802      -0.09838128      -0.32632707       0.66850344      -0.04427833
I        3.59866246       0.51829734       6.00952241      -0.18140893      -0.12507338       0.02000428       1.83818464       2.14942734       0.58002766
I        9.90299649      12.51459175       6.27150926       0.24274887       0.02582603       0.13158821       0.73536672       0.27388007       0.41655552
H        4.17109891       2.11641902       2.75609153      -0.05759818      -0.27857525      -0.00392370      -0.22690691       0.21117321       0.18334967
H        9.19325606       4.16336436       2.39024881      -0.09279924       0.14026561      -0.14505356       0.01055057      -0.21243302      -0.07307273
H        9.17541238       9.07445545       3.29157469       0.09234327       0.18698811      -0.12641179       0.14708027       0.13962042      -0.06555928
H        2.42227503       3.12199978       8.46350291      -0.74258106       0.28664265      -0.56683229       0.08465456      -0.11336189      -0.09789531
H        2.49214349       9.08269570       8.69417669      -0.53411519       0.12517131       0.04564792      -0.23957806       0.08363401      -0.17808769
H       11.01106901       4.17736858       2.51889331      -0.16010173       0.17762156       0.22156621       0.00031817       0.33971747       0.02942828
H        8.55830408       3.06206674       9.16019366       0.58436039       0.09961969       0.61361488      -0.04479024      -0.22173949       0.12665838
H        4.16250924       2.45972686       8.65229827       1.11693696       0.62274722      -0.63056368       0.00030521       0.07864497      -0.05738657
H        3.73905152       3.79207044       2.15353542       0.03429878       1.20050376      -0.65502454       0.02963727      -0.05612331      -0.02151290
H       10.20691938       2.79509863       1.69458314      -0.24469407       0.67952761       0.51857354      -0.18579665       0.03822049      -0.03130958
H       10.01914482       9.93745015       4.61894143       0.01598382       0.04658128       0.52014521       0.04687261      -0.09969584       0.03036562
H        2.85876752       1.98201642       9.79612839       0.09548458      -0.29778730       0.46549343       0.00506418      -0.04040610       0.01010279
H        3.90805307       3.04081523       5.01478756       0.24342688      -1.14118771       0.96480113      -0.03595654       0.14193039       0.16137007
H        9.85361657       7.99323478      11.02150142      -0.06618827      -0.46778592       0.31359940      -0.01515825      -0.07016993      -0.08457286
H       10.82719822      11.58858632       3.09462829      -0.33945050       0.13783833       0.09201250      -0.00746395      -0.14911194       0.10858147
H        2.69338425       9.91753396       4.36132189      -1.03968116       0.46868994       0.60287905      -0.31638789       0.04849236       0.18679359
H        3.12862885       4.43259692       4.52392940       1.04308817      -0.57625188      -0.22614371       0.04944257      -0.09888233       0.09861709
H        9.16671638       9.51950627      11.39079737       0.39166308      -0.19752585      -0.17563481       0.06553758       0.09688054       0.01553213
H        9.12906798      11.54763570       2.95402995      -0.16099561       0.23316596      -0.20115675      -0.01147364       0.14934505      -0.05895720
H        3.57410420      10.60374742       2.99688798      -0.55908457       0.12521926       0.63644958       0.10540864      -0.11879598      -0.02457420
H        4.79190693       4.20793826       4.21945783       1.09836297       0.60429502       0.13254758      -0.13957595       0.05392662      -0.06971628
H        9.86694959       3.52477727       4.63530010      -0.22990153      -0.84461125      -0.44126133       0.02650563      -0.21375089       0.06437142
H       10.18848631      10.81396181       1.78357424      -0.46401071       0.23136961      -0.17964448       0.04116153       0.07713918      -0.02449882
H        4.37351369       9.97177375       4.31904226      -0.00182144       0.03584873       0.27845010      -0.04587062      -0.03210374      -0.10680243
C        3.47874466       9.54930929       8.84955912       0.56781964       0.50875749      -0.81218207       0.06908428       0.08278583       0.17177935
C       10.09124791       3.56610875       2.52592661       0.03964513      -1.00455550      -1.01589203       0.23847905       0.36901116       0.15291542
C        9.63564289       3.34794345       9.47219437       0.67086841      -0.85708150      -1.38316151       0.23171979      -0.07892061      -0.16392668
C        3.25545324       2.87042842       9.16213168      -0.75076693      -0.71940560       1.21742699       0.21335597      -0.16496507       0.68441449
Pb       6.93348793       6.50959061       6.25529758       0.10585745       0.08673597       0.06657959      -1.30630209      -0.01320969       0.80746966
Pb       6.68605693      12.89343376       6.23494193       0.11881463       0.03371694      -0.12515504       2.44422528      -1.17654336      -0.40847516
Pb       0.47423325      12.91325851      12.92781189      -0.25359219      -0.18775831       0.03798283       1.69248513      -1.04314347       0.06768022
Pb       0.29932893      12.90460974       6.64191136      -0.05611865      -0.11629657      -0.16296541       0.18183980       0.12745447      -0.17171884
N        3.91018499       3.70356968       4.27193423      -2.54702494       1.40098714      -1.06284577      -0.33248081       0.34581087       0.01118188
N        9.98977693       9.03348015      10.89023482      -0.26190705       0.34156990       0.57182768       0.21174801      -0.18949693       0.62547160
N       10.00586213      11.01360576       2.79882198       0.79014787      -0.77064334       0.31604511      -0.08144451       0.36350800      -0.65466844
N        3.49857294       9.87470064       3.76074808       1.95758801      -0.10359399      -1.45206325       0.34107694      -0.33843720      -0.02655547
I        6.91632718       6.80510159       9.52050214       0.16278060       0.01219263      -0.04849934      -0.71862641       1.17736315      -1.04770794
I        6.45209127       5.97882521       3.11279956      -0.00044033      -0.01108897      -0.06326551       2.04899271       1.00004484      -0.13454420
I        6.33404119       3.37896435      12.18704869      -0.05398679      -0.22153479       0.02671246      -0.31991000       0.89653491      -0.09130264
I        7.08970591       9.72034362       0.52446479       0.10944696       0.11683467      -0.17020451       0.68382592       0.90337675       1.76473581
I        1.05988308       5.52240608       3.23799936      -0.06599398       0.11239567      -0.07333059      -1.77509981      -1.16798083       0.18167936
I       12.89476975       6.76435285       9.49659145       0.11313836       0.02186166       0.12733946       1.11718433      -1.72539966      -1.52340962
I       12.70184425       9.81169765       0.36978268      -0.00541260      -0.10494729       0.07307929       2.39623795      -2.00778312       1.32035100
I        1.00529634       3.27583820      12.29366780      -0.04273983      -0.01381354      -0.04680117      -1.16311756       1.00459060      -1.08313352
I       10.14405241       6.22431375       5.70100085       0.00371580       0.06303133      -0.08513453       1.11532628      -0.54708975      -0.36445784
I        3.56335577      11.99754694       0.60898807      -0.09819341       0.13606835       0.08652073      -0.30216260       0.80411065      -0.54254361
I        3.59285301       6.98471311      12.05709676      -0.07774656       0.09468000       0.03357258       2.31534568      -0.22042334       2.66087494
I       10.02922044       5.88902445      25.35055503       0.07110966       0.05087206       0.01035218       1.49047849      -2.38890747       0.39627693
H        4.22341505       8.71225235       8.70348317       0.22865677       0.30489360       0.27234016       0.14373856      -0.13427287      -0.14695109
H        9.11526753       9.14418247       8.92547131       0.15046103      -0.02763531       0.28583865      -0.17003445       0.11314591      -0.04649214
H        9.79961684       3.53028732      10.53252096      -0.34288937       0.00698143       0.56543582       0.09961252       0.09352957       0.06444449
H        3.64931759       7.76988675       3.73414622      -0.19972639      -0.66834167       0.19067225       0.17081631       0.10785061      -0.04814262
H        2.32678949       2.84659649       2.90090738       0.54568269      -0.09436862       0.13413441      -0.02412817       0.03637984      -0.02663269
H       10.29860496      10.50762335       9.33790822       0.41158458      -0.64608363      -0.54561469       0.09319160      -0.07716977       0.28369631
H       10.98191253       9.23316509       3.28853210       0.15449484      -0.34701501       0.03198786       0.03245921       0.09992954      -0.03947274
H        2.56872845       8.59778445       2.44003424       0.76192569      -0.66508090       0.50226310       0.05721045       0.16545904      -0.01569015
H        3.66655542      10.41010589       8.11938470      -0.13971113      -0.77638699       0.41303935      -0.09303989      -0.02099485      -0.01669220
H       10.89323889       8.63515460       8.95684081       0.56801804       0.51860367      -0.53911868      -0.24304691      -0.06332951      -0.00618207
H       10.39574276       2.57998613       9.08681644      -0.57859324      -0.06406492       0.22623040      -0.03373182       0.09326462       0.11043480
H        4.37516216       8.64325363       2.32515397       0.27893783      -0.26336083      -0.17870225       0.10972726      -0.27103654      -0.06207005
H        2.79903273      10.83739626      10.27736049      -0.40004596       0.53716417       0.24879598       0.21993361      -0.22630393      -0.01747857
H       10.88481167       2.33380975       3.92878301       0.54932246      -0.38853905       0.30761668       0.03030659      -0.09199878       0.01858447
H        9.30283360       5.39085274       9.17564603       0.38422709       0.16424443      -0.60066570       0.13641404      -0.11565148      -0.23627740
H        3.80463236       4.93495215       9.43412060      -0.13339768      -0.13484265       0.41987743       0.15917439       0.01216120       0.19441397
H        4.49264426      10.68213501      10.32133513      -0.09519283       0.13821736      -0.08319078       0.15148457      -0.13794894      -0.08641403
H        9.25975233       2.04441450       3.83883244      -0.60887203       0.14966168      -0.01433397       0.04419873       0.18580251      -0.14133166
H        9.81143688       4.50510091       7.71850969      -0.06188370       0.32826497       0.04323799      -0.01970378      -0.08034481      -0.02451413
H        4.48687648       3.85151893      10.60672978       0.41539429       0.22988116       0.58705459      -0.03667593      -0.01532552      -0.01439803
H        3.50309432       9.48535586      10.97412544       0.01588306      -0.11780436      -0.08169706      -0.11303411      -0.17123077       0.07611716
H       10.86938447       9.28269680      11.43758457      -0.55437209      -0.02706924      -0.48779186      -0.02339190       0.17337532      -0.07311353
H       10.99542654       4.95631010       8.90251217       0.26964434       0.46408341       0.02596475       0.00364414       0.05000101      -0.01876072
H        2.80089820       4.30914791      10.69997774       0.07062976      -0.11299493      -0.09337700       0.14787885      -0.12961863      -0.10094764
C        3.51800508       3.07573596       2.92867196      -0.27762260      -1.34421584       0.52274317      -0.41781815      -0.28334435      -0.13918723
C       10.09884026       9.37246337       9.39280347      -0.77993721       0.81096308       0.74869817      -0.15587209      -0.44506232       0.35105677
C       10.03851525       9.70219792       3.56386506      -0.10805176       0.39579955      -0.59403528       0.05357053       0.39896459       0.41913772
C        3.53472370       8.56683353       3.01998239      -1.13897361       1.32416021      -0.70208813      -0.03970492       0.01302778       0.20156289
Pb       6.61978102      12.99200912      12.42923153       0.31858256      -0.13324300       0.45020057      -2.40738907       1.05428509      -1.14507757
Pb       6.67865623       6.56189829      12.84776279       0.52284162       0.05394243      -0.03650064       1.42983168       1.87343025       0.84863022
Pb       0.65652509       6.35993738       6.31210274      -0.18116032       0.06473622      -0.15154154       1.17754639      -1.05487059      -1.26472592
Pb       0.66761327       6.35272076      12.67790034      -0.56747640       0.05517787       0.23111989       2.27577905      -0.67910427      -1.52416886
N        3.58348584      10.17499194      10.20138286       0.42721248      -0.83612218       0.02617332       0.04497218      -0.44349224       0.50666603
N        9.98383583       2.82434557       3.82619107       0.72868274       1.13040280       0.62338154      -0.70902421       0.24505043      -0.27480307
N        9.97775011       4.64740356       8.74579257      -1.06360727      -0.17492886       0.82067864      -0.28362455       0.06002547       0.10802279
N        3.59643191       4.08080459      10.04975368       0.12599520       0.06882215      -1.53128940      -0.75285693      -0.04396105       0.18434447
I        7.21794590       0.51369422      16.03957068       0.02241317       0.02744689      -0.06407256       0.23347724       1.70294359       0.02101478
I        6.39177653      12.26132696      22.42024399      -0.01772341      -0.07127666      -0.13761529      -0.68175672       1.23711983      -1.33517444
I        6.69709814       9.73346932      18.49299979      -0.11785192      -0.11670946      -0.00222711      -1.82181113      -2.03327958       0.75074066
I        7.20096118       3.31542723      19.23193416      -0.10636860      -0.04828613       0.16908784      -0.98444450       0.43605310       0.27243449
I        0.66460727      11.93020230      22.71952944      -0.01593528       0.16354572      -0.37854277       1.35563599       1.44464373      -1.07175285
I       12.85619303       0.70136134      16.12292376      -0.01219175      -0.15157845       0.22997143       0.51838740      -0.35901924       1.32434469
I       12.74306021       3.16890840      19.95214276       0.10487078      -0.15563369      -0.14497061       1.10680166      -0.00026250      -2.20233279
I        0.75747930       9.41420021      18.72901038      -0.07343055       0.20675782       0.05254380       0.42963210       0.91485125       1.39835069
I        9.97919705      12.99046041      25.14450162       0.07156417      -0.12323775       0.06500825       0.12427247       0.74934761       0.45669431
I        3.80975189       6.00596638      19.84208742      -0.13328491      -0.02303802      -0.09838128      -0.32632707       0.66850344      -0.04427833
I        3.63472901       0.45332428      18.84260260      -0.18140893      -0.12507338       0.02000428       1.83818464       2.14942734       0.58002766
I        9.93906304      12.44961869      19.10458945       0.24274887       0.02582603       0.13158821       0.73536672       0.27388007       0.41655552
H        4.20716546       2.05144596      15.58917172      -0.05759818      -0.27857525      -0.00392370      -0.22690691       0.21117321       0.18334967
H        9.22932261       4.09839130      15.22332900      -0.09279924       0.14026561      -0.14505356       0.01055057      -0.21243302      -0.07307273
H        9.21147893       9.00948239      16.12465488       0.09234327       0.18698811      -0.12641179       0.14708027       0.13962042      -0.06555928
H        2.45834158       3.05702672      21.29658310      -0.74258106       0.28664265      -0.56683229       0.08465456      -0.11336189      -0.09789531
H        2.52821004       9.01772264      21.52725688      -0.53411519       0.12517131       0.04564792      -0.23957806       0.08363401      -0.17808769
H       11.04713556       4.11239552      15.35197350      -0.16010173       0.17762156       0.22156621       0.00031817       0.33971747       0.02942828
H        8.59437063       2.99709368      21.99327385       0.58436039       0.09961969       0.61361488      -0.04479024      -0.22173949       0.12665838
H        4.19857579       2.39475380      21.48537846       1.11693696       0.62274722      -0.63056368       0.00030521       0.07864497      -0.05738657
H        3.77511807       3.72709738      14.98661561       0.03429878       1.20050376      -0.65502454       0.02963727      -0.05612331      -0.02151290
H       10.24298593       2.73012557      14.52766333      -0.24469407       0.67952761       0.51857354      -0.18579665       0.03822049      -0.03130958
H       10.05521137       9.87247709      17.45202162       0.01598382       0.04658128       0.52014521       0.04687261      -0.09969584       0.03036562
H        2.89483407       1.91704336      22.62920858       0.09548458      -0.29778730       0.46549343       0.00506418      -0.04040610       0.01010279
H        3.94411962       2.97584217      17.84786775       0.24342688      -1.14118771       0.96480113      -0.03595654       0.14193039       0.16137007
H        9.88968312       7.92826172      23.85458161      -0.06618827      -0.46778592       0.31359940      -0.01515825      -0.07016993      -0.08457286
H       10.86326477      11.52361326      15.92770848      -0.33945050       0.13783833       0.09201250      -0.00746395      -0.14911194       0.10858147
H        2.72945080       9.85256090      17.19440208      -1.03968116       0.46868994       0.60287905      -0.31638789       0.04849236       0.18679359
H        3.16469540       4.36762386      17.35700959       1.04308817      -0.57625188      -0.22614371       0.04944257      -0.09888233       0.09861709
H        9.20278293       9.45453321      24.22387756       0.39166308      -0.19752585      -0.17563481       0.06553758       0.09688054       0.01553213
H        9.16513453      11.48266264      15.78711014      -0.16099561       0.23316596      -0.20115675      -0.01147364       0.14934505      -0.05895720
H        3.61017075      10.53877436      15.82996817      -0.55908457       0.12521926       0.63644958       0.10540864      -0.11879598      -0.02457420
H        4.82797348       4.14296520      17.05253802       1.09836297       0.60429502       0.13254758      -0.13957595       0.05392662      -0.06971628
H        9.90301614       3.45980421      17.46838029      -0.22990153      -0.84461125      -0.44126133       0.02650563      -0.21375089       0.06437142
H       10.22455286      10.74898875      14.61665443      -0.46401071       0.23136961      -0.17964448       0.04116153       0.07713918      -0.02449882
H        4.40958024       9.90680069      17.15212245      -0.00182144       0.03584873       0.27845010      -0.04587062      -0.03210374      -0.10680243
C        3.51481121       9.48433623      21.68263931       0.56781964       0.50875749      -0.81218207       0.06908428       0.08278583       0.17177935
C       10.12731446       3.50113569      15.35900680       0.03964513      -1.00455550      -1.01589203       0.23847905       0.36901116       0.15291542
C        9.67170944       3.28297039      22.30527456       0.67086841      -0.85708150      -1.38316151       0.23171979      -0.07892061      -0.16392668
C        3.29151979       2.80545536      21.99521187      -0.75076693      -0.71940560       1.21742699       0.21335597      -0.16496507       0.68441449
Pb       6.96955448       6.44461755      19.08837777       0.10585745       0.08673597       0.06657959      -1.30630209      -0.01320969       0.80746966
Pb       6.72212348      12.82846070      19.06802212       0.11881463       0.03371694      -0.12515504       2.44422528      -1.17654336      -0.40847516
Pb       0.43816670      12.97823157       0.09473170      -0.25359219      -0.18775831       0.03798283       1.69248513      -1.04314347       0.06768022
Pb       0.33539548      12.83963668      19.47499155      -0.05611865      -0.11629657      -0.16296541       0.18183980       0.12745447      -0.17171884
N        3.94625154       3.63859662      17.10501442      -2.54702494       1.40098714      -1.06284577      -0.33248081       0.34581087       0.01118188
N       10.02584348       8.96850709      23.72331501      -0.26190705       0.34156990       0.57182768       0.21174801      -0.18949693       0.62547160
N       10.04192868      10.94863270      15.63190217       0.79014787      -0.77064334       0.31604511      -0.08144451       0.36350800      -0.65466844
N        3.53463949       9.80972758      16.59382827       1.95758801      -0.10359399      -1.45206325       0.34107694      -0.33843720      -0.02655547
I        6.95239373       6.74012853      22.35358233       0.16278060       0.01219263      -0.04849934      -0.71862641       1.17736315      -1.04770794
I        6.48815782       5.91385215      15.94587975      -0.00044033      -0.01108897      -0.06326551       2.04899271       1.00004484      -0.13454420
I        6.37010774       3.31399129      25.02012888      -0.05398679      -0.22153479       0.02671246      -0.31991000       0.89653491      -0.09130264
I        7.12577246       9.65537056      13.35754498       0.10944696       0.11683467      -0.17020451       0.68382592       0.90337675       1.76473581
I        1.09594963       5.45743302      16.07107955      -0.06599398       0.11239567      -0.07333059      -1.77509981      -1.16798083       0.18167936
I       12.93083630       6.69937979      22.32967164       0.11313836       0.02186166       0.12733946       1.11718433      -1.72539966      -1.52340962
I       12.73791080       9.74672459      13.20286287      -0.00541260      -0.10494729       0.07307929       2.39623795      -2.00778312       1.32035100
I        1.04136289       3.21086514      25.12674799      -0.04273983      -0.01381354      -0.04680117      -1.16311756       1.00459060      -1.08313352
I       10.18011896       6.15934069      18.53408104       0.00371580       0.06303133      -0.08513453       1.11532628      -0.54708975      -0.36445784
I        3.59942232      11.93257388      13.44206826      -0.09819341       0.13606835       0.08652073      -0.30216260       0.80411065      -0.54254361
I        3.62891956       6.91974005      24.89017695      -0.07774656       0.09468000       0.03357258       2.31534568      -0.22042334       2.66087494
I        9.99315389       5.95399752      12.51747483       0.07110966       0.05087206       0.01035218       1.49047849      -2.38890747       0.39627693
H        4.25948160       8.64727929      21.53656336       0.22865677       0.30489360       0.27234016       0.14373856      -0.13427287      -0.14695109
H        9.15133408       9.07920941      21.75855150       0.15046103      -0.02763531       0.28583865      -0.17003445       0.11314591      -0.04649214
H        9.83568339       3.46531426      23.36560115      -0.34288937       0.00698143       0.56543582       0.09961252       0.09352957       0.06444449
H        3.68538414       7.70491369      16.56722641      -0.19972639      -0.66834167       0.19067225       0.17081631       0.10785061      -0.04814262
H        2.36285604       2.78162343      15.73398757       0.54568269      -0.09436862       0.13413441      -0.02412817       0.03637984      -0.02663269
H       10.33467151      10.44265029      22.17098841       0.41158458      -0.64608363      -0.54561469       0.09319160      -0.07716977       0.28369631
H       11.01797908       9.16819203      16.12161229       0.15449484      -0.34701501       0.03198786       0.03245921       0.09992954      -0.03947274
H        2.60479500       8.53281139      15.27311443       0.76192569      -0.66508090       0.50226310       0.05721045       0.16545904      -0.01569015
H        3.70262197      10.34513283      20.95246489      -0.13971113      -0.77638699       0.41303935      -0.09303989      -0.02099485      -0.01669220
H       10.92930544       8.57018154      21.78992100       0.56801804       0.51860367      -0.53911868      -0.24304691      -0.06332951      -0.00618207
H       10.43180931       2.51501307      21.91989663      -0.57859324      -0.06406492       0.22623040      -0.03373182       0.09326462       0.11043480
H        4.41122871       8.57828057      15.15823416       0.27893783      -0.26336083      -0.17870225       0.10972726      -0.27103654      -0.06207005
H        2.83509928      10.77242320      23.11044068      -0.40004596       0.53716417       0.24879598       0.21993361      -0.22630393      -0.01747857
H       10.92087822       2.26883669      16.76186320       0.54932246      -0.38853905       0.30761668       0.03030659      -0.09199878       0.01858447
H        9.33890015       5.32587968      22.00872622       0.38422709       0.16424443      -0.60066570       0.13641404      -0.11565148      -0.23627740
H        3.84069891       4.86997909      22.26720079      -0.13339768      -0.13484265       0.41987743       0.15917439       0.01216120       0.19441397
H        4.52871081      10.61716195      23.15441532      -0.09519283       0.13821736      -0.08319078       0.15148457      -0.13794894      -0.08641403
H        9.29581888       1.97944144      16.67191263      -0.60887203       0.14966168      -0.01433397       0.04419873       0.18580251      -0.14133166
H        9.84750343       4.44012785      20.55158988      -0.06188370       0.32826497       0.04323799      -0.01970378      -0.08034481      -0.02451413
H        4.52294303       3.78654587      23.43980997       0.41539429       0.22988116       0.58705459      -0.03667593      -0.01532552      -0.01439803
H        3.53916087       9.42038280      23.80720563       0.01588306      -0.11780436      -0.08169706      -0.11303411      -0.17123077       0.07611716
H       10.90545102       9.21772374      24.27066476      -0.55437209      -0.02706924      -0.48779186      -0.02339190       0.17337532      -0.07311353
H       11.03149309       4.89133704      21.73559236       0.26964434       0.46408341       0.02596475       0.00364414       0.05000101      -0.01876072
H        2.83696475       4.24417485      23.53305793       0.07062976      -0.11299493      -0.09337700       0.14787885      -0.12961863      -0.10094764
C        3.55407163       3.01076290      15.76175215      -0.27762260      -1.34421584       0.52274317      -0.41781815      -0.28334435      -0.13918723
C       10.13490681       9.30749031      22.22588366      -0.77993721       0.81096308       0.74869817      -0.15587209      -0.44506232       0.35105677
C       10.07458180       9.63722486      16.39694525      -0.10805176       0.39579955      -0.59403528       0.05357053       0.39896459       0.41913772
C        3.57079025       8.50186047      15.85306258      -1.13897361       1.32416021      -0.70208813      -0.03970492       0.01302778       0.20156289
Pb       6.65584757      12.92703606      25.26231172       0.31858256      -0.13324300       0.45020057      -2.40738907       1.05428509      -1.14507757
Pb       6.64258968       6.62687135       0.01468260       0.52284162       0.05394243      -0.03650064       1.42983168       1.87343025       0.84863022
Pb       0.69259164       6.29496432      19.14518293      -0.18116032       0.06473622      -0.15154154       1.17754639      -1.05487059      -1.26472592
Pb       0.70367982       6.28774770      25.51098053      -0.56747640       0.05517787       0.23111989       2.27577905      -0.67910427      -1.52416886
N        3.61955239      10.11001888      23.03446305       0.42721248      -0.83612218       0.02617332       0.04497218      -0.44349224       0.50666603
N       10.01990238       2.75937251      16.65927126       0.72868274       1.13040280       0.62338154      -0.70902421       0.24505043      -0.27480307